Title
82276
    1SAPS     N    1   2.830   3.930  11.283 -1.1773 -0.2099 -0.5616
    1SAPS   HN1    2   2.777   3.966  11.365 -0.5101 -2.2531  0.8573
    1SAPS   HN2    3   2.905   3.875  11.330 -0.3646  1.2295 -0.0843
    1SAPS   HN3    4   2.860   4.008  11.220  0.7943 -1.8671 -1.7833
    1SAPS   C12    5   2.737   3.842  11.208  0.5086  0.2528  0.0479
    1SAPS  H12A    6   2.796   3.767  11.157  1.2989  0.7524  0.2064
    1SAPS   C13    7   2.620   3.775  11.289  0.4735  0.4436  0.1450
    1SAPS  O13A    8   2.609   3.816  11.409  0.4124 -0.0848  0.4909
    1SAPS  O13B    9   2.552   3.688  11.233 -0.6826  0.3652  0.6760
    1SAPS   C11   10   2.674   3.921  11.093  0.2225  0.2861  0.9841
    1SAPS  H11A   11   2.612   4.002  11.137  0.5756  1.2523 -0.2325
    1SAPS  H11B   12   2.614   3.853  11.029  0.9402  0.9566 -0.4608
    1SAPS     P   13   2.779   4.042  10.882 -0.3934  0.4837  0.1526
    1SAPS   O13   14   2.754   4.188  10.912 -0.4976  0.3228 -0.5227
    1SAPS   O14   15   2.906   4.016  10.807 -0.4276 -1.0970 -0.9477
    1SAPS   O12   16   2.785   3.970  11.020 -0.3142 -0.3678 -0.5061
    1SAPS   O11   17   2.655   3.989  10.807 -0.8360 -0.5570  0.3217
    1SAPS    C1   18   2.655   3.864  10.757  0.7980 -0.0787 -0.5562
    1SAPS    HA   19   2.726   3.788  10.798 -1.7103 -0.4258  3.7472
    1SAPS    HB   20   2.551   3.827  10.768 -0.2979  3.0001  0.3548
    1SAPS    C2   21   2.661   3.867  10.600 -0.3024 -0.6641 -0.2479
    1SAPS    HS   22   2.643   3.761  10.575  1.5540 -1.3738  1.1658
    1SAPS   O21   23   2.794   3.918  10.555 -0.3323 -1.0590  0.7297
    1SAPS   C21   24   2.877   3.822  10.512  0.2002  0.4363 -0.1551
    1SAPS   O22   25   2.859   3.701  10.540 -0.1669 -0.2672 -0.3664
    1SAPS   C22   26   3.004   3.878  10.456 -0.1557  0.4147 -0.9888
    1SAPS   H2R   27   3.024   3.982  10.490 -0.7430 -0.7834  3.6468
    1SAPS   H2S   28   3.085   3.818  10.503 -1.1906 -0.2755 -0.0464
    1SAPS    C3   29   2.558   3.955  10.541 -0.5390  0.1334 -0.3279
    1SAPS    HX   30   2.584   4.059  10.572 -0.6673 -0.5269  2.2539
    1SAPS    HY   31   2.459   3.930  10.585  0.1034  0.7665  1.5595
    1SAPS   O31   32   2.565   3.934  10.396  0.3209 -0.2406  0.4325
    1SAPS   C31   33   2.536   4.039  10.325 -0.5244 -0.4334 -0.0579
    1SAPS   O32   34   2.493   4.143  10.368 -0.5936  0.4886 -0.9028
    1SAPS   C32   35   2.578   4.017  10.171  0.2891 -0.3225  0.3022
    1SAPS   H2X   36   2.663   4.085  10.153  0.9826 -1.6492 -1.8658
    1SAPS   H2Y   37   2.490   4.043  10.108  1.8128  2.2927 -0.9198
    1SAPS   C23   38   3.015   3.871  10.303 -0.5623 -0.2723  0.4517
    1SAPS   H3R   39   2.940   3.943  10.264  0.9751  0.9418 -0.3870
    1SAPS   H3S   40   2.987   3.769  10.270 -2.1535  0.3246 -0.1428
    1SAPS   C24   41   3.158   3.902  10.247  0.0981 -0.9272 -0.1123
    1SAPS   H4R   42   3.229   3.824  10.280 -0.0384 -0.2304  1.9938
    1SAPS   H4S   43   3.190   3.994  10.300 -0.0938 -0.9197 -0.0073
    1SAPS   C25   44   3.153   3.912  10.099  0.1702 -0.7780 -0.3271
    1SAPS   H5R   45   3.075   3.846  10.058  1.3457 -1.4700 -1.5449
    1SAPS   C26   46   3.228   3.985  10.016 -0.0055 -0.1459  0.4794
    1SAPS   H6R   47   3.207   3.973   9.908 -0.0616  1.1275  0.3358
    1SAPS   C27   48   3.343   4.072  10.049  0.3178 -0.1997  0.1912
    1SAPS   H7R   49   3.385   4.033  10.145 -1.6752  0.4167  1.3625
    1SAPS   H7S   50   3.300   4.171  10.071 -1.3692 -0.9636  0.5000
    1SAPS   C28   51   3.459   4.094   9.960  0.2700  0.0385  0.8203
    1SAPS   H8R   52   3.555   4.065  10.005  1.5350 -0.1504 -1.8327
    1SAPS   C29   53   3.460   4.145   9.833  0.4711  0.0553 -1.0291
    1SAPS   H9R   54   3.554   4.157   9.776  0.5914  0.0228 -0.8375
    1SAPS  C210   55   3.340   4.195   9.752 -0.0049 -0.0220 -0.5427
    1SAPS  H10R   56   3.245   4.170   9.804  1.0198  1.3290  2.2069
    1SAPS  H10S   57   3.335   4.142   9.655 -0.1455 -0.3480 -0.3605
    1SAPS  C211   58   3.353   4.345   9.728 -0.0897 -0.0605 -0.7502
    1SAPS  H11R   59   3.403   4.388   9.816  2.6937 -3.3307 -0.5331
    1SAPS  C212   60   3.313   4.415   9.618 -0.6992 -0.3079  0.2573
    1SAPS  H12R   61   3.338   4.523   9.619  2.2227 -0.9056 -0.1076
    1SAPS  C213   62   3.245   4.361   9.498 -0.1506 -0.4901 -0.0405
    1SAPS  H13R   63   3.158   4.297   9.525  2.4835 -4.0920  0.6010
    1SAPS  H13S   64   3.314   4.288   9.451 -0.7806 -1.3604  0.3584
    1SAPS  C214   65   3.211   4.479   9.405  0.8197 -0.1724  0.2647
    1SAPS  H14R   66   3.149   4.559   9.449  1.9121 -0.0004  1.5846
    1SAPS  C215   67   3.267   4.503   9.289 -0.0020 -0.4673 -0.3634
    1SAPS  H15R   68   3.233   4.575   9.213  5.0802  1.3302 -1.2730
    1SAPS  C216   69   3.366   4.422   9.208 -0.6649  0.2084  0.0667
    1SAPS  H16R   70   3.422   4.354   9.275 -0.3115 -0.9390 -1.3379
    1SAPS  H16S   71   3.445   4.485   9.162 -0.5622  0.7855  1.0133
    1SAPS  C217   72   3.289   4.344   9.101 -0.2030  0.2610 -0.7490
    1SAPS  H17R   73   3.208   4.292   9.156  0.9153 -1.0355 -0.2869
    1SAPS  H17S   74   3.360   4.270   9.058 -0.1532 -0.0518 -0.1313
    1SAPS  C218   75   3.231   4.432   8.987 -0.1294  0.0764  0.5548
    1SAPS  H18R   76   3.311   4.492   8.939  1.5578 -2.1519  0.4340
    1SAPS  H18S   77   3.166   4.512   9.030  1.0496 -0.0996  2.8191
    1SAPS  C219   78   3.148   4.351   8.888 -0.5108  0.6306 -0.3936
    1SAPS  H19R   79   3.077   4.303   8.959  0.9744  0.2001  0.8666
    1SAPS  H19S   80   3.219   4.280   8.841  1.4752  2.1614  0.1106
    1SAPS  C220   81   3.065   4.426   8.787  0.0774 -0.3664  0.1329
    1SAPS  H20R   82   3.122   4.438   8.692  1.4127  0.3367  1.0035
    1SAPS  H20S   83   3.038   4.525   8.829 -1.4507 -0.9195  0.5169
    1SAPS  H20T   84   2.970   4.372   8.765 -0.3874 -0.1156  1.4963
    1SAPS   C33   85   2.647   3.878  10.154  0.2124  0.8497 -0.5914
    1SAPS   H3X   86   2.575   3.796  10.172 -1.4014  2.2910 -0.1040
    1SAPS   H3Y   87   2.729   3.869  10.229  1.0943  1.6351 -1.4344
    1SAPS   C34   88   2.709   3.864  10.018  0.0996 -0.5648 -0.9268
    1SAPS   H4X   89   2.789   3.940  10.001  0.1435 -0.8863 -2.2104
    1SAPS   H4Y   90   2.622   3.886   9.953  0.6328  1.0698 -1.1534
    1SAPS   C35   91   2.769   3.725   9.995  0.0658 -0.4903  0.0343
    1SAPS   H5X   92   2.679   3.660  10.003 -0.4016  0.3349  2.3712
    1SAPS   H5Y   93   2.842   3.695  10.073 -0.0931  4.1659  2.3287
    1SAPS   C36   94   2.817   3.701   9.854 -0.7245 -0.7842  0.3508
    1SAPS   H6X   95   2.912   3.759   9.845 -1.0028 -0.5191 -1.1745
    1SAPS   H6Y   96   2.752   3.747   9.777 -0.3529  1.8966  1.5455
    1SAPS   C37   97   2.857   3.559   9.823 -0.2652 -0.3636 -0.2084
    1SAPS   H7X   98   2.777   3.482   9.813 -0.5742 -0.1448  0.4657
    1SAPS   H7Y   99   2.920   3.532   9.910 -1.0568  0.8998  0.7975
    1SAPS   C38  100   2.948   3.547   9.700 -0.1417  0.4034 -0.8856
    1SAPS   H8X  101   3.018   3.462   9.714 -1.7626 -1.0558 -1.2014
    1SAPS   H8Y  102   3.016   3.634   9.701  1.6421 -0.9306  0.9581
    1SAPS   C39  103   2.866   3.533   9.568 -0.1997 -0.0818 -0.0628
    1SAPS   H9X  104   2.811   3.629   9.555 -0.9979 -0.4085  0.7699
    1SAPS   H9Y  105   2.787   3.456   9.575 -1.0545  0.8707  1.2869
    1SAPS  C310  106   2.962   3.515   9.450  0.3262  0.0383 -0.4634
    1SAPS  H10X  107   3.028   3.431   9.478 -0.7884 -1.2159 -1.4755
    1SAPS  H10Y  108   3.018   3.611   9.439 -1.5838  1.4257  1.0825
    1SAPS  C311  109   2.895   3.482   9.313  0.2972 -0.2516 -0.1602
    1SAPS  H11X  110   2.818   3.403   9.323 -0.7730  0.8662  0.7903
    1SAPS  H11Y  111   2.979   3.451   9.247  2.1051  3.3869  0.1605
    1SAPS  C312  112   2.829   3.604   9.251  0.3773 -1.3694 -0.6387
    1SAPS  H12X  113   2.894   3.694   9.251 -1.9056  0.4343  1.4406
    1SAPS  H12Y  114   2.753   3.646   9.320  0.5287 -2.3700  0.1559
    1SAPS  C313  115   2.767   3.576   9.116 -0.5102 -0.6164  0.4806
    1SAPS  H13X  116   2.674   3.516   9.130 -1.1943  0.5427  1.0525
    1SAPS  H13Y  117   2.839   3.521   9.052  0.1387  0.4871  0.2441
    1SAPS  C314  118   2.721   3.699   9.032 -0.4404 -0.0140 -0.2163
    1SAPS  H14X  119   2.809   3.767   9.025 -2.5517  2.8548 -0.7264
    1SAPS  H14Y  120   2.649   3.756   9.094  0.0324  0.1897  0.1539
    1SAPS  C315  121   2.661   3.654   8.899 -0.4337  0.9389 -0.6265
    1SAPS  H15X  122   2.566   3.598   8.914  0.6895 -1.0551 -0.6317
    1SAPS  H15Y  123   2.736   3.588   8.850  1.0047 -1.4899  4.2736
    1SAPS  C316  124   2.633   3.781   8.812  0.3263  0.6769 -0.7887
    1SAPS  H16X  125   2.714   3.803   8.740 -0.9287  0.1461 -2.4316
    1SAPS  H16Y  126   2.624   3.863   8.887 -0.8686 -0.8511  0.8285
    1SAPS  C317  127   2.506   3.752   8.734 -0.6611  0.3154  0.1495
    1SAPS  H17X  128   2.428   3.709   8.800  2.0462 -0.5295  3.0091
    1SAPS  H17Y  129   2.528   3.674   8.658  1.1615 -1.1185  2.0419
    1SAPS  C318  130   2.468   3.878   8.656  0.6968  0.9898 -0.7473
    1SAPS  H18X  131   2.424   3.957   8.720  2.7645  1.3238  0.3542
    1SAPS  H18Y  132   2.386   3.859   8.584 -0.6350  3.3036  0.0765
    1SAPS  H18Z  133   2.558   3.914   8.601  0.3392 -1.0670 -2.8440
    2SAPS     N  134   3.101   6.165  10.917 -0.1925  0.3152  0.0139
    2SAPS   HN1  135   3.132   6.219  10.834 -0.5748 -1.6916 -1.5197
    2SAPS   HN2  136   3.019   6.220  10.950 -1.8916 -1.2712 -1.3267
    2SAPS   HN3  137   3.181   6.166  10.983  0.8866 -0.7299 -1.2159
    2SAPS   C12  138   3.058   6.033  10.865 -0.5147 -0.0131 -0.2367
    2SAPS  H12A  139   3.125   5.999  10.787  1.8134  0.6936  1.3632
    2SAPS   C13  140   3.055   5.919  10.968 -0.3168  0.3626 -1.1532
    2SAPS  O13A  141   3.064   5.945  11.094 -0.2896  0.4237 -0.3173
    2SAPS  O13B  142   3.014   5.807  10.934 -0.5452  0.4845 -0.1573
    2SAPS   C11  143   2.921   6.048  10.793 -0.4101 -0.3986 -0.0494
    2SAPS  H11A  144   2.890   5.950  10.751  2.2172 -1.5267  0.4265
    2SAPS  H11B  145   2.944   6.117  10.708  1.7188 -0.8427  0.0942
    2SAPS     P  146   2.671   6.077  10.874 -0.0639 -0.6948  0.0773
    2SAPS   O13  147   2.638   5.969  10.969  0.2765 -0.4038 -0.2056
    2SAPS   O14  148   2.601   6.204  10.887  0.7610 -0.5128 -0.2843
    2SAPS   O12  149   2.828   6.109  10.882  0.1452 -0.3777  0.2647
    2SAPS   O11  150   2.653   6.027  10.731 -0.2956  0.0398  0.2106
    2SAPS    C1  151   2.665   6.124  10.626  0.1724  0.1128 -0.2401
    2SAPS    HA  152   2.572   6.184  10.611  1.0909  1.2632 -1.7103
    2SAPS    HB  153   2.743   6.202  10.641  1.0090 -0.4764 -1.3859
    2SAPS    C2  154   2.685   6.064  10.485  0.6100  0.3494  0.1646
    2SAPS    HS  155   2.721   6.146  10.419  2.6642  0.9260  1.8895
    2SAPS   O21  156   2.569   6.000  10.446 -0.0660  0.2126 -0.3350
    2SAPS   C21  157   2.542   5.986  10.321 -0.2508 -0.4552  0.4324
    2SAPS   O22  158   2.618   6.018  10.232 -0.5556 -0.1099  0.8274
    2SAPS   C22  159   2.402   5.924  10.305  0.5268  0.2949  0.0353
    2SAPS   H2R  160   2.407   5.821  10.348 -1.1615 -0.7572 -2.0775
    2SAPS   H2S  161   2.332   6.001  10.344  2.3119  2.3616 -0.6378
    2SAPS    C3  162   2.804   5.960  10.488  0.4158 -0.1969  0.5958
    2SAPS    HX  163   2.790   5.879  10.562 -1.4869 -2.3857 -1.9398
    2SAPS    HY  164   2.887   6.016  10.536  0.3842  0.4881 -0.1217
    2SAPS   O31  165   2.839   5.901  10.361  0.1452  0.1263 -0.3959
    2SAPS   C31  166   2.914   5.991  10.285 -0.1053  0.1984  0.0663
    2SAPS   O32  167   2.949   6.098  10.327  0.4822 -0.6103 -0.3165
    2SAPS   C32  168   2.935   5.932  10.144 -0.5896 -0.0949 -0.1665
    2SAPS   H2X  169   2.852   5.978  10.086  0.7875  1.8934 -0.6551
    2SAPS   H2Y  170   2.924   5.822  10.147  0.5608 -0.3201 -2.2705
    2SAPS   C23  171   2.377   5.907  10.149 -0.2616  0.8854  0.1146
    2SAPS   H3R  172   2.420   5.989  10.088  1.9721  0.4745  1.0737
    2SAPS   H3S  173   2.266   5.913  10.146 -0.4333 -0.6946  1.7640
    2SAPS   C24  174   2.415   5.765  10.083 -0.0998  0.2688 -0.9167
    2SAPS   H4R  175   2.350   5.769   9.993  0.2970 -0.5626 -1.2500
    2SAPS   H4S  176   2.377   5.678  10.139  0.2719 -0.0089 -1.0879
    2SAPS   C25  177   2.562   5.751  10.053 -0.7341 -0.6368  0.1429
    2SAPS   H5R  178   2.624   5.728  10.140 -0.8473 -0.1061  0.3653
    2SAPS   C26  179   2.624   5.751   9.937 -0.0165  0.5331 -0.0619
    2SAPS   H6R  180   2.733   5.753   9.933  0.0521 -0.8467  0.5044
    2SAPS   C27  181   2.551   5.770   9.803 -0.1190 -0.0849  0.0578
    2SAPS   H7R  182   2.608   5.841   9.739 -0.0986  0.7242  0.9368
    2SAPS   H7S  183   2.459   5.832   9.807 -0.7459 -0.5473 -3.6562
    2SAPS   C28  184   2.525   5.643   9.730  0.3253 -0.8138 -0.5131
    2SAPS   H8R  185   2.505   5.558   9.797  0.7497  0.3629  1.1727
    2SAPS   C29  186   2.530   5.607   9.601 -0.3065 -0.0995  0.2402
    2SAPS   H9R  187   2.519   5.500   9.577 -2.1857  0.0253  0.3888
    2SAPS  C210  188   2.570   5.704   9.486  0.5660  0.1233 -0.4127
    2SAPS  H10R  189   2.617   5.637   9.411  0.9994 -0.0074 -0.0329
    2SAPS  H10S  190   2.640   5.778   9.532 -1.5437  0.9353  1.6704
    2SAPS  C211  191   2.450   5.792   9.443 -0.4969  0.2085  0.7543
    2SAPS  H11R  192   2.379   5.818   9.522  0.6330 -1.5840  2.4878
    2SAPS  C212  193   2.433   5.835   9.317 -0.1168 -0.3282  0.0436
    2SAPS  H12R  194   2.357   5.912   9.297 -0.3914 -0.7296 -0.4991
    2SAPS  C213  195   2.519   5.801   9.199  0.3547 -0.0392 -0.3860
    2SAPS  H13R  196   2.460   5.741   9.126 -0.2877 -0.7323  0.6783
    2SAPS  H13S  197   2.612   5.748   9.229  0.1538  0.0656  0.4445
    2SAPS  C214  198   2.575   5.914   9.118  0.3661  0.7519 -0.4572
    2SAPS  H14R  199   2.570   6.006   9.178 -2.5688 -0.1950  0.9756
    2SAPS  C215  200   2.646   5.902   9.002  0.4562 -0.7793  0.5169
    2SAPS  H15R  201   2.681   5.998   8.961 -0.9482 -0.9081 -1.1041
    2SAPS  C216  202   2.676   5.776   8.923  0.7623  0.0072 -0.4637
    2SAPS  H16R  203   2.683   5.676   8.971 -0.8113  0.4841  0.8495
    2SAPS  H16S  204   2.779   5.786   8.882  1.7174  0.1068  1.7620
    2SAPS  C217  205   2.570   5.759   8.812 -0.2026  0.1997 -0.2337
    2SAPS  H17R  206   2.467   5.776   8.850 -1.1785  1.0872 -3.0049
    2SAPS  H17S  207   2.566   5.652   8.782  0.0605 -0.2672  1.3002
    2SAPS  C218  208   2.578   5.858   8.695  0.8391 -0.3780 -0.4142
    2SAPS  H18R  209   2.678   5.875   8.649  0.4902 -0.1833 -1.1176
    2SAPS  H18S  210   2.528   5.955   8.715  1.6743 -0.0714  0.2611
    2SAPS  C219  211   2.493   5.799   8.580 -0.6100 -0.5747  0.6739
    2SAPS  H19R  212   2.387   5.821   8.603 -0.5334  0.0382  0.4729
    2SAPS  H19S  213   2.504   5.690   8.564  1.1782 -0.0690 -2.2844
    2SAPS  C220  214   2.520   5.856   8.434  0.2157  0.5099  0.0205
    2SAPS  H20R  215   2.453   5.809   8.359 -1.1589  0.6179  1.1328
    2SAPS  H20S  216   2.623   5.833   8.400 -0.2541 -0.0934 -1.0591
    2SAPS  H20T  217   2.490   5.963   8.429 -0.6933  0.3250  1.1365
    2SAPS   C33  218   3.072   5.980  10.088 -0.2245 -0.3098 -0.4513
    2SAPS   H3X  219   3.137   5.920  10.155 -1.0350  0.4427  1.0739
    2SAPS   H3Y  220   3.095   6.086  10.107 -0.1800 -0.4400  0.2656
    2SAPS   C34  221   3.092   5.927   9.947  0.4353 -0.1380  1.0011
    2SAPS   H4X  222   3.063   5.820   9.948 -1.3905  0.2175 -2.0215
    2SAPS   H4Y  223   3.198   5.927   9.912 -0.1000  2.3686 -0.8821
    2SAPS   C35  224   3.007   5.990   9.831  0.0003 -0.3086  0.1883
    2SAPS   H5X  225   3.046   6.084   9.787 -1.1487 -0.2988 -0.8463
    2SAPS   H5Y  226   2.910   6.014   9.879  0.3414 -0.7822  1.1395
    2SAPS   C36  227   2.973   5.897   9.710  0.8221 -0.1458 -0.8414
    2SAPS   H6X  228   2.872   5.925   9.672  0.8202 -0.1254 -0.8207
    2SAPS   H6Y  229   2.959   5.794   9.749 -1.9841  0.1451 -0.8182
    2SAPS   C37  230   3.082   5.909   9.597 -0.0485 -0.3019 -0.7601
    2SAPS   H7X  231   3.186   5.910   9.637 -0.5215 -2.5233  0.6768
    2SAPS   H7Y  232   3.068   6.012   9.558 -2.1924  0.0296  0.7044
    2SAPS   C38  233   3.076   5.806   9.500 -0.3164  0.2741  0.5001
    2SAPS   H8X  234   2.981   5.808   9.442  0.6236 -1.1637 -1.1800
    2SAPS   H8Y  235   3.095   5.705   9.543  2.2549  0.1805 -0.6873
    2SAPS   C39  236   3.186   5.832   9.400 -0.4193  0.6451 -0.8473
    2SAPS   H9X  237   3.284   5.836   9.453 -0.3230 -0.2699 -0.9363
    2SAPS   H9Y  238   3.171   5.933   9.357  1.2651  1.9799  1.4869
    2SAPS  C310  239   3.184   5.720   9.288 -0.3061  0.4729 -0.2793
    2SAPS  H10X  240   3.135   5.636   9.342 -1.2623  0.6080 -0.9078
    2SAPS  H10Y  241   3.285   5.687   9.255  0.4441  0.2615  2.0200
    2SAPS  C311  242   3.104   5.754   9.161 -0.0906  0.2427 -0.5414
    2SAPS  H11X  243   3.013   5.813   9.186 -0.4315 -1.2049  1.9102
    2SAPS  H11Y  244   3.072   5.664   9.105 -1.3471 -0.7611  1.6935
    2SAPS  C312  245   3.198   5.839   9.080  0.0202 -0.2733 -0.5285
    2SAPS  H12X  246   3.291   5.782   9.060  0.8370  0.8665 -0.1073
    2SAPS  H12Y  247   3.238   5.924   9.141  0.0021  0.0079 -0.9056
    2SAPS  C313  248   3.146   5.897   8.950 -0.3493 -0.8433 -0.2203
    2SAPS  H13X  249   3.227   5.960   8.908 -1.7680  1.4196  0.3028
    2SAPS  H13Y  250   3.064   5.971   8.949  1.6434  1.4844  0.1133
    2SAPS  C314  251   3.128   5.792   8.840 -0.2187 -0.5802  0.3064
    2SAPS  H14X  252   3.047   5.728   8.881 -2.3401  1.9450  0.3470
    2SAPS  H14Y  253   3.217   5.730   8.818 -1.1741 -2.4029  1.3302
    2SAPS  C315  254   3.064   5.850   8.706  0.0769 -0.1262  0.4131
    2SAPS  H15X  255   3.130   5.932   8.672  0.7299  0.1031  2.1359
    2SAPS  H15Y  256   2.975   5.909   8.738  0.8221  1.4242 -0.2944
    2SAPS  C316  257   3.030   5.737   8.607  0.5056  0.2650  0.2527
    2SAPS  H16X  258   2.970   5.651   8.642  1.1548 -1.0278 -1.7025
    2SAPS  H16Y  259   3.126   5.694   8.573  0.2358  1.1905 -1.8224
    2SAPS  C317  260   2.952   5.789   8.480  0.0850  0.5254 -0.3070
    2SAPS  H17X  261   2.861   5.842   8.517 -0.9052 -0.6453 -0.9874
    2SAPS  H17Y  262   2.931   5.714   8.400 -0.0204  1.3670 -1.0837
    2SAPS  C318  263   3.034   5.896   8.406  0.1596 -0.4401 -0.5619
    2SAPS  H18X  264   3.129   5.850   8.373 -0.5794 -0.2216 -3.1850
    2SAPS  H18Y  265   3.050   5.970   8.488  0.2652  0.1940 -1.1407
    2SAPS  H18Z  266   2.983   5.951   8.324 -0.1577  0.4209  0.1863
    3SAPS     N  267   2.418   0.124  10.779 -0.1720 -0.6096 -0.0273
    3SAPS   HN1  268   2.380   0.068  10.859  0.0132  0.1896  0.6389
    3SAPS   HN2  269   2.449   0.216  10.816 -0.3418 -0.1934 -0.9088
    3SAPS   HN3  270   2.344   0.133  10.707  0.7475  0.0001 -0.9210
    3SAPS   C12  271   2.541   0.052  10.726 -0.2823  0.1874 -0.2735
    3SAPS  H12A  272   2.593   0.119  10.660 -0.9336 -0.5982 -1.6215
    3SAPS   C13  273   2.651   0.020  10.831  0.2423 -0.5118 -0.0308
    3SAPS  O13A  274   2.642   0.073  10.952 -0.7146  0.1978  1.1991
    3SAPS  O13B  275   2.766  -0.016  10.794 -0.0860  0.2413  0.1778
    3SAPS   C11  276   2.509  -0.088  10.663  0.3138  0.2373  0.4196
    3SAPS  H11A  277   2.595  -0.117  10.599 -0.2131  1.1370 -0.7398
    3SAPS  H11B  278   2.429  -0.077  10.587 -0.2260 -0.5363  0.8572
    3SAPS     P  279   2.325  -0.217  10.796 -0.3860  0.1195 -0.0115
    3SAPS   O13  280   2.329  -0.334  10.885  0.9241 -0.2701  0.5336
    3SAPS   O14  281   2.265  -0.093  10.848 -0.3923 -0.1563 -0.2264
    3SAPS   O12  282   2.470  -0.190  10.762 -0.3084  0.2761  0.3287
    3SAPS   O11  283   2.267  -0.252  10.659  0.0684 -0.2470 -0.2472
    3SAPS    C1  284   2.268  -0.377  10.591 -0.4611  0.0033  0.4888
    3SAPS    HA  285   2.332  -0.450  10.645 -0.4167  0.0757  0.5340
    3SAPS    HB  286   2.161  -0.409  10.591 -1.0364  1.7490 -1.0608
    3SAPS    C2  287   2.334  -0.363  10.441 -0.4098 -0.3283  0.2037
    3SAPS    HS  288   2.416  -0.289  10.449 -1.6735  0.9103  4.3449
    3SAPS   O21  289   2.232  -0.322  10.349 -0.5619  0.0515  0.4087
    3SAPS   C21  290   2.213  -0.194  10.335 -0.0864  0.3327 -0.2411
    3SAPS   O22  291   2.283  -0.105  10.382 -0.7272  0.3299 -1.2221
    3SAPS   C22  292   2.084  -0.170  10.264 -0.8129  0.1319  0.4573
    3SAPS   H2R  293   2.072  -0.257  10.196  2.1685  0.8505 -1.1774
    3SAPS   H2S  294   2.006  -0.182  10.342 -1.3472 -4.8472 -0.5298
    3SAPS    C3  295   2.401  -0.499  10.404 -0.1389 -0.3892  0.5999
    3SAPS    HX  296   2.316  -0.571  10.404  0.8095 -1.5847  2.3894
    3SAPS    HY  297   2.465  -0.524  10.491 -0.3141 -0.6086  0.6669
    3SAPS   O31  298   2.467  -0.479  10.271 -0.4680  0.4876 -0.1398
    3SAPS   C31  299   2.595  -0.448  10.284 -1.3867  0.3606 -0.6295
    3SAPS   O32  300   2.651  -0.405  10.387  0.1734 -0.1111 -0.5644
    3SAPS   C32  301   2.668  -0.464  10.149  0.0377  0.2204  0.5388
    3SAPS   H2X  302   2.631  -0.382  10.084  0.7521  1.1577  1.2820
    3SAPS   H2Y  303   2.652  -0.566  10.108  0.3478  0.6788 -0.7430
    3SAPS   C23  304   2.074  -0.040  10.191 -0.2203 -0.2156  0.1706
    3SAPS   H3R  305   2.145  -0.032  10.107  0.6985  1.2035  1.0399
    3SAPS   H3S  306   2.090   0.047  10.259  0.0717 -0.4480  0.3982
    3SAPS   C24  307   1.932  -0.021  10.126 -0.2906 -0.4172 -0.0483
    3SAPS   H4R  308   1.863  -0.030  10.213  2.2173 -0.5626  2.0205
    3SAPS   H4S  309   1.928  -0.106  10.055  3.5619 -0.2944 -0.6194
    3SAPS   C25  310   1.903   0.109  10.054  0.5572  0.6878 -0.4203
    3SAPS   H5R  311   1.899   0.206  10.107 -2.4523  0.7459 -0.5987
    3SAPS   C26  312   1.861   0.115   9.924 -0.1372  0.0094 -0.2171
    3SAPS   H6R  313   1.826   0.210   9.881 -0.1263 -0.8117 -2.1254
    3SAPS   C27  314   1.838  -0.007   9.837 -0.1370 -0.1818 -0.2624
    3SAPS   H7R  315   1.763   0.018   9.759  0.4943  0.4133 -0.6878
    3SAPS   H7S  316   1.789  -0.087   9.897 -0.7459  0.9962  0.8942
    3SAPS   C28  317   1.964  -0.059   9.764  0.4264  0.4516  0.7098
    3SAPS   H8R  318   2.041  -0.105   9.828  1.3967 -1.8687 -1.9357
    3SAPS   C29  319   1.984  -0.057   9.628 -0.3364  0.1610 -0.0463
    3SAPS   H9R  320   2.084  -0.082   9.589 -0.8139 -1.8673 -0.0819
    3SAPS  C210  321   1.889  -0.004   9.520  0.5813 -0.4038  0.3072
    3SAPS  H10R  322   1.819   0.073   9.559  0.8943 -0.2952  0.6526
    3SAPS  H10S  323   1.833  -0.097   9.493  0.1348 -0.8820  2.6193
    3SAPS  C211  324   1.968   0.048   9.402 -0.6523  1.2095  0.3004
    3SAPS  H11R  325   2.035   0.129   9.434 -0.8764  0.8478  1.7736
    3SAPS  C212  326   1.959   0.010   9.273  0.0999  0.1144  0.1507
    3SAPS  H12R  327   2.045   0.037   9.209  0.2180 -2.3469 -0.8470
    3SAPS  C213  328   1.859  -0.099   9.219 -0.1940  0.1838 -0.1545
    3SAPS  H13R  329   1.871  -0.100   9.108  3.4495  1.0112  0.1062
    3SAPS  H13S  330   1.757  -0.056   9.234 -1.9368 -2.8147 -2.1568
    3SAPS  C214  331   1.879  -0.241   9.266 -0.0872 -0.2452 -0.6494
    3SAPS  H14R  332   1.963  -0.259   9.335  1.6510  1.9948 -2.0442
    3SAPS  C215  333   1.792  -0.335   9.231  0.3183 -0.3861 -0.4097
    3SAPS  H15R  334   1.801  -0.431   9.283 -0.9667 -0.9213 -1.1468
    3SAPS  C216  335   1.669  -0.304   9.154  0.0337 -0.3386  0.3258
    3SAPS  H16R  336   1.649  -0.399   9.099  0.7262 -1.5687  2.0980
    3SAPS  H16S  337   1.684  -0.227   9.075 -0.2905 -0.4437  0.1598
    3SAPS  C217  338   1.539  -0.261   9.225 -0.6214  0.2410 -0.0386
    3SAPS  H17R  339   1.476  -0.209   9.150  1.4449  1.7244 -0.8214
    3SAPS  H17S  340   1.552  -0.173   9.292 -4.2405 -0.0876  1.3375
    3SAPS  C218  341   1.473  -0.391   9.277  0.4987  0.2025 -0.1340
    3SAPS  H18R  342   1.553  -0.455   9.319  1.6408  1.3452 -0.4762
    3SAPS  H18S  343   1.426  -0.444   9.192 -2.3385 -0.4167  1.6824
    3SAPS  C219  344   1.367  -0.365   9.392 -0.4138  0.0793  0.6410
    3SAPS  H19R  345   1.308  -0.281   9.348  3.4598  1.4669 -2.5070
    3SAPS  H19S  346   1.418  -0.309   9.473  2.1313  0.2958 -1.0204
    3SAPS  C220  347   1.287  -0.483   9.439  0.1348 -0.8483 -0.5140
    3SAPS  H20R  348   1.359  -0.557   9.480 -0.0417 -1.1046 -0.6633
    3SAPS  H20S  349   1.240  -0.532   9.351  0.4320 -1.8495 -0.1386
    3SAPS  H20T  350   1.223  -0.447   9.522 -0.4246 -1.1983 -0.7804
    3SAPS   C33  351   2.814  -0.437  10.169  0.6674  0.6479 -0.1299
    3SAPS   H3X  352   2.848  -0.506  10.249  2.5452  1.4261 -0.2004
    3SAPS   H3Y  353   2.830  -0.335  10.210  1.5911  0.7040 -0.6120
    3SAPS   C34  354   2.902  -0.463  10.046 -0.0931 -0.1653 -0.2027
    3SAPS   H4X  355   2.850  -0.543   9.988 -2.1528 -1.8314  3.5502
    3SAPS   H4Y  356   3.008  -0.488  10.069 -0.2977 -0.1770  0.7928
    3SAPS   C35  357   2.906  -0.344   9.942  0.0296  0.6062  0.2860
    3SAPS   H5X  358   2.953  -0.253   9.983  0.1106 -0.0406  1.6942
    3SAPS   H5Y  359   2.801  -0.314   9.922 -0.0193 -0.7891 -1.8886
    3SAPS   C36  360   2.979  -0.395   9.815 -0.1218  0.4687 -0.3235
    3SAPS   H6X  361   2.960  -0.503   9.795 -1.8929  0.7734 -0.4113
    3SAPS   H6Y  362   3.088  -0.373   9.817  0.3932 -1.7043 -1.0324
    3SAPS   C37  363   2.941  -0.319   9.689 -0.7103 -0.6345  0.2353
    3SAPS   H7X  364   2.832  -0.298   9.686 -0.5903  0.0142  0.2893
    3SAPS   H7Y  365   2.965  -0.368   9.592  2.8360  2.2834 -0.5741
    3SAPS   C38  366   3.029  -0.194   9.671  0.4423  0.0697 -0.4271
    3SAPS   H8X  367   3.136  -0.221   9.658  0.1141 -0.6726 -1.8031
    3SAPS   H8Y  368   3.030  -0.141   9.769  2.3773  0.0892 -0.4303
    3SAPS   C39  369   2.989  -0.095   9.562 -0.1370  0.0534  0.4592
    3SAPS   H9X  370   3.072  -0.024   9.545  1.0010 -1.1220  0.8974
    3SAPS   H9Y  371   2.901  -0.035   9.594  0.3992  1.7228 -1.0743
    3SAPS  C310  372   2.949  -0.161   9.423 -0.3744  0.1993  0.1739
    3SAPS  H10X  373   2.870  -0.238   9.432 -1.1960  1.0202  0.1056
    3SAPS  H10Y  374   3.040  -0.211   9.381 -1.6323 -2.9428  0.8798
    3SAPS  C311  375   2.910  -0.056   9.320 -0.6809 -0.3629 -0.9231
    3SAPS  H11X  376   2.994   0.010   9.291  0.2096 -1.5997 -1.2527
    3SAPS  H11Y  377   2.833   0.014   9.359  1.0661  2.7993 -2.7736
    3SAPS  C312  378   2.868  -0.123   9.184  0.1914  0.2528  0.4144
    3SAPS  H12X  379   2.784  -0.192   9.207 -0.0948  0.1131 -0.9921
    3SAPS  H12Y  380   2.960  -0.177   9.154  0.5340  0.4156  1.1423
    3SAPS  C313  381   2.818  -0.013   9.080  0.2103 -0.2565 -0.6444
    3SAPS  H13X  382   2.902   0.051   9.043 -0.6540  1.5301  0.3744
    3SAPS  H13Y  383   2.747   0.059   9.126 -0.5590 -0.0544 -2.0780
    3SAPS  C314  384   2.742  -0.074   8.954 -0.9380  0.1991 -0.6849
    3SAPS  H14X  385   2.682   0.004   8.904 -1.5352  0.5580  0.5360
    3SAPS  H14Y  386   2.674  -0.155   8.987 -0.2522 -0.3439 -0.5684
    3SAPS  C315  387   2.839  -0.137   8.850  0.3391  0.2078 -0.2537
    3SAPS  H15X  388   2.901  -0.212   8.904  2.8831  1.6747 -0.9949
    3SAPS  H15Y  389   2.913  -0.065   8.811  0.3802  0.7960  0.8531
    3SAPS  C316  390   2.748  -0.189   8.740 -0.0211 -0.0747 -0.0640
    3SAPS  H16X  391   2.693  -0.102   8.697  1.1163  1.1273  0.8634
    3SAPS  H16Y  392   2.673  -0.255   8.788 -2.7014  1.2075 -2.2228
    3SAPS  C317  393   2.818  -0.274   8.625 -0.0707  0.4770  0.3763
    3SAPS  H17X  394   2.731  -0.323   8.577  0.2019  0.4872 -0.1273
    3SAPS  H17Y  395   2.893  -0.344   8.667 -0.7058 -0.4671 -0.0321
    3SAPS  C318  396   2.891  -0.200   8.515  0.1196 -0.3725  0.1522
    3SAPS  H18X  397   2.936  -0.266   8.437  1.6531 -0.8387  1.3688
    3SAPS  H18Y  398   2.984  -0.147   8.544  2.6172 -3.0127 -2.3751
    3SAPS  H18Z  399   2.818  -0.143   8.454 -0.4522 -1.6960 -0.4485
    4SAPS     N  400   5.118   5.608  10.486 -0.1974  0.3361  0.8843
    4SAPS   HN1  401   5.106   5.710  10.473 -0.3782  0.7021  3.4974
    4SAPS   HN2  402   5.149   5.568  10.395 -1.4742  0.1017  0.5333
    4SAPS   HN3  403   5.025   5.561  10.496  0.3251 -1.1275 -0.6348
    4SAPS   C12  404   5.214   5.587  10.598 -0.0248  0.0302 -0.2152
    4SAPS  H12A  405   5.163   5.598  10.692  2.4863 -1.5178  1.4474
    4SAPS   C13  406   5.268   5.442  10.607 -0.1149 -0.4971 -0.8059
    4SAPS  O13A  407   5.238   5.361  10.520 -0.1007  0.1651  0.0935
    4SAPS  O13B  408   5.313   5.405  10.718 -0.1184 -0.3595  0.4413
    4SAPS   C11  409   5.319   5.701  10.603 -0.2126  0.6256  0.1531
    4SAPS  H11A  410   5.387   5.679  10.688  0.5254 -2.3777 -1.0679
    4SAPS  H11B  411   5.261   5.796  10.607 -0.1133  0.8025 -1.5941
    4SAPS     P  412   5.489   5.823  10.433  0.4559  0.0232  0.2141
    4SAPS   O13  413   5.512   5.915  10.546  0.2838  0.3701  0.0005
    4SAPS   O14  414   5.607   5.766  10.360  0.2403 -0.3913 -0.3065
    4SAPS   O12  415   5.392   5.704  10.484  0.5250  0.1615 -0.1704
    4SAPS   O11  416   5.407   5.905  10.330 -0.0865 -0.3525  0.5479
    4SAPS    C1  417   5.280   5.891  10.271  0.0009 -0.2736 -0.3525
    4SAPS    HA  418   5.222   5.825  10.338 -0.1748  0.4549  0.2300
    4SAPS    HB  419   5.225   5.987  10.284 -2.1791 -1.4481 -0.3528
    4SAPS    C2  420   5.282   5.829  10.124  0.1876 -0.0801  0.0641
    4SAPS    HS  421   5.178   5.816  10.089 -0.5140 -0.4061  2.1296
    4SAPS   O21  422   5.351   5.709  10.108 -0.3064  0.2831 -0.0214
    4SAPS   C21  423   5.308   5.607  10.181  0.5385 -0.7498 -0.2542
    4SAPS   O22  424   5.196   5.601  10.232 -0.1815  0.5622 -0.4412
    4SAPS   C22  425   5.409   5.498  10.195  0.1165  0.6564 -0.0624
    4SAPS   H2R  426   5.483   5.513  10.115  0.0056  0.8942 -0.1212
    4SAPS   H2S  427   5.454   5.526  10.293  0.7080 -0.1383 -0.0933
    4SAPS    C3  428   5.352   5.936  10.044 -0.5458  0.5348  0.3237
    4SAPS    HX  429   5.460   5.918  10.065 -0.1580  0.7822 -1.3037
    4SAPS    HY  430   5.339   6.041  10.078  1.3181  1.7453 -2.3645
    4SAPS   O31  431   5.324   5.922   9.905  0.4550  0.2648 -0.1447
    4SAPS   C31  432   5.420   5.963   9.815 -0.3199 -0.5617  0.5524
    4SAPS   O32  433   5.520   6.022   9.842  0.3611  0.1739  0.0025
    4SAPS   C32  434   5.386   5.931   9.671  0.1667  0.4296  0.2101
    4SAPS   H2X  435   5.291   5.983   9.646 -0.9639 -2.0562 -1.0792
    4SAPS   H2Y  436   5.372   5.822   9.653  0.4033  0.5910 -1.0183
    4SAPS   C23  437   5.341   5.358  10.190  0.6040 -0.0828 -0.4269
    4SAPS   H3R  438   5.250   5.342  10.251  1.2361 -1.4552  0.1906
    4SAPS   H3S  439   5.403   5.272  10.222 -2.4222 -1.3051  2.7518
    4SAPS   C24  440   5.290   5.324  10.048 -0.2911 -0.3315  0.2783
    4SAPS   H4R  441   5.225   5.408  10.012  1.9912  0.7068 -1.7064
    4SAPS   H4S  442   5.221   5.238  10.056  0.2457 -0.9707 -1.4269
    4SAPS   C25  443   5.401   5.292   9.952  0.1286  0.3599 -0.5492
    4SAPS   H5R  444   5.466   5.206   9.971 -0.2209 -0.3075 -2.1665
    4SAPS   C26  445   5.437   5.354   9.839 -0.1786 -0.4115 -0.6415
    4SAPS   H6R  446   5.524   5.319   9.781  1.5149  2.7572 -0.2653
    4SAPS   C27  447   5.383   5.474   9.770  0.4089 -0.1443 -0.4317
    4SAPS   H7R  448   5.442   5.510   9.683 -1.3238  4.1048 -0.0953
    4SAPS   H7S  449   5.372   5.553   9.846 -2.4816  0.8483 -1.7482
    4SAPS   C28  450   5.250   5.458   9.695 -0.2878 -0.4805 -0.0080
    4SAPS   H8R  451   5.173   5.512   9.751 -1.4440 -1.1781 -0.8838
    4SAPS   C29  452   5.232   5.392   9.581  0.1809 -0.9861  0.1690
    4SAPS   H9R  453   5.132   5.381   9.536 -1.2439  0.5768  2.7020
    4SAPS  C210  454   5.346   5.323   9.503 -0.3735  0.5798  0.0031
    4SAPS  H10R  455   5.297   5.223   9.496  1.4994 -0.6127  2.5011
    4SAPS  H10S  456   5.445   5.329   9.553 -0.4851  3.6418  0.0010
    4SAPS  C211  457   5.364   5.408   9.382 -0.3546  0.3509  0.6264
    4SAPS  H11R  458   5.413   5.506   9.391 -3.9838  2.8400 -2.7494
    4SAPS  C212  459   5.304   5.392   9.261 -0.5107  0.4848  0.1575
    4SAPS  H12R  460   5.322   5.457   9.174 -1.2654 -2.2572 -2.2109
    4SAPS  C213  461   5.213   5.280   9.230  0.3657  0.4472 -0.6880
    4SAPS  H13R  462   5.115   5.316   9.190  0.4793 -1.1408 -2.5656
    4SAPS  H13S  463   5.177   5.228   9.321 -0.0279  1.7449 -0.0770
    4SAPS  C214  464   5.272   5.181   9.135 -0.0739 -0.3567 -0.3554
    4SAPS  H14R  465   5.319   5.096   9.187 -1.7597 -2.7129 -2.4119
    4SAPS  C215  466   5.271   5.182   8.999 -0.4704  0.0837  0.4588
    4SAPS  H15R  467   5.331   5.102   8.954 -0.9882  0.0836 -0.2354
    4SAPS  C216  468   5.195   5.280   8.916  0.2616 -0.5754 -0.3820
    4SAPS  H16R  469   5.276   5.332   8.859  1.0805 -0.8945  0.4685
    4SAPS  H16S  470   5.136   5.357   8.970  0.8643 -0.1862 -0.2634
    4SAPS  C217  471   5.088   5.223   8.820 -0.8564 -0.0819 -0.4202
    4SAPS  H17R  472   5.125   5.153   8.742 -2.2788 -1.4971  0.0957
    4SAPS  H17S  473   5.041   5.312   8.773 -0.5394 -0.5428 -1.6264
    4SAPS  C218  474   4.975   5.162   8.908 -0.6536  0.5334  0.6743
    4SAPS  H18R  475   4.954   5.246   8.978  1.6318  0.2922  1.7378
    4SAPS  H18S  476   5.002   5.076   8.972 -1.8413  0.1935  0.7456
    4SAPS  C219  477   4.842   5.116   8.839 -0.2292  0.4205  0.8649
    4SAPS  H19R  478   4.872   5.047   8.758  0.5641  1.4264  0.2718
    4SAPS  H19S  479   4.806   5.206   8.785  5.1161  2.6507  0.3530
    4SAPS  C220  480   4.743   5.073   8.943  0.0651  0.2818  0.4726
    4SAPS  H20R  481   4.650   5.043   8.891  0.0529  1.5301 -0.2709
    4SAPS  H20S  482   4.712   5.149   9.018 -0.9351  0.4088 -0.0578
    4SAPS  H20T  483   4.790   4.990   9.000 -2.4761 -0.8985  0.9646
    4SAPS   C33  484   5.473   6.000   9.560 -0.1830 -0.1401 -0.8291
    4SAPS   H3X  485   5.576   5.958   9.559  0.1534  0.5932  0.7062
    4SAPS   H3Y  486   5.503   6.103   9.589 -0.3790  0.0471 -1.2892
    4SAPS   C34  487   5.417   5.988   9.422 -0.3544  0.2719  0.2398
    4SAPS   H4X  488   5.460   6.064   9.353  1.7631 -0.1519  1.0232
    4SAPS   H4Y  489   5.310   6.013   9.435 -0.8408 -2.3061  2.1174
    4SAPS   C35  490   5.443   5.852   9.359 -0.2713 -0.4346  0.1435
    4SAPS   H5X  491   5.408   5.770   9.425  1.8492 -1.7190 -0.2356
    4SAPS   H5Y  492   5.552   5.835   9.372 -0.2643 -0.5216 -0.0424
    4SAPS   C36  493   5.401   5.850   9.213 -0.2159 -0.1675 -0.1802
    4SAPS   H6X  494   5.427   5.943   9.159  2.7041 -1.3887 -1.1385
    4SAPS   H6Y  495   5.290   5.845   9.207 -0.1750  0.1425 -1.5291
    4SAPS   C37  496   5.465   5.749   9.121 -0.2753  0.5392 -0.1986
    4SAPS   H7X  497   5.451   5.649   9.167  0.0744 -0.6875 -2.5659
    4SAPS   H7Y  498   5.575   5.767   9.125  0.0249 -1.3268  1.5518
    4SAPS   C38  499   5.400   5.749   8.979  0.1152 -0.0579  0.2493
    4SAPS   H8X  500   5.408   5.850   8.932 -2.1364 -0.9992 -2.3915
    4SAPS   H8Y  501   5.290   5.736   8.978 -0.0265  1.0249  0.5659
    4SAPS   C39  502   5.457   5.635   8.883 -0.3967  0.3510 -0.2254
    4SAPS   H9X  503   5.428   5.538   8.929 -0.8656  0.1517 -0.9282
    4SAPS   H9Y  504   5.567   5.624   8.881 -0.2718 -0.1966  3.2469
    4SAPS  C310  505   5.401   5.637   8.739 -0.4904  0.2047  0.0058
    4SAPS  H10X  506   5.377   5.741   8.708 -1.7640  0.0835  0.4920
    4SAPS  H10Y  507   5.300   5.591   8.736 -0.4979  0.2625 -0.6629
    4SAPS  C311  508   5.487   5.573   8.623  1.0171 -0.2977 -0.7558
    4SAPS  H11X  509   5.453   5.467   8.623 -0.6221  0.1786  0.4070
    4SAPS  H11Y  510   5.593   5.578   8.654  0.6407  0.8664  0.4743
    4SAPS  C312  511   5.468   5.639   8.487 -0.0052  0.0739  0.5150
    4SAPS  H12X  512   5.493   5.747   8.495 -1.2735  0.4006  0.2580
    4SAPS  H12Y  513   5.360   5.623   8.464  0.7181 -1.2119 -2.4843
    4SAPS  C313  514   5.565   5.578   8.380 -0.1747  0.4151  0.1747
    4SAPS  H13X  515   5.548   5.469   8.369  1.6915  0.2206 -1.1560
    4SAPS  H13Y  516   5.671   5.592   8.409 -0.4126  1.0096  0.8112
    4SAPS  C314  517   5.552   5.643   8.249 -0.2574 -0.7232 -0.3789
    4SAPS  H14X  518   5.610   5.591   8.169 -0.0378  0.9504 -1.3718
    4SAPS  H14Y  519   5.600   5.743   8.248  0.4192 -0.9766  2.0270
    4SAPS  C315  520   5.411   5.659   8.197  0.4083  0.1768 -0.0947
    4SAPS  H15X  521   5.343   5.712   8.267  1.2542 -0.2036  1.0452
    4SAPS  H15Y  522   5.365   5.558   8.195 -2.2184  1.2867 -0.6672
    4SAPS  C316  523   5.413   5.712   8.044  0.0067 -0.0173 -0.0358
    4SAPS  H16X  524   5.474   5.647   7.978 -3.5864 -0.8161 -2.9086
    4SAPS  H16Y  525   5.460   5.812   8.036 -1.2402  0.6578  0.7078
    4SAPS  C317  526   5.276   5.703   7.960  0.6468  0.2475  0.7088
    4SAPS  H17X  527   5.213   5.786   7.997 -0.9647 -2.3794  4.5092
    4SAPS  H17Y  528   5.225   5.611   7.997 -0.3552  0.1373 -0.8697
    4SAPS  C318  529   5.293   5.691   7.808 -0.1309 -1.0538  1.0561
    4SAPS  H18X  530   5.351   5.773   7.761  2.5745 -2.2320  2.1021
    4SAPS  H18Y  531   5.189   5.690   7.768 -0.4558 -1.3339  1.8699
    4SAPS  H18Z  532   5.342   5.593   7.785 -1.8005 -1.3760 -1.5484
    5SAPS     N  533   0.700   0.353  11.044 -0.0781  0.0624 -0.6809
    5SAPS   HN1  534   0.678   0.267  10.989  2.2007 -1.1852  0.2182
    5SAPS   HN2  535   0.768   0.401  10.982 -0.7456  0.0255 -1.4602
    5SAPS   HN3  536   0.754   0.317  11.125 -0.8113 -0.4981 -0.4251
    5SAPS   C12  537   0.578   0.426  11.082  0.7862  0.2244 -0.3023
    5SAPS  H12A  538   0.497   0.401  11.014 -0.1717  0.8531  0.5632
    5SAPS   C13  539   0.500   0.388  11.209 -0.2123 -0.3962 -0.1694
    5SAPS  O13A  540   0.553   0.305  11.285  0.2915 -0.1268  0.5787
    5SAPS  O13B  541   0.398   0.453  11.244  0.3732 -0.0734 -0.3210
    5SAPS   C11  542   0.606   0.583  11.076 -0.1978  0.7813 -0.3256
    5SAPS  H11A  543   0.686   0.613  11.147  0.9442  0.0706 -1.2651
    5SAPS  H11B  544   0.511   0.630  11.108  0.3111  1.1327  0.7042
    5SAPS     P  545   0.719   0.746  10.913 -0.3219  0.4645  0.1262
    5SAPS   O13  546   0.681   0.846  11.017 -0.0580 -0.0699 -0.2592
    5SAPS   O14  547   0.861   0.725  10.888 -0.4096  0.0545 -0.0018
    5SAPS   O12  548   0.640   0.615  10.941  0.0319 -0.0549  0.1598
    5SAPS   O11  549   0.653   0.791  10.780 -0.0732 -0.1692  0.2251
    5SAPS    C1  550   0.520   0.833  10.774 -0.1715  1.0069 -0.5282
    5SAPS    HA  551   0.468   0.816  10.870 -2.0987 -0.1928 -1.7122
    5SAPS    HB  552   0.512   0.942  10.755 -1.0510  1.2082  0.8696
    5SAPS    C2  553   0.443   0.747  10.673 -0.1797 -0.2688  0.2042
    5SAPS    HS  554   0.493   0.650  10.659 -0.5372 -0.4766  0.3401
    5SAPS   O21  555   0.448   0.820  10.556 -0.3080  0.1813 -0.3187
    5SAPS   C21  556   0.468   0.753  10.442  0.5918 -0.1535  0.2250
    5SAPS   O22  557   0.482   0.631  10.428  0.1136  0.3284 -0.3983
    5SAPS   C22  558   0.461   0.847  10.318  0.0021 -0.7562 -0.2544
    5SAPS   H2R  559   0.352   0.864  10.304 -0.0266 -0.1745  0.6341
    5SAPS   H2S  560   0.505   0.945  10.344 -0.8488 -0.3955 -0.1383
    5SAPS    C3  561   0.294   0.721  10.718 -0.4730  0.2136 -0.7435
    5SAPS    HX  562   0.253   0.821  10.747 -2.5318 -0.8966  0.4323
    5SAPS    HY  563   0.319   0.650  10.800  0.4468 -0.3342 -1.4890
    5SAPS   O31  564   0.225   0.661  10.618  0.1346 -0.0661  0.5066
    5SAPS   C31  565   0.108   0.611  10.661 -0.2826  0.0084  0.0658
    5SAPS   O32  566   0.072   0.620  10.778 -0.4763 -0.0307  0.0632
    5SAPS   C32  567   0.036   0.552  10.550  0.1489  0.4821  0.3401
    5SAPS   H2X  568  -0.073   0.570  10.542 -0.8818 -4.5463  0.0795
    5SAPS   H2Y  569   0.061   0.445  10.562 -0.9036  0.1767 -0.0767
    5SAPS   C23  570   0.528   0.787  10.197  0.2542  0.0009 -0.9007
    5SAPS   H3R  571   0.625   0.736  10.217  0.0157 -0.1193 -0.0302
    5SAPS   H3S  572   0.540   0.870  10.124 -1.0945  0.8436 -0.1996
    5SAPS   C24  573   0.434   0.692  10.113 -0.4177  0.4650  0.6924
    5SAPS   H4R  574   0.352   0.746  10.061 -0.3560  1.2171  1.3594
    5SAPS   H4S  575   0.398   0.625  10.194  0.3804 -0.8871 -0.0417
    5SAPS   C25  576   0.531   0.611  10.019  0.1641 -0.1316  0.2539
    5SAPS   H5R  577   0.574   0.529  10.078  0.6198  1.2169  1.8671
    5SAPS   C26  578   0.561   0.640   9.889 -0.4559 -0.3797  0.5743
    5SAPS   H6R  579   0.627   0.575   9.832 -1.5753 -1.6576  0.6879
    5SAPS   C27  580   0.511   0.754   9.806  0.9111  0.1357  0.1427
    5SAPS   H7R  581   0.403   0.765   9.830  0.8406 -0.6416  0.1783
    5SAPS   H7S  582   0.517   0.720   9.701  0.5749  0.6717 -0.0588
    5SAPS   C28  583   0.578   0.887   9.828 -0.5242  0.2906 -0.0704
    5SAPS   H8R  584   0.661   0.889   9.900 -0.9831  0.3054  0.4597
    5SAPS   C29  585   0.548   1.001   9.758 -0.1871  0.0307  0.1268
    5SAPS   H9R  586   0.612   1.090   9.770 -2.4574  1.6779  0.7460
    5SAPS  C210  587   0.431   1.013   9.663 -0.9316 -0.1486  0.2789
    5SAPS  H10R  588   0.346   1.052   9.721 -1.4780 -2.0220  0.8140
    5SAPS  H10S  589   0.387   0.914   9.639 -0.4826 -0.2907  0.0225
    5SAPS  C211  590   0.464   1.102   9.542 -0.3817 -0.7637 -0.7905
    5SAPS  H11R  591   0.431   1.205   9.561 -0.1070 -0.7773 -0.2211
    5SAPS  C212  592   0.499   1.068   9.419 -0.7414 -0.1517 -0.2570
    5SAPS  H12R  593   0.518   1.148   9.347 -2.1208  0.6353  0.2205
    5SAPS  C213  594   0.530   0.931   9.368  0.3038 -0.1795  0.3273
    5SAPS  H13R  595   0.605   0.892   9.440  1.6835  1.6459 -0.0523
    5SAPS  H13S  596   0.590   0.939   9.275  1.1620 -1.6635  0.7242
    5SAPS  C214  597   0.421   0.834   9.338 -0.3314  0.2478 -0.0054
    5SAPS  H14R  598   0.374   0.795   9.430  2.6841 -0.3238  1.4372
    5SAPS  C215  599   0.379   0.792   9.214 -0.3537 -0.0964 -0.2260
    5SAPS  H15R  600   0.310   0.707   9.212 -1.5700  0.8616  0.1895
    5SAPS  C216  601   0.433   0.840   9.083  0.5155 -0.6726 -0.0181
    5SAPS  H16R  602   0.471   0.944   9.083 -0.6301 -0.2252  1.8346
    5SAPS  H16S  603   0.347   0.844   9.013 -0.7421 -0.6716  1.4774
    5SAPS  C217  604   0.534   0.759   9.011 -0.4227  0.4588 -0.1038
    5SAPS  H17R  605   0.482   0.669   8.972  1.3603  0.3084 -2.3458
    5SAPS  H17S  606   0.599   0.732   9.097 -3.6199  1.0557  2.7037
    5SAPS  C218  607   0.615   0.818   8.898 -0.8288  0.7577 -0.3253
    5SAPS  H18R  608   0.533   0.858   8.835  0.0275 -1.2973 -2.9318
    5SAPS  H18S  609   0.679   0.899   8.939  0.6659 -1.0474  1.1096
    5SAPS  C219  610   0.689   0.709   8.812  0.0250 -0.2744 -0.5038
    5SAPS  H19R  611   0.608   0.647   8.769 -2.5843  1.9506  0.8785
    5SAPS  H19S  612   0.749   0.641   8.877 -0.1151  1.2148  1.2364
    5SAPS  C220  613   0.789   0.761   8.707  0.0944  0.1662 -0.4283
    5SAPS  H20R  614   0.734   0.838   8.648 -0.4973 -1.0067 -1.4486
    5SAPS  H20S  615   0.813   0.684   8.631 -2.5924 -0.1901 -1.0332
    5SAPS  H20T  616   0.878   0.805   8.756 -1.0558  1.0095  1.0079
    5SAPS   C33  617   0.072   0.611  10.408 -0.6422  0.7461  0.1827
    5SAPS   H3X  618   0.181   0.603  10.387 -1.0778 -1.8484 -1.4605
    5SAPS   H3Y  619   0.048   0.719  10.398  0.6551  1.1363  1.0123
    5SAPS   C34  620  -0.015   0.539  10.306 -0.1866  0.3131 -0.6192
    5SAPS   H4X  621  -0.122   0.546  10.334  0.0656 -0.1207  0.4909
    5SAPS   H4Y  622   0.011   0.431  10.311 -1.8512 -0.0946 -0.2515
    5SAPS   C35  623   0.016   0.579  10.162  0.3339  0.6431  0.7851
    5SAPS   H5X  624   0.126   0.587  10.150  0.3502 -1.1080 -0.5926
    5SAPS   H5Y  625  -0.032   0.677  10.140 -0.5123 -0.0469 -0.5374
    5SAPS   C36  626  -0.048   0.483  10.058 -0.0689  0.4680 -0.4861
    5SAPS   H6X  627  -0.157   0.475  10.079 -0.0573  0.9483 -0.2416
    5SAPS   H6Y  628   0.004   0.386  10.075  0.5771  1.0740  1.2337
    5SAPS   C37  629  -0.018   0.534   9.913  0.1492 -0.8573 -0.4970
    5SAPS   H7X  630   0.075   0.593   9.900 -0.8695  1.4650  1.8868
    5SAPS   H7Y  631  -0.096   0.611   9.893  0.2562 -0.0860  1.8337
    5SAPS   C38  632  -0.039   0.425   9.803  0.2874 -0.2309 -0.1053
    5SAPS   H8X  633  -0.133   0.373   9.832 -0.1520  0.2290 -0.6821
    5SAPS   H8Y  634   0.047   0.354   9.803  1.8257  1.5723 -0.3022
    5SAPS   C39  635  -0.032   0.482   9.657 -0.1699  0.6625  0.0173
    5SAPS   H9X  636   0.075   0.507   9.646 -0.2667  2.1932  1.9646
    5SAPS   H9Y  637  -0.093   0.573   9.641 -2.6301 -0.6398  1.2638
    5SAPS  C310  638  -0.050   0.374   9.548  0.6449  0.1032  0.4355
    5SAPS  H10X  639  -0.158   0.363   9.525  0.9962 -0.9245 -0.8537
    5SAPS  H10Y  640  -0.024   0.274   9.589  2.8695 -0.1764 -1.3881
    5SAPS  C311  641   0.019   0.396   9.409 -0.2021 -0.6635  0.1682
    5SAPS  H11X  642  -0.017   0.331   9.326 -2.0843  0.7099 -0.1524
    5SAPS  H11Y  643   0.127   0.380   9.429 -0.4130 -1.1754  0.9310
    5SAPS  C312  644   0.011   0.538   9.352  0.4082  0.0118  0.1628
    5SAPS  H12X  645   0.062   0.610   9.419  1.6921 -0.0695 -0.6801
    5SAPS  H12Y  646  -0.096   0.565   9.359  0.7960  1.2668  1.9716
    5SAPS  C313  647   0.064   0.555   9.206 -0.0841  0.7139  0.6852
    5SAPS  H13X  648   0.171   0.527   9.217 -0.4737 -1.0868  0.2087
    5SAPS  H13Y  649   0.058   0.664   9.187  0.2121  0.9841  2.0178
    5SAPS  C314  650  -0.025   0.470   9.110 -0.4813  0.1481 -0.1734
    5SAPS  H14X  651  -0.130   0.491   9.137 -0.2457 -0.4931  1.3200
    5SAPS  H14Y  652  -0.011   0.360   9.115  2.0671  0.1158 -3.9055
    5SAPS  C315  653   0.012   0.507   8.969 -0.7267  0.0881 -0.2877
    5SAPS  H15X  654  -0.013   0.613   8.945  1.4995  1.3112  2.1978
    5SAPS  H15Y  655  -0.054   0.453   8.898 -0.2589  0.9980 -1.4627
    5SAPS  C316  656   0.165   0.472   8.951  0.2285 -0.5325  0.3831
    5SAPS  H16X  657   0.179   0.366   8.981 -0.8704 -1.1873 -1.3236
    5SAPS  H16Y  658   0.226   0.536   9.019  1.3382 -2.1804  0.9869
    5SAPS  C317  659   0.213   0.479   8.806 -0.1186 -0.1345  0.5476
    5SAPS  H17X  660   0.192   0.578   8.761 -3.2938 -0.6703  0.6159
    5SAPS  H17Y  661   0.162   0.407   8.738  0.7504  0.9227 -1.2992
    5SAPS  C318  662   0.363   0.461   8.788  1.1590  0.5469  0.3308
    5SAPS  H18X  663   0.385   0.356   8.818  0.0342 -0.1087 -1.0430
    5SAPS  H18Y  664   0.416   0.528   8.859  2.5209  0.5647 -0.6847
    5SAPS  H18Z  665   0.402   0.483   8.687 -1.1839  1.9681 -0.3446
    6SAPS     N  666   1.120   6.219  10.769  0.6163  0.1777  0.2908
    6SAPS   HN1  667   1.117   6.155  10.687 -2.1437  1.7417 -0.9521
    6SAPS   HN2  668   1.076   6.309  10.741 -1.4499 -1.1920 -1.1700
    6SAPS   HN3  669   1.217   6.243  10.796  0.7467  2.2538 -1.7315
    6SAPS   C12  670   1.040   6.177  10.893 -0.0420  0.6711 -0.2432
    6SAPS  H12A  671   1.082   6.083  10.927 -0.5374  0.7755  0.6851
    6SAPS   C13  672   1.033   6.278  11.010 -0.0745 -0.1190  0.0848
    6SAPS  O13A  673   1.074   6.391  10.986  0.1661  0.0435 -0.2016
    6SAPS  O13B  674   0.997   6.244  11.125  0.5103 -0.0568 -0.2146
    6SAPS   C11  675   0.894   6.147  10.836  0.0979 -0.1456 -0.0879
    6SAPS  H11A  676   0.858   6.241  10.789  0.5078  1.3831  2.4933
    6SAPS  H11B  677   0.834   6.121  10.926  0.5845 -1.7295 -0.1984
    6SAPS     P  678   0.781   5.942  10.725  0.2278  0.2292 -0.2304
    6SAPS   O13  679   0.791   5.886  10.593  0.1113  0.5715  0.9733
    6SAPS   O14  680   0.792   5.852  10.838 -0.5514 -0.0046  0.1227
    6SAPS   O12  681   0.898   6.048  10.736 -0.0061  0.2759 -0.2997
    6SAPS   O11  682   0.655   6.026  10.752  0.3847 -0.2710 -0.5987
    6SAPS    C1  683   0.521   5.992  10.752  0.4770  0.1968  0.8454
    6SAPS    HA  684   0.497   5.933  10.842 -0.2138  0.3078  0.7403
    6SAPS    HB  685   0.473   6.091  10.767  2.5398  1.2080  1.2647
    6SAPS    C2  686   0.468   5.933  10.621  0.1297 -0.1859 -0.1697
    6SAPS    HS  687   0.496   5.825  10.623  1.6096  0.1804  0.7954
    6SAPS   O21  688   0.541   6.006  10.513  0.5410  0.0840  0.0297
    6SAPS   C21  689   0.530   5.951  10.389 -0.3529 -0.0549  0.5621
    6SAPS   O22  690   0.478   5.845  10.362  0.2336 -0.1626  0.6489
    6SAPS   C22  691   0.619   6.032  10.292  0.2296  0.2246  0.1160
    6SAPS   H2R  692   0.612   6.137  10.328  0.3689  0.4998 -0.6402
    6SAPS   H2S  693   0.718   5.982  10.301 -0.5412 -1.3300  0.3646
    6SAPS    C3  694   0.312   5.946  10.614 -0.3738  0.6226 -0.7696
    6SAPS    HX  695   0.271   5.879  10.692  0.0916 -0.6510 -1.5976
    6SAPS    HY  696   0.284   5.901  10.517 -1.3393  0.0873 -0.2491
    6SAPS   O31  697   0.269   6.080  10.628 -0.1395 -0.7323 -0.0596
    6SAPS   C31  698   0.240   6.150  10.514  0.3600 -0.4269 -0.6611
    6SAPS   O32  699   0.240   6.102  10.403 -0.0961  0.4716  0.0561
    6SAPS   C32  700   0.225   6.310  10.539  0.5411  0.4782 -0.6619
    6SAPS   H2X  701   0.282   6.318  10.634 -1.5537 -3.2366  1.1344
    6SAPS   H2Y  702   0.121   6.338  10.566  0.6114  0.3346 -0.2345
    6SAPS   C23  703   0.574   6.008  10.149  0.1275  0.3348 -0.3357
    6SAPS   H3R  704   0.466   6.021  10.130  0.3596  1.9645 -0.7448
    6SAPS   H3S  705   0.593   5.901  10.126 -0.2524  0.7321 -2.7967
    6SAPS   C24  706   0.655   6.092  10.053 -0.4755  0.3316  0.4291
    6SAPS   H4R  707   0.626   6.050   9.954  1.9551 -2.2755  0.6964
    6SAPS   H4S  708   0.761   6.058  10.061 -0.2911  0.5631 -0.7677
    6SAPS   C25  709   0.642   6.237  10.066 -0.2714  0.0218  0.5008
    6SAPS   H5R  710   0.680   6.276  10.161 -1.0610 -0.9624  1.2485
    6SAPS   C26  711   0.594   6.320   9.977  0.2580  0.0173 -0.1013
    6SAPS   H6R  712   0.583   6.425  10.008 -1.2164 -0.0889 -0.2051
    6SAPS   C27  713   0.547   6.292   9.834  0.8055  0.2048  0.0272
    6SAPS   H7R  714   0.481   6.376   9.801  0.4077 -0.5149 -1.0661
    6SAPS   H7S  715   0.476   6.207   9.831 -0.4563  1.2060  0.3683
    6SAPS   C28  716   0.665   6.271   9.745 -0.0634 -1.0843 -0.3522
    6SAPS   H8R  717   0.752   6.226   9.794  1.2681 -0.1886 -1.8006
    6SAPS   C29  718   0.680   6.290   9.615  0.2774 -0.0431 -0.1674
    6SAPS   H9R  719   0.776   6.269   9.566 -0.2483 -0.9356 -0.8380
    6SAPS  C210  720   0.574   6.336   9.521 -0.2154  0.1312  0.0088
    6SAPS  H10R  721   0.480   6.359   9.576 -0.9730 -2.5124 -0.0530
    6SAPS  H10S  722   0.544   6.257   9.448  0.1889  1.2000 -1.3556
    6SAPS  C211  723   0.611   6.456   9.436  0.1023  0.3828  0.6721
    6SAPS  H11R  724   0.573   6.557   9.456  2.5335  2.1984 -2.8702
    6SAPS  C212  725   0.699   6.449   9.323  0.0791 -0.1808 -0.4530
    6SAPS  H12R  726   0.703   6.535   9.254  3.3097 -0.1564 -0.3667
    6SAPS  C213  727   0.758   6.321   9.262  0.2893  0.3268  0.3406
    6SAPS  H13R  728   0.705   6.230   9.296 -0.6773  1.1023  0.9694
    6SAPS  H13S  729   0.863   6.299   9.290  0.4167 -0.5476 -0.7475
    6SAPS  C214  730   0.743   6.328   9.110 -0.0470 -0.3087  0.3577
    6SAPS  H14R  731   0.643   6.292   9.081  0.1391 -2.5904  2.2633
    6SAPS  C215  732   0.833   6.385   9.023  0.0783  0.4590  0.1514
    6SAPS  H15R  733   0.804   6.373   8.917  0.7632  1.7701 -0.1989
    6SAPS  C216  734   0.963   6.456   9.065  0.2109 -0.2848  0.2402
    6SAPS  H16R  735   1.000   6.417   9.162 -2.4879  0.5381  1.6964
    6SAPS  H16S  736   0.955   6.566   9.076  2.4188 -0.1685  1.1515
    6SAPS  C217  737   1.067   6.417   8.960  0.4971  0.3256 -0.3007
    6SAPS  H17R  738   1.040   6.483   8.875 -3.1614  0.5751  0.9063
    6SAPS  H17S  739   1.060   6.310   8.929  0.2089  0.1762  0.2708
    6SAPS  C218  740   1.217   6.449   8.993 -0.2647 -0.1284  0.8284
    6SAPS  H18R  741   1.239   6.392   9.086  2.8680  1.4207  1.1541
    6SAPS  H18S  742   1.212   6.554   9.030 -0.9515 -0.5540  2.0027
    6SAPS  C219  743   1.316   6.439   8.874 -0.4273 -0.1134 -0.6340
    6SAPS  H19R  744   1.307   6.346   8.815  1.0402  0.3735 -1.6941
    6SAPS  H19S  745   1.417   6.435   8.921 -0.0206  2.2606 -1.1665
    6SAPS  C220  746   1.313   6.562   8.779 -0.1469  0.5487 -0.4345
    6SAPS  H20R  747   1.391   6.560   8.700  1.7234  0.3365  1.3301
    6SAPS  H20S  748   1.324   6.656   8.837  2.9204 -0.1422  0.2557
    6SAPS  H20T  749   1.222   6.554   8.715  1.7237 -0.9325 -3.0703
    6SAPS   C33  750   0.282   6.395  10.430  0.7042  0.2895  0.9919
    6SAPS   H3X  751   0.379   6.349  10.400  1.0222  0.6534  1.4343
    6SAPS   H3Y  752   0.290   6.495  10.478 -0.5105  0.4460  0.8884
    6SAPS   C34  753   0.188   6.413  10.310  0.1605  0.2564 -0.6236
    6SAPS   H4X  754   0.088   6.451  10.339 -1.2071 -0.4558 -3.9922
    6SAPS   H4Y  755   0.169   6.317  10.258 -0.4158 -0.8034  1.4100
    6SAPS   C35  756   0.243   6.508  10.205  0.2222 -0.0347  0.2122
    6SAPS   H5X  757   0.350   6.480  10.200  0.1459 -0.1007 -1.5795
    6SAPS   H5Y  758   0.251   6.613  10.241 -0.3680 -0.1331  0.6625
    6SAPS   C36  759   0.183   6.497  10.073 -0.1260  0.6464 -0.4527
    6SAPS   H6X  760   0.076   6.527  10.067  0.5436  3.1303 -1.0352
    6SAPS   H6Y  761   0.188   6.390  10.043  0.6311  0.5539 -0.0119
    6SAPS   C37  762   0.241   6.601   9.981 -0.9149  0.6219  0.2177
    6SAPS   H7X  763   0.351   6.596   9.968 -1.2563  0.1053 -3.5518
    6SAPS   H7Y  764   0.201   6.693  10.030  0.8213  0.6470  1.6885
    6SAPS   C38  765   0.192   6.586   9.841 -0.1411  0.2229  0.3044
    6SAPS   H8X  766   0.081   6.584   9.835 -0.1337  0.2250  0.1793
    6SAPS   H8Y  767   0.225   6.484   9.811  1.3090  1.5750 -3.2270
    6SAPS   C39  768   0.255   6.684   9.748  0.3782 -0.3275 -0.6149
    6SAPS   H9X  769   0.361   6.652   9.733  0.3132 -0.9814  0.2429
    6SAPS   H9Y  770   0.243   6.785   9.793  0.5116 -0.3055 -0.6261
    6SAPS  C310  771   0.183   6.679   9.615  0.4851 -0.3681  0.7352
    6SAPS  H10X  772   0.072   6.689   9.618 -0.0468 -2.3538 -3.5800
    6SAPS  H10Y  773   0.212   6.583   9.566  0.2820 -0.9103  1.6615
    6SAPS  C311  774   0.237   6.786   9.521 -0.3390 -0.0976 -0.5202
    6SAPS  H11X  775   0.347   6.777   9.532 -0.3645  0.2617  0.0483
    6SAPS  H11Y  776   0.216   6.891   9.552  2.8610  0.6534 -0.5273
    6SAPS  C312  777   0.179   6.773   9.385 -0.7691  0.4648 -0.1473
    6SAPS  H12X  778   0.072   6.800   9.395 -1.1370 -1.1656  0.6384
    6SAPS  H12Y  779   0.200   6.673   9.342  0.6504  0.4730  0.4576
    6SAPS  C313  780   0.228   6.870   9.271 -0.3368  0.1091 -0.1702
    6SAPS  H13X  781   0.258   6.972   9.301  0.3995 -0.1291 -0.0689
    6SAPS  H13Y  782   0.147   6.884   9.196 -0.3832  3.8740  0.4033
    6SAPS  C314  783   0.353   6.815   9.194  1.1814 -0.0853  0.2222
    6SAPS  H14X  784   0.323   6.710   9.174  1.5942 -0.0502 -0.6144
    6SAPS  H14Y  785   0.448   6.818   9.252  1.7747  1.1312 -0.7579
    6SAPS  C315  786   0.382   6.896   9.067  0.3248  0.5069 -0.2094
    6SAPS  H15X  787   0.375   7.005   9.085  2.1744  0.6532 -0.1935
    6SAPS  H15Y  788   0.303   6.865   8.995 -0.3566 -0.1966  0.8072
    6SAPS  C316  789   0.516   6.877   9.001 -0.9552 -0.2019  0.4715
    6SAPS  H16X  790   0.518   6.766   8.991  0.6757 -0.2677  1.1610
    6SAPS  H16Y  791   0.593   6.904   9.076 -1.2685  1.5741  0.1816
    6SAPS  C317  792   0.528   6.937   8.860  0.7603 -0.1034  0.2279
    6SAPS  H17X  793   0.422   6.961   8.837  1.0842  2.0525  0.7691
    6SAPS  H17Y  794   0.576   6.863   8.791 -0.8118 -0.3142 -0.6793
    6SAPS  C318  795   0.608   7.069   8.866 -0.1022  0.1522 -0.3850
    6SAPS  H18X  796   0.560   7.135   8.941 -0.5212  0.6415 -1.0689
    6SAPS  H18Y  797   0.596   7.114   8.765 -2.6349 -2.2283 -1.2952
    6SAPS  H18Z  798   0.705   7.034   8.907 -0.1081  2.2126  1.6146
    7SAPS     N  799   1.725   0.899  10.824 -0.1918  0.2512 -0.5018
    7SAPS   HN1  800   1.750   0.908  10.723  0.7419 -1.8504 -0.5192
    7SAPS   HN2  801   1.808   0.874  10.881 -0.7910 -0.3344  0.1332
    7SAPS   HN3  802   1.663   0.816  10.834  0.6829 -0.1773  2.1111
    7SAPS   C12  803   1.659   1.023  10.879 -0.2494 -0.2689 -0.0961
    7SAPS  H12A  804   1.631   0.993  10.979  1.9231 -0.5712  0.4669
    7SAPS   C13  805   1.743   1.146  10.878  0.0378  0.2016  0.0294
    7SAPS  O13A  806   1.866   1.122  10.838  0.2497 -0.4909 -0.0065
    7SAPS  O13B  807   1.692   1.258  10.901 -0.2406 -0.4173 -0.3939
    7SAPS   C11  808   1.534   1.046  10.796  0.5610 -0.7461  0.3170
    7SAPS  H11A  809   1.555   1.057  10.687 -0.7984 -1.3311 -0.0377
    7SAPS  H11B  810   1.474   1.134  10.826 -0.7687 -1.5369  0.0821
    7SAPS     P  811   1.295   0.941  10.750  0.1864  0.1793 -0.5116
    7SAPS   O13  812   1.239   0.809  10.728 -0.2093  0.9020 -0.3502
    7SAPS   O14  813   1.223   1.022  10.852  0.3700 -0.3533 -0.0956
    7SAPS   O12  814   1.449   0.932  10.803  0.2290  0.6407 -0.0526
    7SAPS   O11  815   1.316   1.027  10.620  0.6471 -0.1921  0.1847
    7SAPS    C1  816   1.369   0.962  10.499 -0.5928  0.0047  0.3717
    7SAPS    HA  817   1.477   0.940  10.515  0.1091  0.6522 -2.8372
    7SAPS    HB  818   1.324   0.863  10.477 -1.6431  0.5370  0.0848
    7SAPS    C2  819   1.360   1.047  10.368  0.4032 -0.0650  0.4120
    7SAPS    HS  820   1.389   0.984  10.281 -0.1211 -0.3253  0.4191
    7SAPS   O21  821   1.447   1.165  10.380 -0.0465 -0.7668  0.4338
    7SAPS   C21  822   1.572   1.135  10.357 -0.2870  0.1615 -0.5196
    7SAPS   O22  823   1.611   1.024  10.341 -0.4557 -0.0973 -0.1006
    7SAPS   C22  824   1.665   1.263  10.373  1.1223  0.6840  0.0123
    7SAPS   H2R  825   1.614   1.361  10.368  4.0050  2.3724  1.5514
    7SAPS   H2S  826   1.718   1.249  10.469  0.5792  0.2447  0.2560
    7SAPS    C3  827   1.211   1.094  10.348 -0.5075  0.2831 -0.0753
    7SAPS    HX  828   1.181   1.163  10.429  0.9618 -0.4623  1.1664
    7SAPS    HY  829   1.129   1.020  10.357  0.0560 -0.6825 -2.2112
    7SAPS   O31  830   1.210   1.178  10.225  0.3294 -0.5207  0.1603
    7SAPS   C31  831   1.100   1.211  10.181 -0.0198  0.1109 -0.6329
    7SAPS   O32  832   0.990   1.176  10.227  0.2011  0.5007  0.2069
    7SAPS   C32  833   1.103   1.308  10.065  0.2365  1.1261  0.5356
    7SAPS   H2X  834   1.181   1.385  10.083  1.0241  0.7819 -1.1199
    7SAPS   H2Y  835   1.006   1.362  10.061  0.4534  1.4550 -1.0820
    7SAPS   C23  836   1.777   1.258  10.267 -0.3222  1.3299 -0.2377
    7SAPS   H3R  837   1.806   1.155  10.237 -0.5622  1.1252  0.2204
    7SAPS   H3S  838   1.865   1.303  10.318  0.0796  0.3377 -0.0453
    7SAPS   C24  839   1.739   1.342  10.141 -0.0614  0.6551  0.2277
    7SAPS   H4R  840   1.696   1.439  10.173  0.2210  1.4609 -1.6999
    7SAPS   H4S  841   1.664   1.278  10.090  0.3641  1.2880 -1.2314
    7SAPS   C25  842   1.861   1.358  10.052 -0.1288  0.5170 -0.4835
    7SAPS   H5R  843   1.959   1.360  10.101  0.3542  0.5155 -1.4384
    7SAPS   C26  844   1.851   1.391   9.926  0.2542 -0.3488  0.3966
    7SAPS   H6R  845   1.939   1.400   9.861 -0.3013 -0.5545 -0.4038
    7SAPS   C27  846   1.721   1.412   9.849 -0.7414 -0.2542 -0.0037
    7SAPS   H7R  847   1.635   1.398   9.917  0.5432 -5.3995  1.0045
    7SAPS   H7S  848   1.720   1.324   9.781 -0.1552 -0.1161 -0.1939
    7SAPS   C28  849   1.707   1.543   9.775 -1.4313 -0.0523  0.3159
    7SAPS   H8R  850   1.692   1.626   9.846  0.1180  0.0025  0.6209
    7SAPS   C29  851   1.708   1.564   9.640 -0.2891 -0.1261 -0.2018
    7SAPS   H9R  852   1.686   1.665   9.600  2.2058  0.1737 -0.9869
    7SAPS  C210  853   1.723   1.464   9.527  0.0580  0.0070  0.1362
    7SAPS  H10R  854   1.725   1.359   9.562  3.5535 -0.1234 -0.0326
    7SAPS  H10S  855   1.815   1.490   9.469 -2.3673 -0.0530 -4.1157
    7SAPS  C211  856   1.592   1.479   9.443 -1.1820  0.2262 -0.3871
    7SAPS  H11R  857   1.503   1.449   9.501  0.6917 -1.3295  1.9006
    7SAPS  C212  858   1.598   1.498   9.310  0.5924  0.0731  0.3935
    7SAPS  H12R  859   1.497   1.513   9.268 -0.3263  1.4416  2.9077
    7SAPS  C213  860   1.717   1.510   9.220 -0.8827 -0.1536 -0.1360
    7SAPS  H13R  861   1.749   1.408   9.190 -0.1898 -0.1232  0.4798
    7SAPS  H13S  862   1.802   1.559   9.272 -0.7029  0.3229 -0.8567
    7SAPS  C214  863   1.697   1.600   9.098 -0.1639 -0.1609 -0.4356
    7SAPS  H14R  864   1.737   1.701   9.114  1.9958 -1.2682  1.8130
    7SAPS  C215  865   1.635   1.574   8.984 -0.3193 -0.0681  0.2422
    7SAPS  H15R  866   1.634   1.654   8.909 -0.6966  1.5155  1.8736
    7SAPS  C216  867   1.576   1.442   8.942  0.1277 -0.3931  0.2479
    7SAPS  H16R  868   1.465   1.449   8.935  0.1344 -0.5939 -0.1058
    7SAPS  H16S  869   1.594   1.361   9.016 -2.2401 -0.0599  1.2883
    7SAPS  C217  870   1.624   1.406   8.796  0.3552  0.3160  0.2884
    7SAPS  H17R  871   1.590   1.488   8.728 -0.8101 -0.0603  0.4078
    7SAPS  H17S  872   1.556   1.322   8.772  1.1543 -0.6001  1.1444
    7SAPS  C218  873   1.772   1.361   8.773  0.6837 -0.1195 -0.2622
    7SAPS  H18R  874   1.771   1.255   8.740 -2.0165  0.5013 -2.6081
    7SAPS  H18S  875   1.809   1.354   8.877  0.8435  0.2705 -0.2920
    7SAPS  C219  876   1.866   1.447   8.694  0.3127  0.2016  0.9335
    7SAPS  H19R  877   1.880   1.536   8.759 -2.3403  0.7091  0.8895
    7SAPS  H19S  878   1.815   1.470   8.598  1.8368  0.6161  0.1766
    7SAPS  C220  879   2.002   1.382   8.671  0.9347 -0.1548  0.4759
    7SAPS  H20R  880   2.025   1.327   8.765  1.0561  2.4917  2.1074
    7SAPS  H20S  881   2.073   1.465   8.650  1.3651 -1.0449 -1.8167
    7SAPS  H20T  882   1.998   1.316   8.582  0.3070 -0.5244  0.7665
    7SAPS   C33  883   1.153   1.239   9.929  0.0006  0.6572 -0.2265
    7SAPS   H3X  884   1.075   1.169   9.894 -0.5409  1.4331 -0.6176
    7SAPS   H3Y  885   1.243   1.178   9.949  0.3438  0.7720 -1.3647
    7SAPS   C34  886   1.187   1.332   9.810  0.1184 -0.1416  0.1617
    7SAPS   H4X  887   1.253   1.415   9.840 -1.5813  1.5527 -0.5925
    7SAPS   H4Y  888   1.098   1.378   9.761 -0.0448 -0.7597 -0.1411
    7SAPS   C35  889   1.252   1.254   9.692  0.4239 -0.7700  0.2174
    7SAPS   H5X  890   1.190   1.162   9.681  1.4412 -1.6061  1.2818
    7SAPS   H5Y  891   1.358   1.225   9.709  0.6569 -2.5557 -3.2431
    7SAPS   C36  892   1.246   1.330   9.557  0.5746  0.2194 -0.2406
    7SAPS   H6X  893   1.324   1.286   9.491 -0.0087  0.4654 -1.1121
    7SAPS   H6Y  894   1.273   1.436   9.579 -0.8628  0.6686 -0.5730
    7SAPS   C37  895   1.114   1.335   9.479 -0.7179  0.2375  0.1701
    7SAPS   H7X  896   1.045   1.411   9.522 -1.7952 -1.6090  1.9154
    7SAPS   H7Y  897   1.061   1.237   9.479  0.9945 -0.7264  1.0157
    7SAPS   C38  898   1.136   1.369   9.332 -0.7561  0.4701 -0.3960
    7SAPS   H8X  899   1.178   1.274   9.293 -0.1171  0.0138  1.3176
    7SAPS   H8Y  900   1.227   1.433   9.326 -0.6059  0.4480  1.1226
    7SAPS   C39  901   1.013   1.424   9.257 -0.3500  0.5497  0.0630
    7SAPS   H9X  902   0.982   1.519   9.305 -0.2950 -0.0393  1.3231
    7SAPS   H9Y  903   0.929   1.358   9.290 -1.1058  1.0368 -0.8663
    7SAPS  C310  904   1.041   1.445   9.114  0.0930 -0.2164  0.6652
    7SAPS  H10X  905   0.952   1.482   9.059  0.5681 -0.0903 -0.0459
    7SAPS  H10Y  906   1.075   1.353   9.061  0.4625 -0.0387  0.5854
    7SAPS  C311  907   1.152   1.547   9.086  0.1191  0.2344 -1.3484
    7SAPS  H11X  908   1.242   1.492   9.121 -0.1364  0.0158 -1.0249
    7SAPS  H11Y  909   1.136   1.631   9.157 -2.1098 -1.4060  0.2175
    7SAPS  C312  910   1.162   1.587   8.945  0.7395 -0.0011  0.4604
    7SAPS  H12X  911   1.062   1.625   8.916  1.2361  1.6326  0.7653
    7SAPS  H12Y  912   1.177   1.498   8.879  0.2218 -2.2495  3.2090
    7SAPS  C313  913   1.263   1.694   8.916 -0.7028  0.4175  0.0167
    7SAPS  H13X  914   1.366   1.654   8.931  0.0629  2.3809  0.2607
    7SAPS  H13Y  915   1.240   1.781   8.980 -0.5633  0.9862 -0.6897
    7SAPS  C314  916   1.264   1.747   8.772 -0.1604 -0.6163 -0.6544
    7SAPS  H14X  917   1.265   1.664   8.697  3.4124 -0.3550 -1.0782
    7SAPS  H14Y  918   1.364   1.792   8.752  0.2574 -1.6642 -0.9933
    7SAPS  C315  919   1.148   1.846   8.736 -0.5715  0.2459 -0.6828
    7SAPS  H15X  920   1.049   1.797   8.751 -1.7823  3.4118  3.0891
    7SAPS  H15Y  921   1.164   1.872   8.629  0.6064  1.1252 -0.3069
    7SAPS  C316  922   1.140   1.984   8.814  0.0682  0.2407 -0.1883
    7SAPS  H16X  923   1.229   2.044   8.785 -0.7067  0.7066 -1.6781
    7SAPS  H16Y  924   1.152   1.959   8.922 -0.1360  1.4345  0.1228
    7SAPS  C317  925   1.008   2.053   8.801 -0.0877 -0.0962  0.4291
    7SAPS  H17X  926   1.007   2.135   8.876  0.2718 -1.5008  2.0106
    7SAPS  H17Y  927   0.921   1.989   8.826  0.1219 -0.4480  0.2552
    7SAPS  C318  928   0.975   2.109   8.662 -0.0511 -0.0768  0.1601
    7SAPS  H18X  929   0.995   2.033   8.583  0.3308  0.4612 -0.2740
    7SAPS  H18Y  930   1.045   2.190   8.630 -0.4837 -0.0615 -0.7886
    7SAPS  H18Z  931   0.873   2.154   8.658  0.7412  1.8640  0.8155
    8SAPS     N  932   1.778   1.400  11.095  0.3809 -0.1142  0.2192
    8SAPS   HN1  933   1.744   1.344  11.014  0.9879 -1.8801  1.1100
    8SAPS   HN2  934   1.870   1.435  11.064  0.0132  0.8329  0.1761
    8SAPS   HN3  935   1.774   1.343  11.183  0.7639 -0.3912  0.0577
    8SAPS   C12  936   1.697   1.521  11.125  0.3998 -0.0376 -1.1838
    8SAPS  H12A  937   1.592   1.499  11.138  0.2418  0.7121 -1.1667
    8SAPS   C13  938   1.742   1.599  11.256  0.1303 -0.5001  0.3881
    8SAPS  O13A  939   1.843   1.561  11.314 -0.1333 -0.2059 -0.7264
    8SAPS  O13B  940   1.687   1.715  11.276  0.8232 -0.0059 -0.0362
    8SAPS   C11  941   1.710   1.610  10.999 -0.0124  0.5188 -0.0314
    8SAPS  H11A  942   1.652   1.703  11.015 -0.7745 -0.2823  2.4133
    8SAPS  H11B  943   1.669   1.552  10.914  0.8501  0.1275 -0.1902
    8SAPS     P  944   1.906   1.713  10.844 -0.1278  0.0031 -0.0810
    8SAPS   O13  945   1.934   1.851  10.890 -0.6402 -0.2321  0.0956
    8SAPS   O14  946   2.012   1.636  10.780  0.3471  0.2503  0.2171
    8SAPS   O12  947   1.845   1.634  10.971 -0.3738  0.0517 -0.1415
    8SAPS   O11  948   1.775   1.706  10.753  0.5366 -0.0871  0.1729
    8SAPS    C1  949   1.710   1.829  10.727  0.3031  0.0229  0.7771
    8SAPS    HA  950   1.600   1.815  10.732 -0.0769  1.2242 -2.1627
    8SAPS    HB  951   1.748   1.919  10.780  2.2814  0.4557 -1.1892
    8SAPS    C2  952   1.732   1.868  10.570 -0.1748  0.0521 -0.5654
    8SAPS    HS  953   1.673   1.959  10.549 -0.6903 -0.5465 -1.8721
    8SAPS   O21  954   1.695   1.761  10.481  0.1029 -0.6918  0.2208
    8SAPS   C21  955   1.607   1.786  10.390  0.1562 -0.0563 -0.3492
    8SAPS   O22  956   1.522   1.870  10.386  0.7624 -0.3591  0.7592
    8SAPS   C22  957   1.633   1.681  10.285 -0.4479 -0.3879  0.9668
    8SAPS   H2R  958   1.741   1.672  10.263 -0.1904  3.1290  0.2966
    8SAPS   H2S  959   1.599   1.581  10.321  2.1256 -1.6025  0.2518
    8SAPS    C3  960   1.883   1.890  10.540 -0.3762  0.1550 -0.0316
    8SAPS    HX  961   1.931   1.789  10.544 -4.9976 -2.2937  0.1084
    8SAPS    HY  962   1.927   1.964  10.609  0.6806  0.0305 -0.5451
    8SAPS   O31  963   1.891   1.939  10.403 -0.4171  0.3713 -0.4728
    8SAPS   C31  964   1.978   2.029  10.376  0.0958 -0.4193 -0.1627
    8SAPS   O32  965   2.048   2.093  10.455 -0.2106 -0.7154 -0.1338
    8SAPS   C32  966   1.976   2.045  10.224 -0.7449  0.1620  0.9865
    8SAPS   H2X  967   1.877   2.009  10.188 -0.1669 -1.8237  1.2754
    8SAPS   H2Y  968   2.057   1.983  10.180 -2.1665 -0.2609 -1.2290
    8SAPS   C23  969   1.558   1.717  10.153 -0.0709  0.4231 -0.1551
    8SAPS   H3R  970   1.464   1.770  10.182  0.3009  1.8033 -1.3627
    8SAPS   H3S  971   1.530   1.621  10.105 -1.2342  0.4093  0.5018
    8SAPS   C24  972   1.640   1.805  10.059  0.1473 -0.0826  0.3680
    8SAPS   H4R  973   1.599   1.797   9.956  0.5362 -0.2401  0.2253
    8SAPS   H4S  974   1.746   1.778  10.040  0.1795  0.7424 -0.7675
    8SAPS   C25  975   1.624   1.949  10.090  0.2835 -0.2790  0.0776
    8SAPS   H5R  976   1.601   1.978  10.194  0.8663 -0.6779  0.3206
    8SAPS   C26  977   1.664   2.045  10.008  0.3690  0.1296 -0.6538
    8SAPS   H6R  978   1.641   2.145  10.047  0.2353  0.4194 -1.4618
    8SAPS   C27  979   1.721   2.033   9.868 -0.2639 -0.9825  0.3449
    8SAPS   H7R  980   1.762   1.930   9.857  1.0987 -0.3028 -1.3657
    8SAPS   H7S  981   1.803   2.107   9.860  0.1623 -1.4915 -0.0741
    8SAPS   C28  982   1.627   2.049   9.750 -0.8316  0.0058  0.3773
    8SAPS   H8R  983   1.546   1.975   9.736  0.8012 -2.0468  1.2263
    8SAPS   C29  984   1.626   2.159   9.669  0.0362 -0.0134  0.2371
    8SAPS   H9R  985   1.555   2.156   9.585 -1.6550  1.1632  1.5750
    8SAPS  C210  986   1.710   2.284   9.667  0.2524  1.0148 -0.3260
    8SAPS  H10R  987   1.790   2.268   9.591  0.9557  1.6390  0.2645
    8SAPS  H10S  988   1.767   2.295   9.762  0.8325  0.0840 -0.5589
    8SAPS  C211  989   1.625   2.411   9.640 -0.2727  0.3853  0.2691
    8SAPS  H11R  990   1.552   2.404   9.558 -1.4091  3.2185  0.9194
    8SAPS  C212  991   1.622   2.535   9.697 -0.6422  0.4155 -0.1034
    8SAPS  H12R  992   1.568   2.614   9.644  0.5351  2.5777  1.7696
    8SAPS  C213  993   1.715   2.576   9.808  0.5997 -0.8141 -0.2866
    8SAPS  H13R  994   1.820   2.599   9.777  0.5684  0.4722  0.4837
    8SAPS  H13S  995   1.732   2.487   9.872 -0.9968  0.5007  2.1358
    8SAPS  C214  996   1.654   2.673   9.903 -0.1875 -0.3368  0.5108
    8SAPS  H14R  997   1.655   2.770   9.851  0.0695 -0.6181 -0.0261
    8SAPS  C215  998   1.600   2.648  10.019  0.4752  0.1314 -0.3148
    8SAPS  H15R  999   1.556   2.737  10.068 -0.5242 -0.4335 -0.1570
    8SAPS  C216 1000   1.584   2.517  10.094  0.3385  0.3983  1.1980
    8SAPS  H16R 1001   1.621   2.428  10.038 -0.9180 -1.2358  2.8521
    8SAPS  H16S 1002   1.474   2.502  10.104 -0.5077  3.6888 -1.3427
    8SAPS  C217 1003   1.657   2.505  10.230 -0.0595  0.2263 -0.0048
    8SAPS  H17R 1004   1.641   2.600  10.286 -1.1112 -0.2586  0.5654
    8SAPS  H17S 1005   1.766   2.495  10.212  0.3813 -0.2992  2.5032
    8SAPS  C218 1006   1.589   2.393  10.308  0.2885 -0.1045 -0.5829
    8SAPS  H18R 1007   1.601   2.292  10.262 -0.5765 -1.8341  2.6779
    8SAPS  H18S 1008   1.481   2.409  10.326  0.3962 -1.6143  1.8692
    8SAPS  C219 1009   1.654   2.375  10.441 -0.1950 -0.5410 -0.7193
    8SAPS  H19R 1010   1.670   2.470  10.495  1.7293 -1.3396  0.2235
    8SAPS  H19S 1011   1.750   2.319  10.433 -0.7445 -1.4376 -1.2803
    8SAPS  C220 1012   1.577   2.295  10.550  1.1062  0.7188  0.8681
    8SAPS  H20R 1013   1.537   2.198  10.513  0.6614  1.9257 -2.0213
    8SAPS  H20S 1014   1.490   2.347  10.595 -1.4890 -0.4418 -2.4180
    8SAPS  H20T 1015   1.655   2.279  10.627  0.7999  1.9548  1.4680
    8SAPS   C33 1016   2.010   2.194  10.190  0.6269  0.1459  0.0245
    8SAPS   H3X 1017   2.087   2.238  10.256  2.0348 -2.1865  0.0244
    8SAPS   H3Y 1018   1.920   2.259  10.202  1.8894  2.3115 -1.5944
    8SAPS   C34 1019   2.058   2.201  10.040 -0.0856 -0.1484  0.3166
    8SAPS   H4X 1020   1.966   2.193   9.978  0.0415 -0.5299  0.1697
    8SAPS   H4Y 1021   2.131   2.121  10.015 -0.3172  0.4810 -2.8512
    8SAPS   C35 1022   2.135   2.328  10.006 -0.0787 -0.4650  0.2687
    8SAPS   H5X 1023   2.222   2.331  10.075 -0.4092  1.3219  0.6652
    8SAPS   H5Y 1024   2.068   2.414  10.030  1.3670 -0.1270  3.7221
    8SAPS   C36 1025   2.186   2.356   9.868 -0.1454 -0.0727 -0.2166
    8SAPS   H6X 1026   2.238   2.264   9.832  0.6054 -0.7499  2.3726
    8SAPS   H6Y 1027   2.258   2.441   9.874  0.1068 -0.1271 -2.0193
    8SAPS   C37 1028   2.081   2.395   9.768  0.0680 -0.1276  0.4947
    8SAPS   H7X 1029   2.040   2.492   9.802  0.8004  1.1280 -1.9538
    8SAPS   H7Y 1030   2.002   2.317   9.771  0.5872 -0.6428  1.0690
    8SAPS   C38 1031   2.135   2.411   9.632  0.3172  0.5336  0.2654
    8SAPS   H8X 1032   2.157   2.310   9.590 -0.3839  1.3547 -2.2397
    8SAPS   H8Y 1033   2.234   2.461   9.646 -0.3232  1.6771  0.8742
    8SAPS   C39 1034   2.030   2.462   9.533 -0.3788 -0.4764  0.2780
    8SAPS   H9X 1035   1.988   2.556   9.574  1.1808  0.4144 -0.0952
    8SAPS   H9Y 1036   1.942   2.395   9.530 -2.3443  1.7923  2.2334
    8SAPS  C310 1037   2.091   2.515   9.400 -0.1494  0.4643 -0.0469
    8SAPS  H10X 1038   2.179   2.582   9.412 -0.5049  0.9567 -0.1792
    8SAPS  H10Y 1039   2.008   2.564   9.346 -0.6030 -0.6055 -0.3545
    8SAPS  C311 1040   2.135   2.406   9.305 -0.5997 -0.3969 -0.5469
    8SAPS  H11X 1041   2.065   2.320   9.315 -2.2808  1.0464  0.8936
    8SAPS  H11Y 1042   2.230   2.363   9.344  0.5214  0.0062 -2.6944
    8SAPS  C312 1043   2.143   2.440   9.161 -0.2046 -0.4033 -0.2961
    8SAPS  H12X 1044   2.184   2.544   9.163  1.6384 -1.1051  1.0766
    8SAPS  H12Y 1045   2.043   2.453   9.113 -0.1902  2.3947  0.2643
    8SAPS  C313 1046   2.238   2.352   9.078  0.1629  0.3596  0.5703
    8SAPS  H13X 1047   2.197   2.253   9.051  2.0689 -0.0302 -1.1889
    8SAPS  H13Y 1048   2.320   2.340   9.153  1.2678 -0.3021 -0.7000
    8SAPS  C314 1049   2.301   2.433   8.964  0.4984  0.4810 -0.0490
    8SAPS  H14X 1050   2.392   2.379   8.929 -1.1850 -2.2644 -0.4845
    8SAPS  H14Y 1051   2.330   2.534   8.999  2.2716  0.3156 -0.9047
    8SAPS  C315 1052   2.200   2.445   8.839 -0.1020 -0.0235  0.2685
    8SAPS  H15X 1053   2.108   2.493   8.880 -1.8806 -2.5289 -0.5611
    8SAPS  H15Y 1054   2.174   2.340   8.812 -0.2769  0.5325 -1.9202
    8SAPS  C316 1055   2.267   2.523   8.720 -0.0213  0.2544 -0.0870
    8SAPS  H16X 1056   2.371   2.493   8.693  0.6025 -0.3504  2.6052
    8SAPS  H16Y 1057   2.272   2.621   8.772  1.3885  0.1879 -0.0685
    8SAPS  C317 1058   2.181   2.544   8.595 -0.2623 -0.2090  0.0283
    8SAPS  H17X 1059   2.080   2.591   8.596  0.0688  0.5129 -0.0944
    8SAPS  H17Y 1060   2.158   2.441   8.560 -0.9812  0.4275 -1.4948
    8SAPS  C318 1061   2.266   2.612   8.482  0.2247  0.1342 -0.4799
    8SAPS  H18X 1062   2.232   2.565   8.387  3.8541 -1.2424 -1.2564
    8SAPS  H18Y 1063   2.374   2.587   8.491  0.1065 -1.4780 -2.6694
    8SAPS  H18Z 1064   2.250   2.722   8.483 -0.8037  0.0036 -1.0217
    9SAPS     N 1065   4.681   5.779   6.210 -0.2468  0.3354 -0.4710
    9SAPS   HN1 1066   4.613   5.840   6.161 -1.3781  0.9814  1.7620
    9SAPS   HN2 1067   4.618   5.710   6.257  0.2106 -0.6475 -1.2614
    9SAPS   HN3 1068   4.726   5.834   6.286  0.9968 -0.3374 -0.6936
    9SAPS   C12 1069   4.770   5.707   6.115 -0.0664 -0.6791 -0.1395
    9SAPS  H12A 1070   4.704   5.639   6.063  1.4957 -2.6650  0.3422
    9SAPS   C13 1071   4.841   5.793   6.009  0.2627 -0.5372 -0.0821
    9SAPS  O13A 1072   4.816   5.918   5.995  0.0599 -0.0055 -0.9593
    9SAPS  O13B 1073   4.909   5.735   5.917  0.5678 -0.4574 -0.1014
    9SAPS   C11 1074   4.874   5.620   6.189  0.0592 -0.7616  0.2838
    9SAPS  H11A 1075   4.937   5.691   6.248  0.4271  0.1498 -1.1420
    9SAPS  H11B 1076   4.937   5.577   6.108  0.0110 -1.3739  0.5718
    9SAPS     P 1077   4.864   5.373   6.284  0.4240  0.1274 -0.0639
    9SAPS   O13 1078   4.806   5.306   6.401 -0.0168 -0.4854 -0.1667
    9SAPS   O14 1079   4.844   5.303   6.158  0.1785 -0.3016  0.2840
    9SAPS   O12 1080   4.808   5.521   6.270 -0.1030  0.1536 -0.2550
    9SAPS   O11 1081   5.018   5.396   6.307  0.7259  0.7057 -0.3188
    9SAPS    C1 1082   5.071   5.485   6.407  0.4119 -0.2403 -0.2448
    9SAPS    HA 1083   5.065   5.589   6.369  0.9443  0.2205  0.8907
    9SAPS    HB 1084   5.009   5.478   6.499  0.2353  0.4244 -0.3140
    9SAPS    C2 1085   5.216   5.457   6.437  0.2122  0.0307 -0.6004
    9SAPS    HS 1086   5.272   5.473   6.343 -1.3471  0.9725 -1.4171
    9SAPS   O21 1087   5.236   5.325   6.492  0.2985 -0.2389  0.4918
    9SAPS   C21 1088   5.360   5.295   6.529 -0.7849 -0.0287  0.3209
    9SAPS   O22 1089   5.454   5.366   6.517 -1.0745 -0.7470 -0.1562
    9SAPS   C22 1090   5.372   5.157   6.578  0.1244 -0.4231 -0.1035
    9SAPS   H2R 1091   5.275   5.104   6.576  0.6057 -1.5013  1.7711
    9SAPS   H2S 1092   5.444   5.101   6.514  0.8868 -0.5320  0.8149
    9SAPS    C3 1093   5.261   5.573   6.543  0.5065 -0.1622  0.4195
    9SAPS    HX 1094   5.232   5.674   6.506  1.2906 -0.3091 -0.6543
    9SAPS    HY 1095   5.372   5.582   6.539  0.5828 -0.3812  1.5202
    9SAPS   O31 1096   5.231   5.554   6.679  0.0478  0.0955 -0.0254
    9SAPS   C31 1097   5.121   5.601   6.729  0.0155  0.4782 -0.0142
    9SAPS   O32 1098   5.029   5.652   6.666  0.0727  0.3211 -0.5000
    9SAPS   C32 1099   5.129   5.603   6.883  0.6028 -0.4295 -0.4243
    9SAPS   H2X 1100   5.070   5.689   6.924 -0.5365 -1.3659 -0.0214
    9SAPS   H2Y 1101   5.234   5.622   6.912  0.1993  1.5825 -0.0612
    9SAPS   C23 1102   5.414   5.143   6.727  0.3705 -0.5657  0.1283
    9SAPS   H3R 1103   5.519   5.179   6.724  0.4701 -0.7713  1.0185
    9SAPS   H3S 1104   5.422   5.035   6.751  2.0498 -1.1706 -2.6422
    9SAPS   C24 1105   5.334   5.227   6.829  0.2914 -0.5368  0.5184
    9SAPS   H4R 1106   5.292   5.318   6.781  2.1571 -0.7874 -1.7504
    9SAPS   H4S 1107   5.401   5.266   6.909  1.4620 -1.0749 -0.1644
    9SAPS   C25 1108   5.218   5.150   6.884  0.2717  0.1879  0.0738
    9SAPS   H5R 1109   5.128   5.141   6.822  1.0318 -3.5743 -0.7253
    9SAPS   C26 1110   5.210   5.086   7.000 -0.4012 -0.2190 -0.4944
    9SAPS   H6R 1111   5.109   5.051   7.024  0.8012 -2.2943  2.0589
    9SAPS   C27 1112   5.320   5.077   7.104 -1.0089  0.6871  0.3376
    9SAPS   H7R 1113   5.289   5.091   7.210  0.8278 -1.9914  1.3336
    9SAPS   H7S 1114   5.398   5.152   7.081  1.1500 -1.1623  1.2601
    9SAPS   C28 1115   5.382   4.936   7.087  0.1639  0.5897  0.1040
    9SAPS   H8R 1116   5.389   4.889   6.988  1.9690  1.8175 -0.4046
    9SAPS   C29 1117   5.413   4.863   7.193  0.1867  1.5288  0.0414
    9SAPS   H9R 1118   5.454   4.763   7.169 -0.5263  1.6845 -2.0667
    9SAPS  C210 1119   5.406   4.903   7.342 -0.7447  0.1478  0.5870
    9SAPS  H10R 1120   5.304   4.870   7.372 -1.1723 -0.7137 -1.5795
    9SAPS  H10S 1121   5.399   5.013   7.347 -0.3744  0.3613 -1.9974
    9SAPS  C211 1122   5.518   4.854   7.435  0.1304 -0.4833  0.5012
    9SAPS  H11R 1123   5.620   4.861   7.394  0.5286 -0.5996  1.4322
    9SAPS  C212 1124   5.506   4.817   7.559  0.1361  0.1337 -0.3003
    9SAPS  H12R 1125   5.594   4.788   7.618 -1.3925 -2.1955  0.9716
    9SAPS  C213 1126   5.381   4.799   7.645  0.1348 -0.7886 -0.4911
    9SAPS  H13R 1127   5.364   4.691   7.667  2.6655 -1.2219 -0.4137
    9SAPS  H13S 1128   5.294   4.829   7.582  0.8693  0.2970 -1.0178
    9SAPS  C214 1129   5.387   4.880   7.773 -0.3019 -0.3863 -0.1539
    9SAPS  H14R 1130   5.371   4.989   7.766  1.5473 -0.1982 -2.4443
    9SAPS  C215 1131   5.403   4.831   7.904 -0.2811  0.1264  0.6216
    9SAPS  H15R 1132   5.407   4.906   7.984 -1.7156  1.5815 -0.5803
    9SAPS  C216 1133   5.422   4.689   7.953 -0.7757 -0.6124 -0.0040
    9SAPS  H16R 1134   5.513   4.688   8.016 -1.2542  2.7733  0.9447
    9SAPS  H16S 1135   5.436   4.611   7.875 -0.3678 -0.1341 -0.4212
    9SAPS  C217 1136   5.305   4.653   8.038 -0.5197 -0.3948 -0.2241
    9SAPS  H17R 1137   5.296   4.723   8.123  1.0317  1.9252 -1.8349
    9SAPS  H17S 1138   5.333   4.563   8.097  0.3152 -1.2967 -1.9068
    9SAPS  C218 1139   5.179   4.611   7.961 -0.9687  0.3809 -0.1110
    9SAPS  H18R 1140   5.192   4.509   7.919  2.3814  0.7474 -0.1986
    9SAPS  H18S 1141   5.156   4.679   7.877 -0.1460  0.7434 -0.0520
    9SAPS  C219 1142   5.063   4.585   8.064  0.3901  0.8735 -0.2679
    9SAPS  H19R 1143   5.042   4.685   8.108 -1.1167  0.4205  0.1204
    9SAPS  H19S 1144   5.094   4.513   8.143 -0.8688 -1.6511 -1.9642
    9SAPS  C220 1145   4.923   4.541   8.015  0.3569 -0.0570  0.8598
    9SAPS  H20R 1146   4.870   4.624   7.964 -0.6943 -1.6176 -0.7090
    9SAPS  H20S 1147   4.862   4.505   8.100  0.9527 -0.3463  1.1708
    9SAPS  H20T 1148   4.932   4.464   7.935 -0.3238  0.1620  0.5676
    9SAPS   C33 1149   5.060   5.476   6.936  0.5252 -0.4311  0.3544
    9SAPS   H3X 1150   5.101   5.392   6.877  0.7470 -0.7447  0.9408
    9SAPS   H3Y 1151   4.951   5.488   6.918  0.8301 -1.1342 -2.4172
    9SAPS   C34 1152   5.097   5.449   7.086  0.6762  0.8173 -0.2595
    9SAPS   H4X 1153   5.207   5.459   7.094  1.0201 -1.3398 -1.5290
    9SAPS   H4Y 1154   5.069   5.344   7.107  2.1939  0.7092  1.3666
    9SAPS   C35 1155   5.024   5.549   7.187 -0.1037  0.1446  0.2859
    9SAPS   H5X 1156   5.017   5.654   7.152 -0.1787 -0.6074 -2.1309
    9SAPS   H5Y 1157   5.081   5.555   7.282  0.7731  0.6998 -0.2700
    9SAPS   C36 1158   4.872   5.508   7.211  0.0723 -0.2022  0.1798
    9SAPS   H6X 1159   4.874   5.417   7.274 -1.2690 -1.5959 -1.6419
    9SAPS   H6Y 1160   4.831   5.481   7.111  4.0283  0.5508 -1.8563
    9SAPS   C37 1161   4.790   5.614   7.292  0.0807 -0.1657  0.1108
    9SAPS   H7X 1162   4.683   5.587   7.310 -0.2261  1.7362  1.5184
    9SAPS   H7Y 1163   4.777   5.700   7.223 -0.4153  0.6228  1.1580
    9SAPS   C38 1164   4.857   5.668   7.419 -0.0291  0.9645 -0.1525
    9SAPS   H8X 1165   4.816   5.768   7.444  0.7530  1.3396 -0.3437
    9SAPS   H8Y 1166   4.960   5.699   7.391  0.2967  0.2360  0.2328
    9SAPS   C39 1167   4.851   5.574   7.539 -0.5248  0.4956  0.4590
    9SAPS   H9X 1168   4.923   5.491   7.525 -3.0081 -1.5428 -0.9703
    9SAPS   H9Y 1169   4.752   5.529   7.559  0.0582 -1.2446 -0.3831
    9SAPS  C310 1170   4.895   5.646   7.672 -0.5050 -0.0298  0.2584
    9SAPS  H10X 1171   4.842   5.744   7.678  0.8436  0.7256  0.2128
    9SAPS  H10Y 1172   4.999   5.684   7.661 -0.2178 -0.7355  0.4548
    9SAPS  C311 1173   4.875   5.545   7.784  0.4136 -0.3798  0.0950
    9SAPS  H11X 1174   4.927   5.449   7.767  1.1502 -0.1278  0.8588
    9SAPS  H11Y 1175   4.766   5.525   7.776  0.5084 -0.4619 -1.0052
    9SAPS  C312 1176   4.902   5.588   7.926 -0.2541  0.6148  0.4199
    9SAPS  H12X 1177   5.012   5.607   7.931 -0.3110  2.1407 -2.2101
    9SAPS  H12Y 1178   4.884   5.507   8.000  0.1419  0.4938  0.3900
    9SAPS  C313 1179   4.828   5.722   7.969 -0.6128 -0.4053  0.4915
    9SAPS  H13X 1180   4.717   5.720   7.977 -0.6909  0.9213 -0.0856
    9SAPS  H13Y 1181   4.845   5.794   7.886  2.8541 -2.9396 -1.2606
    9SAPS  C314 1182   4.878   5.804   8.097  0.1924 -0.2436  0.7199
    9SAPS  H14X 1183   4.815   5.895   8.104  1.8149  0.8886  1.1148
    9SAPS  H14Y 1184   4.980   5.829   8.061 -0.8483  2.9289 -0.4002
    9SAPS  C315 1185   4.899   5.719   8.217  0.0180  0.5547  0.3883
    9SAPS  H15X 1186   4.969   5.637   8.189 -2.1694 -0.5752 -2.2176
    9SAPS  H15Y 1187   4.803   5.668   8.243 -0.7660  1.8113  0.0494
    9SAPS  C316 1188   4.941   5.795   8.342  0.0230 -0.2194  0.0264
    9SAPS  H16X 1189   4.861   5.869   8.365  1.2318  0.3399  2.8373
    9SAPS  H16Y 1190   5.038   5.838   8.311  0.3625 -2.9002 -3.1473
    9SAPS  C317 1191   4.948   5.708   8.465 -0.4076 -0.3949 -1.6079
    9SAPS  H17X 1192   5.031   5.635   8.458  1.2753  0.5739  3.7008
    9SAPS  H17Y 1193   4.849   5.657   8.466 -1.5506  1.6979 -0.6970
    9SAPS  C318 1194   4.973   5.783   8.596 -0.4989 -0.0072 -0.3341
    9SAPS  H18X 1195   4.965   5.712   8.681  1.8885 -0.0889 -0.1040
    9SAPS  H18Y 1196   4.896   5.863   8.595 -0.8825 -0.3782 -0.7273
    9SAPS  H18Z 1197   5.075   5.827   8.587 -0.8664  0.5816 -1.9550
   10SAPS     N 1198   5.035   4.301   6.462  0.1035 -0.4314  0.3699
   10SAPS   HN1 1199   5.060   4.234   6.537  0.4409 -1.7737 -0.8838
   10SAPS   HN2 1200   5.118   4.354   6.428  1.2065 -2.0777  0.3770
   10SAPS   HN3 1201   4.962   4.367   6.494 -0.0974 -0.3653 -0.2079
   10SAPS   C12 1202   4.985   4.223   6.341  0.6656  0.1748  0.3343
   10SAPS  H12A 1203   4.963   4.290   6.260 -0.9689 -2.5270 -1.6562
   10SAPS   C13 1204   5.087   4.131   6.277 -0.6977  0.3441  0.6533
   10SAPS  O13A 1205   5.208   4.136   6.321  0.5655  0.5641 -0.3400
   10SAPS  O13B 1206   5.056   4.077   6.162  0.0271  0.0320  0.5613
   10SAPS   C11 1207   4.854   4.149   6.378 -0.2110 -0.1210  0.0022
   10SAPS  H11A 1208   4.882   4.073   6.454  0.9198 -1.2139 -1.4394
   10SAPS  H11B 1209   4.808   4.090   6.296 -2.9509 -1.6996  2.5066
   10SAPS     P 1210   4.618   4.175   6.495 -0.2436  0.3056 -0.6791
   10SAPS   O13 1211   4.527   4.276   6.545 -0.4529  0.3471 -0.0378
   10SAPS   O14 1212   4.566   4.076   6.402  0.2579 -0.3410  0.7437
   10SAPS   O12 1213   4.747   4.236   6.426 -0.0268  0.0922 -0.5748
   10SAPS   O11 1214   4.669   4.090   6.617  0.1259  0.0827 -0.8528
   10SAPS    C1 1215   4.729   4.157   6.733  0.0100  0.4858  0.2804
   10SAPS    HA 1216   4.807   4.228   6.699  1.6275 -0.8899  0.9344
   10SAPS    HB 1217   4.659   4.227   6.781  0.3905  1.2817 -0.3079
   10SAPS    C2 1218   4.800   4.068   6.822 -0.7837  0.7386  0.0547
   10SAPS    HS 1219   4.872   4.018   6.754 -0.3612  2.1937 -0.6060
   10SAPS   O21 1220   4.704   3.977   6.881  0.0119  0.7137 -0.4499
   10SAPS   C21 1221   4.750   3.860   6.920 -0.0455  0.2960  0.5960
   10SAPS   O22 1222   4.868   3.831   6.923 -0.0555 -0.1031  0.5024
   10SAPS   C22 1223   4.628   3.779   6.976  0.1387 -0.5740  0.4951
   10SAPS   H2R 1224   4.542   3.841   6.943  1.2649  0.5229 -0.4275
   10SAPS   H2S 1225   4.628   3.688   6.912  1.8951 -1.2665  1.4084
   10SAPS    C3 1226   4.877   4.142   6.938 -0.1895 -0.7070  0.0129
   10SAPS    HX 1227   4.941   4.215   6.883 -2.2567  1.2654  0.0871
   10SAPS    HY 1228   4.940   4.066   6.990 -1.6495 -0.6689  1.9700
   10SAPS   O31 1229   4.788   4.201   7.041 -0.4391 -0.3523 -0.3433
   10SAPS   C31 1230   4.801   4.335   7.051 -0.2132 -0.0659  0.3450
   10SAPS   O32 1231   4.864   4.403   6.975 -0.0829 -0.1238  0.2833
   10SAPS   C32 1232   4.738   4.371   7.173  0.4093  0.3443 -0.5150
   10SAPS   H2X 1233   4.806   4.327   7.249  2.9734  0.7447 -2.4447
   10SAPS   H2Y 1234   4.635   4.331   7.180  0.4834  0.3529  0.8579
   10SAPS   C23 1235   4.636   3.742   7.121  0.5067  0.0831 -0.6899
   10SAPS   H3R 1236   4.739   3.708   7.145  0.4379  0.1852 -0.2412
   10SAPS   H3S 1237   4.586   3.643   7.132 -0.2064  0.4438 -0.6638
   10SAPS   C24 1238   4.565   3.845   7.219 -0.1712  0.0206  0.3171
   10SAPS   H4R 1239   4.539   3.786   7.310  1.8248 -0.5758  0.5386
   10SAPS   H4S 1240   4.470   3.878   7.171 -0.8592 -0.1977  1.4901
   10SAPS   C25 1241   4.662   3.966   7.255  0.4841  0.0830  0.7656
   10SAPS   H5R 1242   4.695   4.016   7.163 -0.3608 -2.6492 -1.1614
   10SAPS   C26 1243   4.708   4.003   7.373  0.2736  0.2782  0.2016
   10SAPS   H6R 1244   4.786   4.080   7.374  1.6904 -1.0789 -1.0559
   10SAPS   C27 1245   4.689   3.933   7.505 -0.3930 -0.3756 -0.5981
   10SAPS   H7R 1246   4.770   3.970   7.572 -2.3032  1.0499  1.0726
   10SAPS   H7S 1247   4.709   3.825   7.492  0.3253 -0.6869  2.4228
   10SAPS   C28 1248   4.552   3.971   7.571 -0.5780  0.0547  0.1195
   10SAPS   H8R 1249   4.501   4.060   7.529  0.8983  1.3937  1.0601
   10SAPS   C29 1250   4.499   3.917   7.678 -0.4480  0.5748  0.3249
   10SAPS   H9R 1251   4.405   3.966   7.707 -0.6703  0.6422 -0.4588
   10SAPS  C210 1252   4.553   3.791   7.745  0.1484  0.4694 -0.3005
   10SAPS  H10R 1253   4.539   3.797   7.855 -2.1053  0.2404 -0.5383
   10SAPS  H10S 1254   4.662   3.788   7.726  0.2716  1.3602  0.1694
   10SAPS  C211 1255   4.484   3.659   7.702  0.1220 -0.5605  0.1225
   10SAPS  H11R 1256   4.456   3.649   7.596  0.0009  0.4091  0.0582
   10SAPS  C212 1257   4.474   3.558   7.787 -0.0405 -0.0468 -0.0143
   10SAPS  H12R 1258   4.445   3.462   7.741  0.2771 -0.6088  0.9265
   10SAPS  C213 1259   4.518   3.542   7.934  0.7085  0.4240  0.3528
   10SAPS  H13R 1260   4.574   3.632   7.967  0.4849  0.4616  0.6323
   10SAPS  H13S 1261   4.592   3.459   7.940 -0.6854 -0.8898  0.0962
   10SAPS  C214 1262   4.399   3.526   8.025  0.5140 -0.6594 -0.0265
   10SAPS  H14R 1263   4.345   3.622   8.031  1.3646 -0.0540 -1.5233
   10SAPS  C215 1264   4.352   3.422   8.083 -0.1414 -0.3685 -0.4228
   10SAPS  H15R 1265   4.264   3.436   8.148 -2.0363  0.2433 -2.9499
   10SAPS  C216 1266   4.426   3.296   8.085  0.0341 -0.0563  0.6762
   10SAPS  H16R 1267   4.535   3.316   8.078 -0.2698  1.2066 -3.5250
   10SAPS  H16S 1268   4.404   3.222   8.005  1.9136 -1.0159  0.9933
   10SAPS  C217 1269   4.407   3.228   8.224  0.6370 -0.2536  0.6172
   10SAPS  H17R 1270   4.449   3.126   8.218 -0.2850 -0.6449  0.5923
   10SAPS  H17S 1271   4.297   3.223   8.240  0.1748  0.6760 -1.7887
   10SAPS  C218 1272   4.477   3.305   8.333 -0.7935 -0.3776 -1.0879
   10SAPS  H18R 1273   4.413   3.377   8.388  1.1002 -0.8151  1.9015
   10SAPS  H18S 1274   4.565   3.365   8.300  1.2408 -0.2825  3.7000
   10SAPS  C219 1275   4.536   3.217   8.439 -0.3012 -0.4981 -0.3856
   10SAPS  H19R 1276   4.622   3.159   8.400 -0.1303 -0.5084 -0.0041
   10SAPS  H19S 1277   4.455   3.145   8.463 -0.7151  0.4509  1.2455
   10SAPS  C220 1278   4.576   3.297   8.568  0.1859 -0.1661  0.3099
   10SAPS  H20R 1279   4.486   3.315   8.630 -0.6190  0.3404 -0.9563
   10SAPS  H20S 1280   4.641   3.386   8.550  0.4078 -0.2270  0.7954
   10SAPS  H20T 1281   4.632   3.222   8.627 -1.0414 -2.0865 -0.8654
   10SAPS   C33 1282   4.744   4.526   7.200 -0.1645  0.7043 -0.8880
   10SAPS   H3X 1283   4.710   4.582   7.110  2.4641 -0.9433 -3.0629
   10SAPS   H3Y 1284   4.850   4.546   7.230 -0.1740 -2.7813  2.1140
   10SAPS   C34 1285   4.661   4.596   7.309  0.0709  0.6907  0.1176
   10SAPS   H4X 1286   4.552   4.586   7.288 -0.3480 -0.8146  2.5647
   10SAPS   H4Y 1287   4.697   4.701   7.310 -1.2709  1.1663  1.1041
   10SAPS   C35 1288   4.661   4.537   7.448 -0.0297 -0.0694 -0.7663
   10SAPS   H5X 1289   4.763   4.557   7.486  0.1587 -2.4464  0.1688
   10SAPS   H5Y 1290   4.654   4.426   7.441  0.5320 -0.6109  3.9582
   10SAPS   C36 1291   4.552   4.598   7.536 -0.0754 -0.5079 -0.8082
   10SAPS   H6X 1292   4.453   4.570   7.496 -0.5422 -0.8305  0.5090
   10SAPS   H6Y 1293   4.562   4.708   7.529  1.2986 -0.5106  0.5746
   10SAPS   C37 1294   4.584   4.566   7.680  0.2261 -0.4097 -0.6693
   10SAPS   H7X 1295   4.684   4.604   7.709  0.6763 -2.1763  0.2346
   10SAPS   H7Y 1296   4.600   4.458   7.700  2.0825 -0.1124 -0.3045
   10SAPS   C38 1297   4.484   4.623   7.791 -0.5359 -0.0546 -0.1670
   10SAPS   H8X 1298   4.375   4.618   7.770 -0.6271  1.7270 -0.2634
   10SAPS   H8Y 1299   4.498   4.733   7.781 -1.4508  0.0523 -0.3267
   10SAPS   C39 1300   4.513   4.576   7.936  0.1021 -0.0132 -0.7518
   10SAPS   H9X 1301   4.620   4.555   7.956 -0.1159 -0.6745 -0.2104
   10SAPS   H9Y 1302   4.460   4.479   7.947  1.1150 -0.5323 -0.3195
   10SAPS  C310 1303   4.454   4.663   8.050  0.0131 -0.0977  0.1897
   10SAPS  H10X 1304   4.343   4.658   8.045 -0.0773  0.2869  1.6249
   10SAPS  H10Y 1305   4.498   4.765   8.049  1.5974 -0.7478  0.4285
   10SAPS  C311 1306   4.489   4.613   8.185 -0.3930  0.1451 -0.4927
   10SAPS  H11X 1307   4.594   4.628   8.219  0.2880  0.5532 -2.5810
   10SAPS  H11Y 1308   4.488   4.503   8.173  2.3589 -0.5756  3.8866
   10SAPS  C312 1309   4.391   4.648   8.291 -0.2677 -0.2238 -0.2934
   10SAPS  H12X 1310   4.300   4.589   8.268 -0.4583  1.4490 -4.6395
   10SAPS  H12Y 1311   4.387   4.759   8.303  3.6326  0.0703 -0.3574
   10SAPS  C313 1312   4.440   4.595   8.429 -0.0936 -0.4765 -0.1193
   10SAPS  H13X 1313   4.352   4.615   8.493  0.6894 -1.0167  1.1676
   10SAPS  H13Y 1314   4.535   4.647   8.455  0.8856 -2.0490 -0.3707
   10SAPS  C314 1315   4.459   4.440   8.430 -0.2583 -0.4519 -0.2344
   10SAPS  H14X 1316   4.539   4.403   8.363 -1.4041 -1.7339 -0.9479
   10SAPS  H14Y 1317   4.366   4.394   8.391 -0.3639 -0.4381 -0.0065
   10SAPS  C315 1318   4.469   4.377   8.571 -0.0978  0.0685  0.0239
   10SAPS  H15X 1319   4.411   4.427   8.651  2.5003  0.1422  2.0166
   10SAPS  H15Y 1320   4.575   4.399   8.599 -0.4670 -0.9534  2.4613
   10SAPS  C316 1321   4.437   4.227   8.572  0.1647  0.7283 -0.4873
   10SAPS  H16X 1322   4.486   4.174   8.488  2.1563  0.7441  0.6059
   10SAPS  H16Y 1323   4.329   4.206   8.559  0.3847 -0.5158 -0.3586
   10SAPS  C317 1324   4.496   4.145   8.696  0.5397 -0.6444 -0.1147
   10SAPS  H17X 1325   4.505   4.211   8.785  3.4467  2.1235 -2.2683
   10SAPS  H17Y 1326   4.601   4.119   8.673  0.8378  1.9587 -2.0727
   10SAPS  C318 1327   4.426   4.018   8.734  0.4445 -0.2322  0.4202
   10SAPS  H18X 1328   4.457   3.984   8.835 -2.8215  0.8517  1.9470
   10SAPS  H18Y 1329   4.430   3.940   8.656 -1.0897  0.6209 -0.5667
   10SAPS  H18Z 1330   4.315   4.016   8.740  0.4237 -1.5416 -0.1422
   11SAPS     N 1331   6.166   4.595   5.778  0.1066 -0.0901 -0.1459
   11SAPS   HN1 1332   6.145   4.522   5.848  0.0335  0.2689  0.2141
   11SAPS   HN2 1333   6.072   4.640   5.773 -0.6907 -1.6758  0.1169
   11SAPS   HN3 1334   6.186   4.556   5.684  1.4178 -0.0761  0.1119
   11SAPS   C12 1335   6.280   4.680   5.821  1.7062 -0.0147 -0.0849
   11SAPS  H12A 1336   6.360   4.618   5.856  1.4704 -0.0182  0.4568
   11SAPS   C13 1337   6.344   4.764   5.707  0.2917  0.3107 -0.2991
   11SAPS  O13A 1338   6.296   4.758   5.591 -0.6361 -0.4722 -0.1477
   11SAPS  O13B 1339   6.445   4.828   5.740 -0.2236 -0.3620  0.8085
   11SAPS   C11 1340   6.223   4.792   5.911  0.1364 -0.4958  0.1760
   11SAPS  H11A 1341   6.295   4.874   5.929  0.0364 -0.3014 -0.3086
   11SAPS  H11B 1342   6.210   4.755   6.015  0.9718  0.5494  0.6660
   11SAPS     P 1343   6.035   4.982   5.928  0.3371  0.0843  0.2702
   11SAPS   O13 1344   6.116   5.095   5.873  0.4489  0.3935  0.9369
   11SAPS   O14 1345   5.888   4.987   5.899 -0.4548 -0.2005  0.3959
   11SAPS   O12 1346   6.097   4.848   5.869  0.7344 -0.2658  0.7682
   11SAPS   O11 1347   6.060   4.978   6.085 -0.1918 -0.4048  0.1581
   11SAPS    C1 1348   5.976   4.894   6.170  0.4873  0.1201  0.2793
   11SAPS    HA 1349   5.869   4.923   6.170  0.1768 -0.9870  0.4421
   11SAPS    HB 1350   5.984   4.792   6.127  1.0619  0.1031  0.4207
   11SAPS    C2 1351   6.033   4.887   6.316  0.0841  0.5689 -0.1601
   11SAPS    HS 1352   6.018   4.785   6.357 -0.4024  0.7774  0.1854
   11SAPS   O21 1353   5.972   4.987   6.397 -0.4983  0.0855 -0.0945
   11SAPS   C21 1354   5.850   4.950   6.446 -0.0140  0.0996 -0.3363
   11SAPS   O22 1355   5.800   4.838   6.435 -0.4896  0.0135 -0.3151
   11SAPS   C22 1356   5.780   5.068   6.523 -0.7128  0.3198  0.2726
   11SAPS   H2R 1357   5.746   5.146   6.452  3.0906  0.3073 -1.7760
   11SAPS   H2S 1358   5.687   5.032   6.573 -0.7943  0.9734  0.5904
   11SAPS    C3 1359   6.188   4.903   6.319 -0.6261  0.3809  0.7584
   11SAPS    HX 1360   6.197   5.008   6.282 -1.9454  0.0681 -0.5716
   11SAPS    HY 1361   6.229   4.842   6.235  1.0697  1.8186  0.4803
   11SAPS   O31 1362   6.258   4.883   6.441  0.4865 -0.0321  0.0062
   11SAPS   C31 1363   6.243   4.766   6.510 -0.0836 -0.3235  0.2939
   11SAPS   O32 1364   6.211   4.664   6.462 -0.1728  0.2869  0.3971
   11SAPS   C32 1365   6.283   4.790   6.656 -0.5421  0.2237 -0.3651
   11SAPS   H2X 1366   6.261   4.893   6.691 -1.1166 -0.4256  1.2869
   11SAPS   H2Y 1367   6.393   4.772   6.654 -0.2456  1.9282 -0.4040
   11SAPS   C23 1368   5.871   5.121   6.635  0.4402 -0.1207  0.3540
   11SAPS   H3R 1369   5.816   5.203   6.686  0.3291  0.5298 -0.7906
   11SAPS   H3S 1370   5.963   5.164   6.589 -0.3641 -0.0062 -1.1963
   11SAPS   C24 1371   5.915   5.019   6.742 -0.7609  0.0560  0.3213
   11SAPS   H4R 1372   5.966   5.075   6.823  0.8001  3.4386 -2.6979
   11SAPS   H4S 1373   5.996   4.955   6.699 -1.4456  0.1147 -1.1257
   11SAPS   C25 1374   5.802   4.937   6.797  0.6691 -0.5894  0.9830
   11SAPS   H5R 1375   5.760   4.865   6.726 -3.4565  1.0463  1.5091
   11SAPS   C26 1376   5.756   4.933   6.922 -0.2801 -0.0233 -0.4786
   11SAPS   H6R 1377   5.673   4.868   6.952  1.5610 -2.0392  0.5091
   11SAPS   C27 1378   5.808   5.017   7.037  0.1974  0.7272 -0.1324
   11SAPS   H7R 1379   5.918   5.005   7.037  0.2407  0.5420  2.4333
   11SAPS   H7S 1380   5.778   4.975   7.136  2.9939 -0.0448  0.4901
   11SAPS   C28 1381   5.789   5.172   7.036  0.0302 -0.1972 -0.5644
   11SAPS   H8R 1382   5.787   5.222   6.938 -0.0371 -0.0913 -0.5090
   11SAPS   C29 1383   5.763   5.251   7.147  0.6595  0.3398  0.3718
   11SAPS   H9R 1384   5.744   5.357   7.125  0.8663 -0.0183 -1.6995
   11SAPS  C210 1385   5.752   5.204   7.289 -0.3826  0.0404 -0.2493
   11SAPS  H10R 1386   5.667   5.136   7.312  1.2797 -2.0123  0.1286
   11SAPS  H10S 1387   5.726   5.295   7.347  0.1935 -0.0570  0.1604
   11SAPS  C211 1388   5.869   5.128   7.345 -0.2897 -0.0794 -0.0909
   11SAPS  H11R 1389   5.935   5.081   7.271  1.2739  0.4291  0.9410
   11SAPS  C212 1390   5.875   5.103   7.481 -0.8954 -0.6338  0.5799
   11SAPS  H12R 1391   5.954   5.039   7.523  1.5460  2.3939  0.9392
   11SAPS  C213 1392   5.777   5.147   7.583  0.9148 -0.2211  0.3124
   11SAPS  H13R 1393   5.719   5.055   7.605  0.6231 -0.2167 -0.3876
   11SAPS  H13S 1394   5.698   5.217   7.547  0.3493 -0.9138  0.1781
   11SAPS  C214 1395   5.840   5.210   7.708 -0.0984 -0.4309 -0.3390
   11SAPS  H14R 1396   5.950   5.203   7.711 -0.0124  0.3283 -1.2841
   11SAPS  C215 1397   5.776   5.284   7.804 -0.1971  0.1950 -0.4859
   11SAPS  H15R 1398   5.838   5.336   7.878 -1.6165  0.5248  0.5113
   11SAPS  C216 1399   5.630   5.322   7.808 -0.2733 -0.0499 -0.0110
   11SAPS  H16R 1400   5.575   5.289   7.718  0.8666 -2.1901  0.0229
   11SAPS  H16S 1401   5.643   5.432   7.796  2.4762 -0.4394 -1.4461
   11SAPS  C217 1402   5.567   5.276   7.949  0.2336 -0.2110  0.9508
   11SAPS  H17R 1403   5.616   5.338   8.027  1.3316 -0.1441  0.2214
   11SAPS  H17S 1404   5.587   5.167   7.959 -0.5760 -0.6507 -1.5709
   11SAPS  C218 1405   5.413   5.279   7.936 -0.5967  0.8419  0.1469
   11SAPS  H18R 1406   5.389   5.212   7.851 -0.3800 -0.1862  0.8848
   11SAPS  H18S 1407   5.395   5.386   7.912  0.4177  1.1500  0.6858
   11SAPS  C219 1408   5.343   5.250   8.068 -0.5022  0.6589 -0.1405
   11SAPS  H19R 1409   5.373   5.323   8.146 -0.4163  0.5202 -0.0428
   11SAPS  H19S 1410   5.372   5.146   8.091 -0.2338  1.3091  2.7915
   11SAPS  C220 1411   5.191   5.259   8.055  0.6656 -0.0296 -0.0744
   11SAPS  H20R 1412   5.148   5.230   8.154 -1.3889  2.6827 -0.0475
   11SAPS  H20S 1413   5.159   5.188   7.976 -0.6143  0.1919  0.2092
   11SAPS  H20T 1414   5.154   5.358   8.023 -1.4680 -0.6170  0.3650
   11SAPS   C33 1415   6.223   4.700   6.764 -0.1985 -0.5198 -0.0561
   11SAPS   H3X 1416   6.278   4.606   6.747 -0.8009 -0.7217 -0.9898
   11SAPS   H3Y 1417   6.116   4.689   6.736 -0.5751  0.6840  0.8133
   11SAPS   C34 1418   6.240   4.741   6.908  0.5585 -0.5013 -0.2659
   11SAPS   H4X 1419   6.349   4.755   6.920  1.3206 -3.5011 -2.4439
   11SAPS   H4Y 1420   6.203   4.657   6.971 -0.4408 -1.0816 -1.5454
   11SAPS   C35 1421   6.161   4.865   6.957 -0.2916  0.9008 -0.1031
   11SAPS   H5X 1422   6.051   4.850   6.946 -0.6671  0.2045  3.4730
   11SAPS   H5Y 1423   6.188   4.954   6.897  1.9065 -1.2016 -2.4973
   11SAPS   C36 1424   6.187   4.906   7.103 -0.4253 -0.0431 -0.0386
   11SAPS   H6X 1425   6.169   5.015   7.114 -0.7545 -0.1460  0.4730
   11SAPS   H6Y 1426   6.295   4.892   7.124  0.3758  0.0968 -3.5099
   11SAPS   C37 1427   6.107   4.827   7.205 -0.4486  0.1697  0.3112
   11SAPS   H7X 1428   6.093   4.721   7.174  0.6568 -0.4209  1.7027
   11SAPS   H7Y 1429   6.007   4.874   7.207 -0.0784  1.1432 -1.4362
   11SAPS   C38 1430   6.180   4.814   7.346  0.7393  0.7264  0.5844
   11SAPS   H8X 1431   6.183   4.919   7.381 -2.0226  1.3203 -0.6707
   11SAPS   H8Y 1432   6.282   4.771   7.334  1.2782  2.0925  0.1444
   11SAPS   C39 1433   6.088   4.749   7.454  0.6296 -0.0253  0.2413
   11SAPS   H9X 1434   6.059   4.644   7.434  0.6943  0.3998 -2.3329
   11SAPS   H9Y 1435   5.992   4.802   7.435  0.1708 -1.0941 -0.5276
   11SAPS  C310 1436   6.141   4.787   7.593  0.2318  0.3758  0.0088
   11SAPS  H10X 1437   6.169   4.894   7.584 -0.0779  0.3657 -1.1218
   11SAPS  H10Y 1438   6.236   4.733   7.615 -0.8571 -0.4699  3.2463
   11SAPS  C311 1439   6.046   4.743   7.710  0.1561  0.5437 -0.3920
   11SAPS  H11X 1440   6.097   4.788   7.798 -1.2138  0.7912  0.3004
   11SAPS  H11Y 1441   6.048   4.633   7.721  2.0949  0.7002  1.9656
   11SAPS  C312 1442   5.911   4.809   7.704 -0.6670 -0.3041  1.0945
   11SAPS  H12X 1443   5.867   4.774   7.608  0.7232 -0.4850  0.5012
   11SAPS  H12Y 1444   5.922   4.919   7.696 -0.4916 -0.1814  2.6864
   11SAPS  C313 1445   5.823   4.758   7.816 -0.1968  0.3248  0.2496
   11SAPS  H13X 1446   5.803   4.648   7.813  1.8673 -0.1375  1.5401
   11SAPS  H13Y 1447   5.723   4.806   7.821 -0.5787 -0.5481  2.2043
   11SAPS  C314 1448   5.867   4.770   7.960 -0.3076 -0.5202  0.2883
   11SAPS  H14X 1449   5.966   4.725   7.981  1.1845  1.3281 -2.2580
   11SAPS  H14Y 1450   5.790   4.726   8.027 -1.2319 -1.5797 -1.4188
   11SAPS  C315 1451   5.893   4.914   8.011  0.1241 -0.1350  0.4701
   11SAPS  H15X 1452   5.810   4.975   7.970  0.1983  0.0813  0.6375
   11SAPS  H15Y 1453   5.988   4.953   7.968 -0.3161 -1.4338 -1.8289
   11SAPS  C316 1454   5.898   4.934   8.168 -0.6990 -0.7780  0.6357
   11SAPS  H16X 1455   5.936   5.038   8.173  0.3280 -0.9716 -1.5512
   11SAPS  H16Y 1456   5.958   4.857   8.220  0.1584  1.0540  2.4821
   11SAPS  C317 1457   5.764   4.929   8.239  0.1273  0.4440  0.4400
   11SAPS  H17X 1458   5.782   4.962   8.344  0.8473  0.4650  0.3141
   11SAPS  H17Y 1459   5.735   4.822   8.238  0.3613  0.3868 -0.3558
   11SAPS  C318 1460   5.651   5.005   8.182  0.2797  0.6656  0.4989
   11SAPS  H18X 1461   5.684   5.111   8.180  1.4871  0.3090 -1.0986
   11SAPS  H18Y 1462   5.555   4.989   8.235 -1.2320  2.0832 -1.6084
   11SAPS  H18Z 1463   5.625   4.976   8.078 -2.2491 -0.8345  1.4508
   12SAPS     N 1464   5.913   1.527   5.977  0.5896  0.1898 -0.4833
   12SAPS   HN1 1465   5.923   1.522   5.873  1.3279 -0.6238 -0.3860
   12SAPS   HN2 1466   5.909   1.627   6.006 -0.3955  0.0179  0.0087
   12SAPS   HN3 1467   5.995   1.480   6.019 -0.5616 -0.0696  1.6080
   12SAPS   C12 1468   5.796   1.445   5.997  0.3811  0.0243 -1.3656
   12SAPS  H12A 1469   5.713   1.488   5.943 -1.0616  2.0164  2.1023
   12SAPS   C13 1470   5.804   1.300   5.954  1.0274 -0.0353 -0.3116
   12SAPS  O13A 1471   5.896   1.266   5.883 -0.3400  0.5558  0.0419
   12SAPS  O13B 1472   5.694   1.238   5.953  0.2501  0.9964  0.1386
   12SAPS   C11 1473   5.771   1.457   6.151 -0.2097  0.2672 -0.7815
   12SAPS  H11A 1474   5.853   1.409   6.209 -0.8779  0.5484  0.4118
   12SAPS  H11B 1475   5.678   1.400   6.170 -2.8431  3.3087 -3.4600
   12SAPS     P 1476   5.815   1.656   6.325 -0.4274 -0.2334 -0.2668
   12SAPS   O13 1477   5.965   1.640   6.314  0.6504  0.3154 -0.0074
   12SAPS   O14 1478   5.760   1.792   6.331  0.4240  0.3625 -0.2861
   12SAPS   O12 1479   5.752   1.589   6.197  0.2884  0.3973  1.0701
   12SAPS   O11 1480   5.771   1.585   6.465  0.5653 -0.3208 -0.3144
   12SAPS    C1 1481   5.802   1.453   6.496  0.2179  0.2959  0.1277
   12SAPS    HA 1482   5.747   1.395   6.420  3.6751 -2.6813 -0.4173
   12SAPS    HB 1483   5.906   1.428   6.466 -0.3724  0.3572 -2.1034
   12SAPS    C2 1484   5.783   1.414   6.647 -0.3771  0.3712 -0.1180
   12SAPS    HS 1485   5.814   1.308   6.657 -0.9410  0.1339 -0.8007
   12SAPS   O21 1486   5.649   1.423   6.693 -0.3832  0.2038 -0.2180
   12SAPS   C21 1487   5.566   1.326   6.663  0.0708  0.3112 -0.5978
   12SAPS   O22 1488   5.595   1.220   6.607  0.5562 -0.3043  0.3594
   12SAPS   C22 1489   5.432   1.365   6.738  0.4895  0.4481 -0.3111
   12SAPS   H2R 1490   5.458   1.376   6.845 -0.0646 -0.3901 -0.0837
   12SAPS   H2S 1491   5.402   1.466   6.704 -1.2373 -0.1552 -0.6809
   12SAPS    C3 1492   5.884   1.489   6.741 -0.2210  0.4804 -0.6175
   12SAPS    HX 1493   5.863   1.596   6.723 -0.0703  0.1107 -3.5575
   12SAPS    HY 1494   5.990   1.472   6.714  0.8713  2.8568  1.8000
   12SAPS   O31 1495   5.861   1.439   6.872 -0.2484 -0.1887  0.2092
   12SAPS   C31 1496   5.782   1.513   6.950  0.0041  0.4655 -0.0964
   12SAPS   O32 1497   5.727   1.616   6.911 -0.2837 -0.3373  0.3302
   12SAPS   C32 1498   5.772   1.456   7.094  0.2282  0.1344 -0.1960
   12SAPS   H2X 1499   5.812   1.538   7.157 -0.7921  0.9225 -0.5452
   12SAPS   H2Y 1500   5.839   1.367   7.092 -1.6556 -1.9004  5.7925
   12SAPS   C23 1501   5.325   1.260   6.714  0.1230  0.5133 -0.2940
   12SAPS   H3R 1502   5.341   1.193   6.627 -1.4946  1.1841 -1.1622
   12SAPS   H3S 1503   5.241   1.321   6.673 -0.1226  0.6901  0.4581
   12SAPS   C24 1504   5.281   1.176   6.829 -0.4452  0.5201  0.3335
   12SAPS   H4R 1505   5.205   1.103   6.795 -0.9477  1.1878  0.0050
   12SAPS   H4S 1506   5.232   1.241   6.905  1.2929  2.0550  0.2016
   12SAPS   C25 1507   5.409   1.102   6.888  0.2972  0.7238  0.6426
   12SAPS   H5R 1508   5.485   1.078   6.813  0.0121  1.7337  0.0105
   12SAPS   C26 1509   5.409   1.047   7.012  1.1300  0.2204  0.3067
   12SAPS   H6R 1510   5.495   0.994   7.054  0.4847 -1.3371 -0.2631
   12SAPS   C27 1511   5.294   1.060   7.114 -0.2881  0.0214  0.9259
   12SAPS   H7R 1512   5.286   0.965   7.171  2.4193 -0.4169  0.7174
   12SAPS   H7S 1513   5.197   1.075   7.064 -0.1415 -0.5589  0.4595
   12SAPS   C28 1514   5.313   1.170   7.215  0.2054 -0.2412  0.3641
   12SAPS   H8R 1515   5.267   1.264   7.184  2.4911  0.1840 -2.0937
   12SAPS   C29 1516   5.391   1.169   7.325 -0.0172 -0.1317  0.0526
   12SAPS   H9R 1517   5.391   1.263   7.383  0.4495  0.1955 -0.4608
   12SAPS  C210 1518   5.486   1.055   7.358  0.3168 -0.5698 -0.1246
   12SAPS  H10R 1519   5.535   1.005   7.272  2.2379  0.6554  0.1912
   12SAPS  H10S 1520   5.427   0.976   7.410 -1.8020 -0.0551 -1.6149
   12SAPS  C211 1521   5.596   1.093   7.454  0.1047  1.0930 -0.0331
   12SAPS  H11R 1522   5.677   1.146   7.402  0.6775  0.3990  0.1310
   12SAPS  C212 1523   5.614   1.063   7.585  0.2440 -0.2668  0.2670
   12SAPS  H12R 1524   5.705   1.110   7.624  1.3722 -0.1854 -2.2881
   12SAPS  C213 1525   5.526   0.973   7.672 -0.2446 -0.5197  0.2740
   12SAPS  H13R 1526   5.578   0.875   7.670 -1.4730 -1.2030  0.7632
   12SAPS  H13S 1527   5.425   0.968   7.627 -0.6712  1.1835  0.9520
   12SAPS  C214 1528   5.514   1.033   7.810 -0.2374 -0.7877  0.2199
   12SAPS  H14R 1529   5.490   1.140   7.812 -2.0536 -1.1643  0.1448
   12SAPS  C215 1530   5.536   0.972   7.929 -0.0612  0.1611  0.8956
   12SAPS  H15R 1531   5.542   1.026   8.025  1.9628  1.1114  0.2937
   12SAPS  C216 1532   5.572   0.824   7.947 -0.0234 -0.2355 -0.0660
   12SAPS  H16R 1533   5.536   0.762   7.863 -1.6172 -2.2074  1.9369
   12SAPS  H16S 1534   5.511   0.770   8.023 -2.5314  0.9645 -1.1256
   12SAPS  C217 1535   5.720   0.776   7.968 -0.5279 -0.4918 -0.0682
   12SAPS  H17R 1536   5.783   0.807   7.882  0.6413  1.2005  1.3305
   12SAPS  H17S 1537   5.733   0.666   7.970 -0.2621 -0.4698 -0.4705
   12SAPS  C218 1538   5.772   0.825   8.094  0.3830 -0.4273 -0.3263
   12SAPS  H18R 1539   5.699   0.811   8.177  1.2485  0.6803  0.6620
   12SAPS  H18S 1540   5.789   0.935   8.096 -1.7223 -0.0544  1.2509
   12SAPS  C219 1541   5.903   0.761   8.150 -0.8697  0.2437 -0.5513
   12SAPS  H19R 1542   5.991   0.762   8.082 -0.7433 -1.7888 -0.4525
   12SAPS  H19S 1543   5.875   0.655   8.164 -1.8330  0.7356  1.8523
   12SAPS  C220 1544   5.949   0.822   8.278 -0.2940 -0.0574 -0.5359
   12SAPS  H20R 1545   5.980   0.929   8.278  3.0719 -0.8785  0.9248
   12SAPS  H20S 1546   6.043   0.773   8.311 -1.5564 -3.1123 -1.1745
   12SAPS  H20T 1547   5.876   0.800   8.359 -0.1475  0.2619 -0.3137
   12SAPS   C33 1548   5.629   1.414   7.114 -0.4613  0.6226 -0.1675
   12SAPS   H3X 1549   5.627   1.339   7.196 -3.8683 -1.4385 -1.9178
   12SAPS   H3Y 1550   5.594   1.368   7.019  0.0574 -0.5841  0.2024
   12SAPS   C34 1551   5.549   1.531   7.158  0.3485  0.3985 -0.2835
   12SAPS   H4X 1552   5.455   1.484   7.195  1.5277 -1.2742  0.7091
   12SAPS   H4Y 1553   5.528   1.610   7.083 -2.0067  1.5562  1.4293
   12SAPS   C35 1554   5.593   1.599   7.284 -0.2362 -0.2060 -0.4489
   12SAPS   H5X 1555   5.529   1.690   7.292  1.9126  1.3909 -0.6481
   12SAPS   H5Y 1556   5.692   1.646   7.269 -1.2129  1.1879 -3.2336
   12SAPS   C36 1557   5.574   1.522   7.410 -0.1032 -0.4724 -0.1952
   12SAPS   H6X 1558   5.629   1.425   7.413 -2.5294 -1.9456  2.1044
   12SAPS   H6Y 1559   5.471   1.487   7.433 -0.0388  0.7229  2.2779
   12SAPS   C37 1560   5.620   1.607   7.527  0.4823  0.2562 -0.5180
   12SAPS   H7X 1561   5.549   1.690   7.551 -0.2546 -0.3622 -0.5003
   12SAPS   H7Y 1562   5.717   1.657   7.509  1.4339 -0.9507  0.9979
   12SAPS   C38 1563   5.631   1.510   7.656  0.3767 -0.4102  0.0576
   12SAPS   H8X 1564   5.710   1.436   7.629 -0.1797 -0.7319 -0.7232
   12SAPS   H8Y 1565   5.537   1.456   7.680  2.1630 -3.5990  0.5778
   12SAPS   C39 1566   5.685   1.576   7.783 -0.0485  0.0461  0.6425
   12SAPS   H9X 1567   5.778   1.632   7.761 -0.7120  1.3625  1.0410
   12SAPS   H9Y 1568   5.726   1.507   7.860  0.4451 -0.7429 -0.3092
   12SAPS  C310 1569   5.578   1.669   7.836 -0.3828  0.3192 -0.2468
   12SAPS  H10X 1570   5.485   1.608   7.836 -1.1072  1.3877  0.4558
   12SAPS  H10Y 1571   5.557   1.759   7.774 -0.8713  1.1962  1.1385
   12SAPS  C311 1572   5.605   1.727   7.981  0.0341 -0.4497  0.9887
   12SAPS  H11X 1573   5.532   1.810   7.990  2.9587  2.5145 -0.3731
   12SAPS  H11Y 1574   5.705   1.773   7.967  0.6793 -2.2976 -1.1302
   12SAPS  C312 1575   5.591   1.634   8.096  0.6181  0.0241 -0.3285
   12SAPS  H12X 1576   5.647   1.678   8.181  0.5754 -0.0757 -0.2468
   12SAPS  H12Y 1577   5.646   1.541   8.070  0.5987  0.1004 -0.6434
   12SAPS  C313 1578   5.442   1.615   8.146 -0.1048  0.0549  0.5802
   12SAPS  H13X 1579   5.418   1.699   8.216  1.7608  0.6560  0.5521
   12SAPS  H13Y 1580   5.439   1.522   8.206  1.1549  0.0943  0.7234
   12SAPS  C314 1581   5.330   1.616   8.045 -0.5215  0.1888  0.0532
   12SAPS  H14X 1582   5.346   1.538   7.967  1.0287 -0.4982  1.0092
   12SAPS  H14Y 1583   5.311   1.709   7.987 -2.0139 -0.8370 -1.1850
   12SAPS  C315 1584   5.188   1.594   8.096  0.1884 -0.0207 -0.1627
   12SAPS  H15X 1585   5.197   1.505   8.161  1.0902  0.0574 -0.1698
   12SAPS  H15Y 1586   5.130   1.566   8.005  1.2902  1.3410 -1.3373
   12SAPS  C316 1587   5.118   1.722   8.149  0.1338 -0.7052 -0.0897
   12SAPS  H16X 1588   5.124   1.809   8.080 -3.3827  0.0023  0.3080
   12SAPS  H16Y 1589   5.163   1.758   8.244  1.3693 -3.6243  0.5149
   12SAPS  C317 1590   4.967   1.703   8.178 -0.0179 -0.0950  0.5247
   12SAPS  H17X 1591   4.915   1.798   8.204 -0.3539 -0.3456  0.7754
   12SAPS  H17Y 1592   4.957   1.635   8.266 -1.1170  0.1502  0.6019
   12SAPS  C318 1593   4.894   1.639   8.060 -0.0599  0.0314  0.7912
   12SAPS  H18X 1594   4.789   1.675   8.062  0.4906  1.8611  3.9499
   12SAPS  H18Y 1595   4.910   1.529   8.069 -1.6452 -0.6014 -2.6593
   12SAPS  H18Z 1596   4.931   1.669   7.960 -1.1407 -0.1452  0.3232
   13SAPS     N 1597   0.747   5.581   6.171 -0.4172  0.4190 -0.3369
   13SAPS   HN1 1598   0.796   5.669   6.197  0.4099 -0.0843 -0.1151
   13SAPS   HN2 1599   0.734   5.531   6.262 -0.0920  0.6918 -0.1375
   13SAPS   HN3 1600   0.812   5.533   6.105 -0.4910  0.2221 -0.2682
   13SAPS   C12 1601   0.620   5.589   6.101 -0.1179 -0.0248  0.4039
   13SAPS  H12A 1602   0.548   5.631   6.170 -1.2182  0.7187 -1.1372
   13SAPS   C13 1603   0.617   5.685   5.986 -0.1436  0.2092 -0.1004
   13SAPS  O13A 1604   0.727   5.739   5.961 -0.2914  0.4557 -0.6470
   13SAPS  O13B 1605   0.531   5.679   5.897  0.2494 -0.1448  0.5879
   13SAPS   C11 1606   0.580   5.441   6.060  0.7484  0.0295 -0.1292
   13SAPS  H11A 1607   0.637   5.416   5.968  0.4163 -0.7472 -0.1285
   13SAPS  H11B 1608   0.472   5.437   6.033  0.6311  2.2605 -0.2334
   13SAPS     P 1609   0.659   5.205   6.145 -0.2215  0.5182  0.1142
   13SAPS   O13 1610   0.565   5.134   6.052  0.3940 -0.1852 -0.2685
   13SAPS   O14 1611   0.803   5.214   6.101  0.2311  0.1819 -0.5951
   13SAPS   O12 1612   0.605   5.354   6.167  0.0123 -0.5293  0.5548
   13SAPS   O11 1613   0.646   5.150   6.292  0.6229 -0.1099 -0.0927
   13SAPS    C1 1614   0.526   5.151   6.373 -0.4869 -0.6035 -0.3051
   13SAPS    HA 1615   0.432   5.132   6.318 -1.3889  1.0702  0.5918
   13SAPS    HB 1616   0.535   5.076   6.455 -1.6913 -0.4287  0.0007
   13SAPS    C2 1617   0.512   5.278   6.450  0.3715 -0.1741 -0.0691
   13SAPS    HS 1618   0.514   5.358   6.374 -0.1711  0.0313  0.1282
   13SAPS   O21 1619   0.623   5.282   6.539 -0.6289 -0.0432 -0.7389
   13SAPS   C21 1620   0.707   5.380   6.520 -0.8977 -0.1430 -0.5947
   13SAPS   O22 1621   0.702   5.468   6.440 -0.1637 -0.2784 -0.7640
   13SAPS   C22 1622   0.827   5.361   6.617  0.0424  0.1008  0.1391
   13SAPS   H2R 1623   0.892   5.280   6.577 -1.2228 -0.8517 -0.0255
   13SAPS   H2S 1624   0.886   5.454   6.629 -0.0500 -0.1902  5.5459
   13SAPS    C3 1625   0.370   5.293   6.517 -0.1941  0.0920  1.2109
   13SAPS    HX 1626   0.377   5.221   6.602  3.4512 -1.3191 -0.0738
   13SAPS    HY 1627   0.291   5.268   6.444 -0.2582 -0.9198  1.6032
   13SAPS   O31 1628   0.358   5.428   6.561  0.9606  0.2957 -0.6659
   13SAPS   C31 1629   0.260   5.436   6.654 -0.2627 -0.1983 -0.2147
   13SAPS   O32 1630   0.193   5.342   6.691 -0.1818  0.3346  0.1957
   13SAPS   C32 1631   0.274   5.573   6.711 -0.1286 -0.4039  0.9265
   13SAPS   H2X 1632   0.253   5.648   6.631  3.1222 -0.8075 -0.4651
   13SAPS   H2Y 1633   0.383   5.592   6.722  0.1192  0.6404 -2.2425
   13SAPS   C23 1634   0.779   5.320   6.763 -0.4827 -0.1987  0.8407
   13SAPS   H3R 1635   0.708   5.237   6.745  0.9169 -1.1091 -0.8224
   13SAPS   H3S 1636   0.732   5.406   6.817  1.3246  0.0288  2.1429
   13SAPS   C24 1637   0.896   5.270   6.855  0.2483  0.0639 -0.3447
   13SAPS   H4R 1638   0.958   5.193   6.805  1.1118  1.1901 -1.0729
   13SAPS   H4S 1639   0.835   5.237   6.941 -3.1485  0.2145 -2.5172
   13SAPS   C25 1640   0.998   5.369   6.903 -0.3505 -0.2547  0.4964
   13SAPS   H5R 1641   1.050   5.429   6.826  0.2777 -0.4390  0.7679
   13SAPS   C26 1642   1.040   5.402   7.031 -0.2675  0.2836  0.5536
   13SAPS   H6R 1643   1.112   5.483   7.042 -1.1021  0.7921  2.8763
   13SAPS   C27 1644   0.990   5.332   7.157 -0.1380  0.0846  0.3343
   13SAPS   H7R 1645   0.947   5.231   7.138  1.0834 -0.1339 -1.4486
   13SAPS   H7S 1646   0.902   5.390   7.192  0.3004  0.9507  0.0139
   13SAPS   C28 1647   1.087   5.338   7.272 -0.2450  0.0042  1.0406
   13SAPS   H8R 1648   1.183   5.384   7.244 -0.5318  0.4245  0.7198
   13SAPS   C29 1649   1.069   5.306   7.400 -0.1716 -1.0061  0.6022
   13SAPS   H9R 1650   1.156   5.329   7.463  1.9940 -1.5689 -2.0516
   13SAPS  C210 1651   0.944   5.239   7.459 -0.8678 -0.3448  0.3395
   13SAPS  H10R 1652   0.856   5.257   7.393 -0.6126 -2.4605 -0.6698
   13SAPS  H10S 1653   0.924   5.297   7.551 -0.8253 -1.0115  0.7784
   13SAPS  C211 1654   0.967   5.093   7.487  0.6113 -0.5620  0.3644
   13SAPS  H11R 1655   0.981   5.045   7.389 -0.9086 -0.4486  0.0716
   13SAPS  C212 1656   0.966   5.020   7.604 -0.3572  0.2366 -0.3383
   13SAPS  H12R 1657   0.994   4.915   7.587 -1.0577  0.1364 -0.9043
   13SAPS  C213 1658   0.941   5.063   7.751 -0.3391 -0.5284  0.3364
   13SAPS  H13R 1659   0.986   4.976   7.804 -0.3825 -0.8074 -0.0823
   13SAPS  H13S 1660   0.833   5.069   7.776 -0.3468  1.6051  0.0393
   13SAPS  C214 1661   1.025   5.174   7.806 -0.1628 -0.4205  0.0403
   13SAPS  H14R 1662   1.054   5.249   7.730  1.3906  1.5866  2.4236
   13SAPS  C215 1663   1.046   5.206   7.933 -0.3336  1.0685 -1.4121
   13SAPS  H15R 1664   1.114   5.290   7.955  2.9666 -2.0041  1.5895
   13SAPS  C216 1665   1.012   5.113   8.052  0.3143 -0.5700  0.2420
   13SAPS  H16R 1666   1.070   5.020   8.067  0.5364 -0.2518  1.4397
   13SAPS  H16S 1667   0.909   5.076   8.035 -0.9158  2.4049  0.4899
   13SAPS  C217 1668   1.023   5.191   8.181  0.4076 -0.0544  0.1632
   13SAPS  H17R 1669   0.965   5.285   8.180  2.1198  1.0677  1.6398
   13SAPS  H17S 1670   1.131   5.216   8.192  0.0746  1.7076 -0.3464
   13SAPS  C218 1671   0.967   5.114   8.301 -0.5416  0.1255 -0.5145
   13SAPS  H18R 1672   1.010   5.013   8.282 -0.5904  0.1417 -0.7077
   13SAPS  H18S 1673   0.856   5.103   8.306 -0.5475  0.4140  0.1028
   13SAPS  C219 1674   1.020   5.169   8.429 -0.0961 -0.5862  0.4789
   13SAPS  H19R 1675   1.131   5.161   8.426  0.0654  0.1970  2.5012
   13SAPS  H19S 1676   0.984   5.109   8.515  0.7333 -1.8901 -0.0523
   13SAPS  C220 1677   0.991   5.318   8.453 -0.8073  0.4534  0.1799
   13SAPS  H20R 1678   1.025   5.358   8.551 -0.1167  0.9767 -0.2630
   13SAPS  H20S 1679   0.882   5.334   8.439 -0.8046 -0.2719 -0.7408
   13SAPS  H20T 1680   1.059   5.373   8.385 -0.4843 -0.7725 -0.5255
   13SAPS   C33 1681   0.205   5.602   6.842 -0.2293  0.6213 -0.0186
   13SAPS   H3X 1682   0.241   5.534   6.922 -0.8558  0.9926  0.5982
   13SAPS   H3Y 1683   0.100   5.570   6.826  0.1464 -2.5999  2.8191
   13SAPS   C34 1684   0.191   5.742   6.902  0.2301 -0.0749  0.5555
   13SAPS   H4X 1685   0.281   5.802   6.880 -1.1019  1.4234 -1.1546
   13SAPS   H4Y 1686   0.173   5.726   7.010 -0.8828 -2.1737  0.1220
   13SAPS   C35 1687   0.079   5.820   6.829  0.0509  0.1390  0.3455
   13SAPS   H5X 1688  -0.010   5.754   6.837  0.6240 -0.6133  0.7013
   13SAPS   H5Y 1689   0.109   5.840   6.724 -0.1038  0.8828  0.4397
   13SAPS   C36 1690   0.052   5.966   6.887  0.9573  0.1335 -0.0173
   13SAPS   H6X 1691  -0.026   6.015   6.824  0.9766  0.0224 -0.1291
   13SAPS   H6Y 1692   0.144   6.025   6.870  1.6404 -0.5508  1.2406
   13SAPS   C37 1693   0.015   5.961   7.035  0.3930 -0.2198  0.8266
   13SAPS   H7X 1694   0.094   5.954   7.112  0.6313 -1.1425  0.5166
   13SAPS   H7Y 1695  -0.046   5.870   7.054 -2.7167  2.0819  3.1590
   13SAPS   C38 1696  -0.072   6.081   7.070  0.1766  0.1814 -0.2471
   13SAPS   H8X 1697  -0.169   6.077   7.017 -0.7579 -0.2952  1.4255
   13SAPS   H8Y 1698  -0.026   6.175   7.033  0.6789  1.3130  2.9639
   13SAPS   C39 1699  -0.094   6.087   7.229 -0.1426 -0.3389 -0.7543
   13SAPS   H9X 1700  -0.005   6.116   7.287  0.0787  1.6293 -1.9829
   13SAPS   H9Y 1701  -0.122   5.987   7.269 -1.7050  0.2991 -0.1450
   13SAPS  C310 1702  -0.206   6.187   7.275  0.2369 -0.0460  0.1132
   13SAPS  H10X 1703  -0.304   6.166   7.226 -0.3843 -0.6611  1.5656
   13SAPS  H10Y 1704  -0.174   6.287   7.241  0.9074 -0.1799  0.3395
   13SAPS  C311 1705  -0.220   6.167   7.423  0.0191 -0.3589  0.5102
   13SAPS  H11X 1706  -0.120   6.182   7.470 -0.3947  0.4903  1.1559
   13SAPS  H11Y 1707  -0.253   6.064   7.448  0.7728 -0.7119  0.0695
   13SAPS  C312 1708  -0.323   6.267   7.472  0.0851  0.1491  0.4410
   13SAPS  H12X 1709  -0.417   6.244   7.419 -0.3046  1.1703  0.6754
   13SAPS  H12Y 1710  -0.292   6.368   7.439 -1.7383  0.5880 -0.0295
   13SAPS  C313 1711  -0.364   6.245   7.627 -0.1028  0.2892  1.2300
   13SAPS  H13X 1712  -0.379   6.135   7.639  0.9781  0.0859  0.8958
   13SAPS  H13Y 1713  -0.461   6.297   7.638 -0.8634 -0.6555 -0.5575
   13SAPS  C314 1714  -0.267   6.301   7.730  0.3731 -0.2746  0.0533
   13SAPS  H14X 1715  -0.287   6.410   7.736  0.3222 -0.3111  0.5798
   13SAPS  H14Y 1716  -0.157   6.287   7.718  0.3743 -0.0575 -0.2021
   13SAPS  C315 1717  -0.308   6.246   7.872  0.0879  0.4869  0.2197
   13SAPS  H15X 1718  -0.321   6.136   7.866 -1.3913  0.6269  0.3441
   13SAPS  H15Y 1719  -0.404   6.297   7.897 -0.3554 -0.7216  1.0685
   13SAPS  C316 1720  -0.204   6.281   7.980 -0.3198 -0.2813 -0.0192
   13SAPS  H16X 1721  -0.193   6.391   7.993 -1.0096  0.0503 -1.9062
   13SAPS  H16Y 1722  -0.105   6.243   7.947  0.3359  0.2310  1.2525
   13SAPS  C317 1723  -0.252   6.218   8.110  0.3157 -0.8297 -0.4414
   13SAPS  H17X 1724  -0.356   6.247   8.138  0.5316 -0.5263  0.0650
   13SAPS  H17Y 1725  -0.185   6.254   8.191 -2.7257  0.9653  1.4640
   13SAPS  C318 1726  -0.226   6.072   8.124  0.1254  0.1858 -0.1255
   13SAPS  H18X 1727  -0.119   6.055   8.101  1.3337  2.1455  3.2600
   13SAPS  H18Y 1728  -0.292   6.006   8.064 -0.4034  1.1602 -0.6516
   13SAPS  H18Z 1729  -0.241   6.039   8.229 -0.7323  0.0648 -0.2772
   14SAPS     N 1730   5.663   5.063   5.769  0.1209 -0.1631 -0.0930
   14SAPS   HN1 1731   5.656   4.977   5.710 -1.1925  1.8864 -3.1943
   14SAPS   HN2 1732   5.747   5.053   5.830  0.0952  0.4981  0.0601
   14SAPS   HN3 1733   5.573   5.068   5.821  0.3829 -0.4959  0.3998
   14SAPS   C12 1734   5.670   5.181   5.673  0.5087 -0.1913 -0.2124
   14SAPS  H12A 1735   5.743   5.147   5.601  0.0729 -1.6994  0.0169
   14SAPS   C13 1736   5.538   5.203   5.592 -0.1327  1.0969 -0.5573
   14SAPS  O13A 1737   5.445   5.117   5.616 -0.2169  0.0899 -0.2737
   14SAPS  O13B 1738   5.542   5.261   5.479 -0.5133  0.7422 -0.3158
   14SAPS   C11 1739   5.691   5.311   5.743  0.3959 -0.1187 -0.4626
   14SAPS  H11A 1740   5.617   5.330   5.823  0.7837  2.2810 -0.6105
   14SAPS  H11B 1741   5.690   5.393   5.669 -1.9491  0.4334  0.1155
   14SAPS     P 1742   5.883   5.440   5.855 -0.1854 -0.0222  0.1203
   14SAPS   O13 1743   6.022   5.449   5.798  0.3561  0.1452  0.0089
   14SAPS   O14 1744   5.792   5.552   5.831  0.4252  0.6862 -0.7663
   14SAPS   O12 1745   5.823   5.298   5.812 -0.6514  0.0751 -0.2669
   14SAPS   O11 1746   5.886   5.434   6.015  0.0224  0.2680 -0.8087
   14SAPS    C1 1747   5.847   5.319   6.089 -0.6364 -0.5092 -0.2208
   14SAPS    HA 1748   5.741   5.289   6.076 -0.3395 -1.0334 -1.6288
   14SAPS    HB 1749   5.907   5.232   6.055  0.2511  0.8767 -2.4464
   14SAPS    C2 1750   5.871   5.331   6.249 -0.1834 -0.1508 -0.0395
   14SAPS    HS 1751   5.816   5.247   6.296 -0.0545  0.0190  0.4165
   14SAPS   O21 1752   5.819   5.456   6.286  0.3356 -0.4090 -0.7571
   14SAPS   C21 1753   5.688   5.467   6.282  0.1005 -0.6598 -0.0564
   14SAPS   O22 1754   5.607   5.378   6.249  0.0145  0.6560 -0.6246
   14SAPS   C22 1755   5.643   5.604   6.327 -0.2320  0.5875 -0.3698
   14SAPS   H2R 1756   5.675   5.682   6.255  2.0596 -0.8688 -1.0304
   14SAPS   H2S 1757   5.536   5.605   6.357  0.1979 -0.4733  1.3469
   14SAPS    C3 1758   6.022   5.334   6.292 -0.2362 -0.0876  0.0071
   14SAPS    HX 1759   6.071   5.415   6.233  0.2315  0.1350  0.6905
   14SAPS    HY 1760   6.061   5.236   6.259  0.3091  0.5917 -1.4857
   14SAPS   O31 1761   6.041   5.339   6.434 -0.5107 -0.5893  0.4240
   14SAPS   C31 1762   6.051   5.468   6.473 -0.3502  0.0908  0.3965
   14SAPS   O32 1763   6.068   5.558   6.402  0.0495 -0.0739 -0.2268
   14SAPS   C32 1764   6.022   5.477   6.625  0.0889 -0.3406  0.2224
   14SAPS   H2X 1765   5.934   5.414   6.651  0.2099 -0.6887 -0.1942
   14SAPS   H2Y 1766   6.001   5.585   6.639 -1.1202 -0.7353  1.6359
   14SAPS   C23 1767   5.723   5.639   6.462 -0.4687 -0.0153  0.4553
   14SAPS   H3R 1768   5.828   5.664   6.437  0.4117 -0.7301  3.0649
   14SAPS   H3S 1769   5.721   5.555   6.535  1.5972 -0.4467  0.0542
   14SAPS   C24 1770   5.660   5.765   6.527  0.1757 -0.7335  0.1375
   14SAPS   H4R 1771   5.555   5.751   6.561 -0.7152 -0.6760 -2.3243
   14SAPS   H4S 1772   5.661   5.839   6.444  0.1799 -1.0964 -0.1910
   14SAPS   C25 1773   5.739   5.814   6.648 -0.5189  0.2987  0.1468
   14SAPS   H5R 1774   5.840   5.857   6.642  0.3168 -1.7299 -1.8254
   14SAPS   C26 1775   5.683   5.829   6.776  0.1675 -0.0408 -0.1880
   14SAPS   H6R 1776   5.742   5.864   6.863 -0.5436 -1.4614  0.8966
   14SAPS   C27 1777   5.539   5.784   6.821 -0.7979  0.3701 -0.0153
   14SAPS   H7R 1778   5.457   5.834   6.765  0.2509  1.1341 -0.9184
   14SAPS   H7S 1779   5.512   5.821   6.923  0.0741  2.3553 -0.4544
   14SAPS   C28 1780   5.531   5.631   6.836 -0.5782  0.4571  0.0381
   14SAPS   H8R 1781   5.483   5.583   6.749  0.0488 -1.6504  0.7886
   14SAPS   C29 1782   5.571   5.557   6.944 -0.2212 -0.3291 -0.1481
   14SAPS   H9R 1783   5.567   5.447   6.936 -0.8000 -0.2786 -0.6493
   14SAPS  C210 1784   5.642   5.619   7.061  0.1938 -0.0113 -0.3039
   14SAPS  H10R 1785   5.617   5.553   7.147 -0.9732  0.7390 -0.0392
   14SAPS  H10S 1786   5.590   5.712   7.093  0.7383 -0.9838  4.0710
   14SAPS  C211 1787   5.787   5.645   7.055  0.1198  0.0683 -0.1666
   14SAPS  H11R 1788   5.828   5.657   6.954 -0.4946 -0.1372 -0.4437
   14SAPS  C212 1789   5.870   5.674   7.151 -0.1923  0.9425  1.1760
   14SAPS  H12R 1790   5.977   5.682   7.126 -0.5179 -1.2068 -1.3435
   14SAPS  C213 1791   5.834   5.667   7.293 -0.1652 -0.2726 -0.2484
   14SAPS  H13R 1792   5.728   5.638   7.310 -0.2064 -0.7567 -1.2406
   14SAPS  H13S 1793   5.847   5.765   7.344 -1.6603 -0.0696 -0.2037
   14SAPS  C214 1794   5.915   5.549   7.350  0.7190 -0.4950  0.0265
   14SAPS  H14R 1795   5.932   5.469   7.276 -1.7302 -0.1301 -1.0119
   14SAPS  C215 1796   5.973   5.541   7.466 -0.1416  1.0371  0.4242
   14SAPS  H15R 1797   6.029   5.449   7.486  2.5627  2.1827 -1.2699
   14SAPS  C216 1798   5.981   5.654   7.574  0.3527 -0.2515  0.0436
   14SAPS  H16R 1799   5.895   5.723   7.558  1.2748  1.1210  0.8366
   14SAPS  H16S 1800   6.062   5.730   7.572  0.5797 -0.3995  1.8974
   14SAPS  C217 1801   5.987   5.583   7.708 -1.0272  0.7444  0.5453
   14SAPS  H17R 1802   6.085   5.530   7.707 -0.5864  1.5315  0.5286
   14SAPS  H17S 1803   5.902   5.512   7.710 -0.8785  0.3718 -2.3127
   14SAPS  C218 1804   5.980   5.670   7.831 -0.0847  0.2929 -0.3397
   14SAPS  H18R 1805   6.018   5.771   7.804  4.0144 -0.7546  0.7783
   14SAPS  H18S 1806   6.053   5.622   7.901  2.5975  1.8344 -1.9072
   14SAPS  C219 1807   5.839   5.683   7.894  0.4911 -0.1126  0.2259
   14SAPS  H19R 1808   5.862   5.767   7.963  0.6053  1.1488 -1.2696
   14SAPS  H19S 1809   5.813   5.582   7.931  0.7330 -0.5556 -0.7957
   14SAPS  C220 1810   5.727   5.728   7.797  0.7658  0.3385  0.1211
   14SAPS  H20R 1811   5.634   5.724   7.858 -0.7847 -0.9812 -2.2116
   14SAPS  H20S 1812   5.708   5.650   7.721  1.1671 -1.3008  1.6515
   14SAPS  H20T 1813   5.756   5.829   7.760  2.3919 -0.3186 -0.4782
   14SAPS   C33 1814   6.132   5.446   6.727 -0.1324 -0.3946 -0.3531
   14SAPS   H3X 1815   6.224   5.498   6.692  0.9467 -1.0517  1.3793
   14SAPS   H3Y 1816   6.163   5.340   6.737  0.7607 -0.0883  0.2972
   14SAPS   C34 1817   6.077   5.495   6.866 -0.4437 -0.2018 -0.1693
   14SAPS   H4X 1818   6.002   5.421   6.900  0.4493 -0.8111  0.5032
   14SAPS   H4Y 1819   6.028   5.593   6.846  2.7629  1.4189 -0.7369
   14SAPS   C35 1820   6.182   5.505   6.980 -0.1893  0.7882 -0.2489
   14SAPS   H5X 1821   6.127   5.552   7.065  0.3404  0.9065  0.0292
   14SAPS   H5Y 1822   6.277   5.554   6.952  0.6876 -1.6167 -1.8769
   14SAPS   C36 1823   6.214   5.374   7.048  0.9303  0.2543 -0.5040
   14SAPS   H6X 1824   6.291   5.314   6.996  1.7496  1.3909 -0.6475
   14SAPS   H6Y 1825   6.120   5.316   7.056 -0.8698  2.9710 -0.5396
   14SAPS   C37 1826   6.272   5.401   7.188 -0.3065 -0.3507 -0.0569
   14SAPS   H7X 1827   6.210   5.478   7.239  0.4122 -0.7592  1.4801
   14SAPS   H7Y 1828   6.376   5.438   7.176 -0.0213 -0.9955  0.3453
   14SAPS   C38 1829   6.257   5.275   7.279  0.1157  0.0159  0.3625
   14SAPS   H8X 1830   6.306   5.181   7.245  0.8855 -0.3961  2.4519
   14SAPS   H8Y 1831   6.148   5.258   7.284  0.0294 -0.6975 -2.2144
   14SAPS   C39 1832   6.316   5.289   7.419 -0.1673  0.1561 -0.3768
   14SAPS   H9X 1833   6.326   5.399   7.434 -2.6538  0.7347 -2.2281
   14SAPS   H9Y 1834   6.422   5.255   7.422 -0.0397  0.6464  1.2777
   14SAPS  C310 1835   6.239   5.242   7.533  0.3753  0.5470  0.0932
   14SAPS  H10X 1836   6.243   5.131   7.537  0.7825  0.4248 -2.1865
   14SAPS  H10Y 1837   6.135   5.273   7.510  0.1335  0.2948  0.8434
   14SAPS  C311 1838   6.290   5.296   7.665  0.4226 -0.1024 -0.7352
   14SAPS  H11X 1839   6.305   5.405   7.661  2.2809  0.1006  4.6427
   14SAPS  H11Y 1840   6.387   5.246   7.684  0.6120 -0.5218 -2.6139
   14SAPS  C312 1841   6.195   5.271   7.785  0.4413 -0.0380  0.3899
   14SAPS  H12X 1842   6.174   5.162   7.786  1.6827 -0.2999  0.2643
   14SAPS  H12Y 1843   6.104   5.332   7.772 -2.1245 -3.8789 -1.5013
   14SAPS  C313 1844   6.265   5.313   7.914  0.6733 -0.2243 -0.0762
   14SAPS  H13X 1845   6.308   5.414   7.902  0.5298 -0.3662 -2.3178
   14SAPS  H13Y 1846   6.348   5.247   7.947 -0.4104 -1.1215  0.9425
   14SAPS  C314 1847   6.188   5.317   8.050  0.2718 -0.0077  0.3339
   14SAPS  H14X 1848   6.258   5.338   8.134 -1.9786  3.1594  1.5982
   14SAPS  H14Y 1849   6.159   5.212   8.076  0.7106  0.3608  2.5665
   14SAPS  C315 1850   6.059   5.401   8.050 -0.7811  0.0836 -0.4965
   14SAPS  H15X 1851   6.012   5.395   7.949 -2.3080 -2.1485  0.2615
   14SAPS  H15Y 1852   6.101   5.503   8.065 -0.1473 -0.0499 -1.2909
   14SAPS  C316 1853   5.955   5.357   8.156 -0.4660  0.1096  0.0520
   14SAPS  H16X 1854   5.960   5.248   8.135  3.5909  0.0400  0.6161
   14SAPS  H16Y 1855   5.854   5.397   8.132 -1.3943 -2.7430 -1.1907
   14SAPS  C317 1856   5.969   5.389   8.311  0.8786 -0.4081  0.0130
   14SAPS  H17X 1857   5.887   5.335   8.362  0.4503  0.4403  0.2365
   14SAPS  H17Y 1858   5.950   5.498   8.320  0.3695 -0.1626 -2.8760
   14SAPS  C318 1859   6.099   5.351   8.379  0.1131  0.1970  0.3299
   14SAPS  H18X 1860   6.121   5.243   8.369  0.7876  0.4079 -0.5677
   14SAPS  H18Y 1861   6.104   5.371   8.488  1.0697 -2.5214  0.8556
   14SAPS  H18Z 1862   6.182   5.392   8.318 -0.6109 -0.3168 -1.0410
   15SAPS     N 1863   6.715   6.171   6.083 -0.2961 -0.1903 -0.2176
   15SAPS   HN1 1864   6.640   6.181   6.155  1.2764  0.2994  1.4276
   15SAPS   HN2 1865   6.694   6.087   6.026  2.5910 -0.2040 -1.4483
   15SAPS   HN3 1866   6.807   6.162   6.130 -1.3510 -3.0757  1.5536
   15SAPS   C12 1867   6.715   6.284   5.984 -1.1435  0.0488  0.2149
   15SAPS  H12A 1868   6.795   6.272   5.913 -2.6633 -1.6672 -1.3116
   15SAPS   C13 1869   6.586   6.305   5.899  0.1221 -0.6591 -0.3517
   15SAPS  O13A 1870   6.504   6.209   5.903 -1.2755 -0.1446 -0.2380
   15SAPS  O13B 1871   6.587   6.392   5.805 -0.0365 -0.4755 -0.7354
   15SAPS   C11 1872   6.740   6.405   6.073  0.5148 -0.3493  0.1460
   15SAPS  H11A 1873   6.654   6.417   6.142 -1.0462 -0.4329 -1.7263
   15SAPS  H11B 1874   6.736   6.494   6.006  1.0099 -1.0888 -0.8976
   15SAPS     P 1875   6.903   6.510   6.252 -0.1900  0.3299 -0.2417
   15SAPS   O13 1876   7.053   6.510   6.268  0.1231  0.4488 -0.0391
   15SAPS   O14 1877   6.842   6.642   6.226  0.1722  0.0788  0.4378
   15SAPS   O12 1878   6.867   6.400   6.141 -1.0174 -0.5252  0.0004
   15SAPS   O11 1879   6.838   6.443   6.385 -0.0383 -0.0016  0.5399
   15SAPS    C1 1880   6.902   6.315   6.417  0.8481  0.2655  0.2763
   15SAPS    HA 1881   6.827   6.237   6.389  0.4498  1.3702 -2.0004
   15SAPS    HB 1882   6.999   6.296   6.367  0.7021  2.5309 -0.9948
   15SAPS    C2 1883   6.917   6.311   6.571 -0.4091 -0.0377  0.8989
   15SAPS    HS 1884   6.937   6.204   6.597  1.3773 -0.3838 -1.5699
   15SAPS   O21 1885   6.802   6.361   6.635  1.2320 -0.1766  0.0430
   15SAPS   C21 1886   6.706   6.273   6.672 -0.6288  0.2161  0.2499
   15SAPS   O22 1887   6.710   6.151   6.637  0.5321 -0.1681  0.1086
   15SAPS   C22 1888   6.589   6.350   6.734  0.0621  0.3695  0.5224
   15SAPS   H2R 1889   6.626   6.451   6.760 -0.2574  0.4507  0.6651
   15SAPS   H2S 1890   6.509   6.372   6.661  0.0209  2.7130  1.1753
   15SAPS    C3 1891   7.044   6.396   6.605  0.4878  0.5347 -0.8520
   15SAPS    HX 1892   7.026   6.505   6.590 -0.1767  0.1901 -2.8553
   15SAPS    HY 1893   7.124   6.381   6.530  1.8967  1.9510  0.2978
   15SAPS   O31 1894   7.091   6.368   6.741 -0.1805 -0.5629 -0.2925
   15SAPS   C31 1895   7.171   6.268   6.766 -0.5756  0.1576  0.3135
   15SAPS   O32 1896   7.212   6.190   6.681 -0.1167  0.2101 -0.6735
   15SAPS   C32 1897   7.202   6.253   6.911  0.0569 -0.3550  0.4580
   15SAPS   H2X 1898   7.121   6.189   6.950 -1.0182  1.0159  0.5437
   15SAPS   H2Y 1899   7.178   6.345   6.969 -0.2492  0.0977 -0.3780
   15SAPS   C23 1900   6.521   6.291   6.864 -0.1760 -0.1034  0.3608
   15SAPS   H3R 1901   6.597   6.254   6.936 -0.6513 -1.4927  0.1795
   15SAPS   H3S 1902   6.462   6.204   6.826 -0.4203  0.5596 -0.8395
   15SAPS   C24 1903   6.442   6.402   6.924  0.4644  0.2122  0.2442
   15SAPS   H4R 1904   6.380   6.457   6.850  1.0496  1.3553  0.5794
   15SAPS   H4S 1905   6.513   6.476   6.966 -0.6520  1.6740 -0.3642
   15SAPS   C25 1906   6.343   6.364   7.031 -0.0698 -0.3920  1.1912
   15SAPS   H5R 1907   6.368   6.279   7.096  0.8871  0.5222  2.0598
   15SAPS   C26 1908   6.234   6.439   7.064 -0.3596  0.1238 -0.3863
   15SAPS   H6R 1909   6.165   6.404   7.143  1.3950 -0.6019  0.8810
   15SAPS   C27 1910   6.209   6.568   6.993  0.0755  0.3429 -0.5359
   15SAPS   H7R 1911   6.161   6.548   6.895 -0.7147  3.1145 -0.8054
   15SAPS   H7S 1912   6.303   6.625   6.984  0.4887 -0.3392 -0.6161
   15SAPS   C28 1913   6.095   6.652   7.058 -0.2620 -0.1084 -0.5897
   15SAPS   H8R 1914   6.023   6.696   6.987 -1.2368  0.1389  0.5345
   15SAPS   C29 1915   6.082   6.698   7.181 -0.5568  0.2869 -0.0599
   15SAPS   H9R 1916   5.985   6.745   7.205 -1.2642  0.2256 -2.4995
   15SAPS  C210 1917   6.172   6.678   7.301  0.2793  0.9293  0.3133
   15SAPS  H10R 1918   6.193   6.775   7.350 -0.1580  0.9964  0.3735
   15SAPS  H10S 1919   6.272   6.663   7.254  0.1152  2.4965 -0.6011
   15SAPS  C211 1920   6.138   6.564   7.393 -0.1015 -0.0843 -0.2730
   15SAPS  H11R 1921   6.060   6.493   7.358  0.5534  0.3895 -2.9142
   15SAPS  C212 1922   6.194   6.528   7.512 -0.0108  0.3002  0.6955
   15SAPS  H12R 1923   6.161   6.440   7.569 -1.6277  0.8261  0.6149
   15SAPS  C213 1924   6.298   6.596   7.596 -1.0770  0.0783 -0.7978
   15SAPS  H13R 1925   6.377   6.636   7.528 -0.9428 -0.0676 -0.7267
   15SAPS  H13S 1926   6.357   6.520   7.651  1.7182  1.4243 -1.7339
   15SAPS  C214 1927   6.238   6.708   7.677 -0.3984 -0.6765  1.0113
   15SAPS  H14R 1928   6.147   6.750   7.633 -0.8539 -1.4718  1.1772
   15SAPS  C215 1929   6.274   6.747   7.796  0.0741  0.3461 -0.1844
   15SAPS  H15R 1930   6.226   6.839   7.833 -1.2229 -1.2673  2.3799
   15SAPS  C216 1931   6.398   6.705   7.872  0.2674 -0.1421 -1.0743
   15SAPS  H16R 1932   6.481   6.778   7.861 -0.5408  0.7963 -1.1065
   15SAPS  H16S 1933   6.429   6.601   7.848 -0.3162 -0.7601  0.7022
   15SAPS  C217 1934   6.359   6.681   8.028  0.0786  0.5491  0.7146
   15SAPS  H17R 1935   6.299   6.765   8.068 -1.6843  1.1128 -2.6963
   15SAPS  H17S 1936   6.465   6.680   8.062  0.8532 -1.5772 -1.4116
   15SAPS  C218 1937   6.286   6.545   8.064 -0.8624  0.1181 -0.4355
   15SAPS  H18R 1938   6.333   6.461   8.008 -0.1044 -1.0278  1.8092
   15SAPS  H18S 1939   6.178   6.553   8.037 -0.9469  0.7769  0.0927
   15SAPS  C219 1940   6.293   6.532   8.215  0.1401 -0.3744 -0.1866
   15SAPS  H19R 1941   6.276   6.629   8.266  0.6622 -0.4388  0.1251
   15SAPS  H19S 1942   6.397   6.514   8.250  0.3671  0.9527 -0.1150
   15SAPS  C220 1943   6.195   6.433   8.283  0.0789  0.0489 -0.7305
   15SAPS  H20R 1944   6.203   6.435   8.394 -4.6994  1.6659 -0.1986
   15SAPS  H20S 1945   6.214   6.329   8.250  0.9832 -0.1742  0.3973
   15SAPS  H20T 1946   6.086   6.448   8.274  0.1167  1.8592  0.9774
   15SAPS   C33 1947   7.348   6.216   6.947 -0.3520  0.1250 -0.1956
   15SAPS   H3X 1948   7.418   6.299   6.922  0.1868  0.0957  1.1841
   15SAPS   H3Y 1949   7.373   6.124   6.890  0.3744 -0.0682  0.4345
   15SAPS   C34 1950   7.365   6.202   7.100  0.8269  0.0145  0.8342
   15SAPS   H4X 1951   7.315   6.290   7.146 -1.2011  0.4420 -1.9360
   15SAPS   H4Y 1952   7.471   6.186   7.131  1.2787 -1.6693 -1.3177
   15SAPS   C35 1953   7.289   6.071   7.138  0.2308  0.5139  0.4238
   15SAPS   H5X 1954   7.343   5.975   7.131  1.2433  0.8019  3.0993
   15SAPS   H5Y 1955   7.199   6.063   7.074 -0.5303 -1.5910  1.6792
   15SAPS   C36 1956   7.245   6.095   7.293  0.6114 -0.6670  0.7024
   15SAPS   H6X 1957   7.185   6.004   7.316 -1.9899  0.6975 -0.2959
   15SAPS   H6Y 1958   7.179   6.183   7.305  0.0721 -1.1942  1.7405
   15SAPS   C37 1959   7.367   6.108   7.389  1.0135 -0.1967  0.5053
   15SAPS   H7X 1960   7.384   6.216   7.406 -1.4914  0.0811  1.6671
   15SAPS   H7Y 1961   7.460   6.079   7.334  0.6887  2.2239 -1.4610
   15SAPS   C38 1962   7.361   6.028   7.517 -0.1963 -0.1887  0.0144
   15SAPS   H8X 1963   7.362   5.922   7.483  1.8701  0.4563 -2.2151
   15SAPS   H8Y 1964   7.263   6.056   7.561 -0.1151 -1.4295  1.0701
   15SAPS   C39 1965   7.483   6.056   7.607  0.2948 -0.0622  0.4087
   15SAPS   H9X 1966   7.461   6.147   7.667 -1.9925  0.3539 -0.9297
   15SAPS   H9Y 1967   7.582   6.069   7.560  0.1363 -0.9186 -0.1868
   15SAPS  C310 1968   7.496   5.947   7.714 -0.6650  0.1628 -0.1305
   15SAPS  H10X 1969   7.573   5.976   7.788  0.7487  0.1254 -1.5368
   15SAPS  H10Y 1970   7.544   5.859   7.666  1.4527  1.0175  0.2808
   15SAPS  C311 1971   7.365   5.915   7.783 -0.4194  0.3857 -0.7814
   15SAPS  H11X 1972   7.283   5.888   7.714  0.1386 -1.3397 -0.8318
   15SAPS  H11Y 1973   7.334   6.009   7.833  1.3378  1.2616 -1.2429
   15SAPS  C312 1974   7.368   5.793   7.880 -0.4597 -0.1953 -0.2361
   15SAPS  H12X 1975   7.381   5.706   7.813  1.2577  0.3499 -0.6455
   15SAPS  H12Y 1976   7.271   5.781   7.934 -0.2607 -0.2209  0.1251
   15SAPS  C313 1977   7.473   5.791   7.986 -0.2307 -0.5170 -0.3255
   15SAPS  H13X 1978   7.576   5.819   7.958 -0.6611  0.4278 -1.0220
   15SAPS  H13Y 1979   7.489   5.686   8.019  0.5378 -0.6140 -0.9889
   15SAPS  C314 1980   7.418   5.874   8.104 -0.0863  0.7775 -0.3567
   15SAPS  H14X 1981   7.320   5.831   8.132  0.2869  0.6204  0.7718
   15SAPS  H14Y 1982   7.387   5.978   8.079  0.3903  0.7715 -1.0300
   15SAPS  C315 1983   7.511   5.881   8.227 -0.4982 -0.8805  0.1833
   15SAPS  H15X 1984   7.568   5.791   8.259  2.1216 -0.3304 -2.4508
   15SAPS  H15Y 1985   7.456   5.925   8.313 -0.0267 -0.4504  0.2719
   15SAPS  C316 1986   7.632   5.981   8.189  0.9256  0.5653  0.1866
   15SAPS  H16X 1987   7.586   6.080   8.171 -2.4650 -0.4051  2.5541
   15SAPS  H16Y 1988   7.693   5.942   8.104 -0.1557  1.1790 -0.9065
   15SAPS  C317 1989   7.719   5.970   8.313  0.1800  0.5658 -0.1377
   15SAPS  H17X 1990   7.760   5.868   8.332  1.5246  0.9720 -0.7190
   15SAPS  H17Y 1991   7.679   6.003   8.412  0.3214  0.2739  0.0174
   15SAPS  C318 1992   7.843   6.057   8.294 -0.2900  0.3692 -0.1920
   15SAPS  H18X 1993   7.891   6.026   8.199  0.8366  2.7387 -0.4825
   15SAPS  H18Y 1994   7.917   6.039   8.374  0.7741 -1.0591 -1.4549
   15SAPS  H18Z 1995   7.822   6.166   8.288  2.5043  0.9319 -0.8272
   16SAPS     N 1996   0.681   0.866   6.529 -0.2887 -0.6836  0.3169
   16SAPS   HN1 1997   0.628   0.844   6.615  0.6773 -1.6361  0.6842
   16SAPS   HN2 1998   0.682   0.771   6.488 -0.0048 -1.1392  1.3748
   16SAPS   HN3 1999   0.774   0.900   6.560 -0.7435  0.6156  0.3324
   16SAPS   C12 2000   0.604   0.957   6.442 -0.0151 -0.7512 -0.1488
   16SAPS  H12A 2001   0.581   1.052   6.487 -1.1446  0.7737 -3.5500
   16SAPS   C13 2002   0.664   1.004   6.312  0.1150 -0.3780 -0.7132
   16SAPS  O13A 2003   0.772   0.955   6.272 -0.3960 -0.0776  0.1614
   16SAPS  O13B 2004   0.607   1.098   6.248 -1.3345  0.4425  0.1505
   16SAPS   C11 2005   0.468   0.889   6.409 -0.1196 -0.0430  0.3748
   16SAPS  H11A 2006   0.494   0.811   6.333 -1.7432 -0.3545  0.1167
   16SAPS  H11B 2007   0.395   0.958   6.361 -1.3391 -0.5117  1.5219
   16SAPS     P 2008   0.308   0.710   6.519  0.2725 -0.0634 -0.4918
   16SAPS   O13 2009   0.241   0.716   6.381  0.1459  0.0855 -0.4680
   16SAPS   O14 2010   0.381   0.588   6.562 -0.2037  0.3550  0.3047
   16SAPS   O12 2011   0.400   0.834   6.519 -0.1354  0.4056 -0.1067
   16SAPS   O11 2012   0.199   0.747   6.629 -0.3900  0.4031 -0.1583
   16SAPS    C1 2013   0.181   0.881   6.683  0.6624 -0.0398  0.1860
   16SAPS    HA 2014   0.199   0.962   6.610  2.2140 -0.7916 -0.3137
   16SAPS    HB 2015   0.078   0.889   6.723  0.4829  2.8308 -0.6647
   16SAPS    C2 2016   0.287   0.905   6.795 -0.1468 -0.0488  0.1108
   16SAPS    HS 2017   0.374   0.847   6.758 -0.5285 -1.5088  1.4016
   16SAPS   O21 2018   0.232   0.857   6.921 -0.4522  0.4690  0.1607
   16SAPS   C21 2019   0.321   0.774   6.984 -0.7506  0.8374 -0.2411
   16SAPS   O22 2020   0.440   0.752   6.944  0.4322 -0.7403  0.1224
   16SAPS   C22 2021   0.252   0.703   7.104 -0.6543 -0.4864  0.2152
   16SAPS   H2R 2022   0.172   0.634   7.071  1.1486 -3.7864  2.2255
   16SAPS   H2S 2023   0.324   0.639   7.160  0.8822  1.7000  0.8904
   16SAPS    C3 2024   0.326   1.058   6.811  0.0068 -0.0708  0.1804
   16SAPS    HX 2025   0.232   1.115   6.823 -1.6272 -1.5446 -3.9961
   16SAPS    HY 2026   0.370   1.103   6.719 -0.3431  0.7659  0.4191
   16SAPS   O31 2027   0.417   1.069   6.920  0.1473  0.1312 -0.3021
   16SAPS   C31 2028   0.543   1.040   6.885  0.0158  0.3675 -0.4299
   16SAPS   O32 2029   0.580   1.016   6.770  0.3556  0.3169  0.0748
   16SAPS   C32 2030   0.634   1.049   7.007  0.1094 -0.3939 -0.4229
   16SAPS   H2X 2031   0.736   1.056   6.964  0.7544 -2.6947  0.5750
   16SAPS   H2Y 2032   0.633   0.956   7.068  0.5913 -0.2344 -0.1725
   16SAPS   C23 2033   0.173   0.801   7.198  0.4935 -0.0846 -0.2944
   16SAPS   H3R 2034   0.069   0.778   7.230  0.9551  1.0886  2.2709
   16SAPS   H3S 2035   0.164   0.896   7.141  0.5214 -0.5908 -1.1630
   16SAPS   C24 2036   0.241   0.818   7.331 -0.1900  0.0389  0.2944
   16SAPS   H4R 2037   0.254   0.719   7.380  0.8753  0.1465  0.2460
   16SAPS   H4S 2038   0.172   0.871   7.401 -0.8619 -0.7593  0.2591
   16SAPS   C25 2039   0.359   0.906   7.318  0.2729 -0.6594  0.2644
   16SAPS   H5R 2040   0.339   1.004   7.271  1.1012 -0.4632  0.2968
   16SAPS   C26 2041   0.486   0.882   7.360  0.6836 -0.6263 -0.4223
   16SAPS   H6R 2042   0.558   0.955   7.319 -0.7478  0.5706 -0.8938
   16SAPS   C27 2043   0.537   0.764   7.442  0.5328 -0.4797 -0.4595
   16SAPS   H7R 2044   0.615   0.702   7.392 -0.1571 -3.0755  1.5189
   16SAPS   H7S 2045   0.457   0.688   7.453  0.4162 -0.7568 -2.7067
   16SAPS   C28 2046   0.588   0.814   7.575 -0.0330  0.2013  0.0514
   16SAPS   H8R 2047   0.688   0.859   7.576 -0.5543  1.4079  0.0150
   16SAPS   C29 2048   0.512   0.818   7.694  0.7880  0.3613  0.3113
   16SAPS   H9R 2049   0.553   0.865   7.784  0.7623  0.3993  0.3030
   16SAPS  C210 2050   0.371   0.758   7.713 -0.6806 -0.0277 -0.0421
   16SAPS  H10R 2051   0.331   0.718   7.618  0.7150  0.2500 -0.7634
   16SAPS  H10S 2052   0.306   0.843   7.745  1.5641  1.5952  0.4517
   16SAPS  C211 2053   0.362   0.645   7.811  0.8714  0.3541  0.0878
   16SAPS  H11R 2054   0.352   0.547   7.763  0.9825 -1.1060  2.8204
   16SAPS  C212 2055   0.353   0.651   7.945  0.1003 -0.8306 -0.5521
   16SAPS  H12R 2056   0.358   0.558   8.004 -1.5442 -0.6398 -0.0368
   16SAPS  C213 2057   0.348   0.782   8.033  0.5105 -0.2000  0.0344
   16SAPS  H13R 2058   0.320   0.752   8.136  1.7948  1.0276  0.7723
   16SAPS  H13S 2059   0.262   0.848   8.010 -2.1779 -3.0789  1.1642
   16SAPS  C214 2060   0.487   0.850   8.048  0.0540 -0.2183  0.4486
   16SAPS  H14R 2061   0.518   0.924   7.973  1.0245  1.1662  2.1209
   16SAPS  C215 2062   0.569   0.833   8.158  0.1187 -0.0023  0.1974
   16SAPS  H15R 2063   0.668   0.879   8.150  0.2110  0.1206  1.7053
   16SAPS  C216 2064   0.552   0.740   8.277  0.2582 -0.1050  0.0954
   16SAPS  H16R 2065   0.629   0.660   8.274  1.9128  1.4508 -2.7616
   16SAPS  H16S 2066   0.458   0.682   8.267 -0.7263  1.3864  0.3344
   16SAPS  C217 2067   0.533   0.798   8.422  1.0151  0.0439 -0.2576
   16SAPS  H17R 2068   0.608   0.879   8.414  1.1049 -0.1467 -1.6649
   16SAPS  H17S 2069   0.562   0.724   8.499 -2.1820  0.8958  1.9668
   16SAPS  C218 2070   0.387   0.848   8.457 -0.0457 -0.3842  0.1818
   16SAPS  H18R 2071   0.311   0.766   8.459 -1.4269  0.7285 -2.0981
   16SAPS  H18S 2072   0.357   0.907   8.368 -2.8617 -0.2727  1.0821
   16SAPS  C219 2073   0.377   0.914   8.600  0.7963  0.1893  0.4149
   16SAPS  H19R 2074   0.391   0.842   8.684 -0.8363  0.9124  1.3577
   16SAPS  H19S 2075   0.269   0.941   8.599  0.1777 -2.0294  1.2254
   16SAPS  C220 2076   0.470   1.038   8.623  0.2762  0.0263 -0.1425
   16SAPS  H20R 2077   0.573   1.004   8.647  0.3379  0.1254 -0.2609
   16SAPS  H20S 2078   0.428   1.098   8.707  0.2737  0.0944 -0.1924
   16SAPS  H20T 2079   0.465   1.100   8.530  0.7842  0.9928  0.4518
   16SAPS   C33 2080   0.613   1.171   7.098 -0.7549 -0.2434  0.2105
   16SAPS   H3X 2081   0.507   1.183   7.128 -0.6954  2.0514 -0.3152
   16SAPS   H3Y 2082   0.654   1.261   7.048  1.1326 -0.9735  0.3698
   16SAPS   C34 2083   0.704   1.164   7.214 -0.0367 -0.0430 -0.2400
   16SAPS   H4X 2084   0.808   1.180   7.179  0.7493  0.8480  2.2434
   16SAPS   H4Y 2085   0.706   1.061   7.257 -1.0850 -0.4611 -1.1565
   16SAPS   C35 2086   0.661   1.252   7.332 -0.2118  0.0300  0.1629
   16SAPS   H5X 2087   0.556   1.238   7.363 -0.4685  0.8356 -0.3241
   16SAPS   H5Y 2088   0.655   1.359   7.303 -1.9693  0.1868  0.9868
   16SAPS   C36 2089   0.753   1.229   7.456  0.2604 -0.2135  0.5776
   16SAPS   H6X 2090   0.840   1.296   7.439 -0.0444 -0.1814 -1.0512
   16SAPS   H6Y 2091   0.799   1.128   7.453 -0.1180 -0.3660 -0.6630
   16SAPS   C37 2092   0.689   1.247   7.590 -0.4784 -0.2933 -0.4245
   16SAPS   H7X 2093   0.592   1.199   7.614 -0.2570  0.5240  2.5083
   16SAPS   H7Y 2094   0.661   1.355   7.593 -1.6006 -0.4799 -2.2963
   16SAPS   C38 2095   0.795   1.206   7.697  0.0658 -0.0167  0.2506
   16SAPS   H8X 2096   0.892   1.253   7.670  0.4935 -0.8513  0.3063
   16SAPS   H8Y 2097   0.822   1.100   7.678 -0.1549  0.4396 -3.2727
   16SAPS   C39 2098   0.740   1.232   7.842 -0.4626  0.3495  0.3265
   16SAPS   H9X 2099   0.657   1.159   7.854  0.7744 -1.3077 -0.7517
   16SAPS   H9Y 2100   0.694   1.333   7.838 -0.5679  0.2764 -0.6178
   16SAPS  C310 2101   0.837   1.208   7.957 -0.0049 -0.1359  0.6913
   16SAPS  H10X 2102   0.932   1.259   7.931  0.0556  1.4324  3.5197
   16SAPS  H10Y 2103   0.866   1.103   7.980  0.9883 -0.4688 -1.7977
   16SAPS  C311 2104   0.791   1.274   8.089  0.2020 -0.3476  0.3307
   16SAPS  H11X 2105   0.699   1.222   8.125  0.4004 -0.6276  0.4356
   16SAPS  H11Y 2106   0.757   1.380   8.078 -2.5323 -1.2160 -0.5219
   16SAPS  C312 2107   0.881   1.237   8.201 -0.4974 -0.2253  0.1646
   16SAPS  H12X 2108   0.975   1.296   8.203 -1.2803  1.0378  0.6239
   16SAPS  H12Y 2109   0.927   1.138   8.178  2.9504  0.4801  3.2513
   16SAPS  C313 2110   0.830   1.254   8.342 -0.3572 -0.1071  0.7474
   16SAPS  H13X 2111   0.736   1.199   8.358 -1.2461  0.5888 -1.5951
   16SAPS  H13Y 2112   0.809   1.360   8.367  0.9634  0.6840 -1.1842
   16SAPS  C314 2113   0.928   1.193   8.448 -0.0011 -0.4579  0.2015
   16SAPS  H14X 2114   1.022   1.252   8.448 -0.1836 -0.1319 -0.9623
   16SAPS  H14Y 2115   0.950   1.093   8.405  2.2573  0.5819 -1.2562
   16SAPS  C315 2116   0.860   1.180   8.586  0.0732 -0.5565 -0.5105
   16SAPS  H15X 2117   0.910   1.106   8.652  1.0560  1.0282  0.5804
   16SAPS  H15Y 2118   0.752   1.153   8.580 -0.9086  1.4747  3.9604
   16SAPS  C316 2119   0.863   1.320   8.655  0.6198  0.7889  0.2811
   16SAPS  H16X 2120   0.802   1.395   8.601  0.7607  0.3473 -0.4921
   16SAPS  H16Y 2121   0.968   1.357   8.647  0.9663 -0.1479  0.3921
   16SAPS  C317 2122   0.818   1.343   8.806 -0.8541 -0.8132 -0.1548
   16SAPS  H17X 2123   0.708   1.350   8.816 -0.7960  0.5202 -0.3515
   16SAPS  H17Y 2124   0.859   1.435   8.854  0.0129 -0.4278 -1.5683
   16SAPS  C318 2125   0.868   1.236   8.905  0.1675  0.5828  0.3107
   16SAPS  H18X 2126   0.976   1.212   8.891  0.2546  0.3689  1.2477
   16SAPS  H18Y 2127   0.818   1.137   8.894  0.2818  0.2098  2.5998
   16SAPS  H18Z 2128   0.866   1.253   9.015 -1.1798 -0.7213  0.5210
   17SAPC     N 2129   0.436   4.995  10.670 -0.5575  0.3969  0.9355
   17SAPC   C12 2130   0.325   4.989  10.567 -0.3388  0.1387  0.5678
   17SAPC  H12A 2131   0.340   4.912  10.493 -2.4100  1.5620 -1.4544
   17SAPC  H12B 2132   0.335   5.080  10.509  0.5233 -0.2776  0.0396
   17SAPC   C13 2133   0.573   4.980  10.610  0.2937 -0.6914  0.3194
   17SAPC  H13A 2134   0.593   5.063  10.543  2.5240 -2.4099 -1.2928
   17SAPC  H13B 2135   0.647   4.987  10.688 -1.7749 -0.1353  2.3569
   17SAPC  H13C 2136   0.597   4.890  10.555 -1.7985 -1.5678  0.7106
   17SAPC   C14 2137   0.435   5.124  10.733 -0.4545 -0.3253  0.2146
   17SAPC  H14A 2138   0.508   5.126  10.813  1.6182  1.0939 -1.6107
   17SAPC  H14B 2139   0.473   5.202  10.670 -0.6001  2.5151  3.3452
   17SAPC  H14C 2140   0.336   5.158  10.756 -0.6577  0.6265 -1.8514
   17SAPC   C15 2141   0.420   4.885  10.772  0.3267  0.2842 -0.0858
   17SAPC  H15A 2142   0.406   4.795  10.714  0.8454  0.2655 -0.1847
   17SAPC  H15B 2143   0.513   4.863  10.822 -0.3338  1.1424  1.6068
   17SAPC  H15C 2144   0.338   4.909  10.838 -0.9999 -0.9090 -1.2396
   17SAPC   C11 2145   0.179   4.969  10.603 -0.3084  0.2120 -0.0338
   17SAPC  H11A 2146   0.167   4.872  10.656  1.3014 -1.4476 -2.4739
   17SAPC  H11B 2147   0.131   4.960  10.503 -1.3570  0.0311  0.4659
   17SAPC     P 2148   0.107   5.219  10.640 -0.0244 -0.0036 -0.2062
   17SAPC   O13 2149   0.011   5.281  10.730 -0.2036 -0.6040 -0.2022
   17SAPC   O14 2150   0.231   5.293  10.615 -0.7238 -0.3030  0.4710
   17SAPC   O12 2151   0.128   5.075  10.688 -0.0697 -0.2171 -0.1613
   17SAPC   O11 2152   0.027   5.198  10.501  0.2284  0.0119 -0.0347
   17SAPC    C1 2153  -0.116   5.157  10.509 -0.2658  0.1174  0.2995
   17SAPC    HA 2154  -0.129   5.056  10.555 -1.8224 -0.6189 -1.6263
   17SAPC    HB 2155  -0.180   5.234  10.557  0.2846  1.8728 -1.6550
   17SAPC    C2 2156  -0.179   5.138  10.371 -0.2286  1.1280 -0.4417
   17SAPC    HS 2157  -0.276   5.083  10.370  0.7395 -0.8776 -4.0683
   17SAPC   O21 2158  -0.083   5.060  10.293 -0.0616 -0.5992  0.1496
   17SAPC   C21 2159  -0.077   4.933  10.314 -0.2414 -0.3260  0.1989
   17SAPC   O22 2160  -0.147   4.877  10.397  0.1219 -0.5624  0.3309
   17SAPC   C22 2161   0.035   4.877  10.233 -0.0923  0.6894  0.0410
   17SAPC   H2R 2162   0.098   4.959  10.191  0.8213 -0.3787 -0.7399
   17SAPC   H2S 2163   0.100   4.817  10.301  1.9713  2.9491  0.2042
   17SAPC    C3 2164  -0.201   5.274  10.306  0.6699  0.4524  0.1857
   17SAPC    HX 2165  -0.112   5.340  10.306  0.2460  1.1432 -2.6977
   17SAPC    HY 2166  -0.276   5.336  10.360 -2.7475 -2.0526 -1.2472
   17SAPC   O31 2167  -0.253   5.254  10.174 -0.4345  0.0457  0.1439
   17SAPC   C31 2168  -0.162   5.271  10.082 -0.4170 -0.0173  0.1719
   17SAPC   O32 2169  -0.039   5.278  10.091 -0.0418  0.4020 -0.2108
   17SAPC   C32 2170  -0.232   5.289   9.947 -0.1061 -0.6077  0.6312
   17SAPC   H2X 2171  -0.211   5.198   9.887  0.4515  0.1181 -0.3084
   17SAPC   H2Y 2172  -0.178   5.362   9.883 -1.7735 -1.7246 -2.2562
   17SAPC   C23 2173  -0.019   4.782  10.128 -0.1804  0.1595  0.6246
   17SAPC   H3R 2174  -0.096   4.717  10.173  0.1435 -0.3713  0.4297
   17SAPC   H3S 2175   0.064   4.726  10.079 -0.7435 -1.6685  1.6602
   17SAPC   C24 2176  -0.099   4.848  10.021 -0.0502 -0.4337 -0.4583
   17SAPC   H4R 2177  -0.169   4.923  10.063  1.3267  0.3898  0.4322
   17SAPC   H4S 2178  -0.176   4.786   9.970 -2.4383 -0.9250  3.3660
   17SAPC   C25 2179  -0.009   4.919   9.931 -0.3197 -0.5500 -0.6079
   17SAPC   H5R 2180   0.061   4.982   9.988 -1.2147 -0.5083  0.4810
   17SAPC   C26 2181  -0.011   4.926   9.797 -0.0673 -0.5296  0.7325
   17SAPC   H6R 2182   0.040   5.008   9.744 -6.4898  2.6207 -1.6808
   17SAPC   C27 2183  -0.108   4.846   9.711 -0.8539 -0.8622  0.8313
   17SAPC   H7R 2184  -0.194   4.808   9.771 -0.4506 -2.3255  0.5295
   17SAPC   H7S 2185  -0.054   4.762   9.661 -1.6257 -1.0249  0.2551
   17SAPC   C28 2186  -0.167   4.928   9.599  0.6046  0.1601 -0.6029
   17SAPC   H8R 2187  -0.263   4.981   9.616  1.0419  0.9634 -0.5992
   17SAPC   C29 2188  -0.116   4.946   9.476 -0.1424  0.3880 -0.2990
   17SAPC   H9R 2189  -0.178   5.005   9.407  0.0720  1.9905  0.8161
   17SAPC  C210 2190   0.008   4.881   9.426 -0.1334 -0.0408  0.4414
   17SAPC  H10R 2191   0.065   4.831   9.508 -1.0076  0.0518  1.1204
   17SAPC  H10S 2192   0.072   4.964   9.389 -0.3283  0.8123  1.9504
   17SAPC  C211 2193  -0.007   4.782   9.317  0.0938  0.0788  0.2953
   17SAPC  H11R 2194  -0.026   4.676   9.341  2.9621 -0.4973  0.4438
   17SAPC  C212 2195   0.014   4.808   9.186 -0.0174 -0.8843 -0.7822
   17SAPC  H12R 2196  -0.007   4.723   9.120  0.2391 -2.5595  1.2013
   17SAPC  C213 2197   0.050   4.944   9.121 -0.3018  0.3740 -0.2172
   17SAPC  H13R 2198   0.135   4.915   9.055  1.5294  2.2877  1.1495
   17SAPC  H13S 2199   0.097   5.023   9.183  3.2197 -1.7552  0.1220
   17SAPC  C214 2200  -0.077   4.975   9.043  0.0047  0.0336  0.2245
   17SAPC  H14R 2201  -0.163   4.977   9.112  0.3099  1.9518  0.6051
   17SAPC  C215 2202  -0.090   5.018   8.916 -0.0248  0.7331 -0.2205
   17SAPC  H15R 2203  -0.189   5.022   8.870  0.1773 -0.5475 -0.7921
   17SAPC  C216 2204   0.025   5.049   8.816 -0.3530  0.5850 -0.4793
   17SAPC  H16R 2205   0.114   5.068   8.880 -1.6787 -2.0444  2.4539
   17SAPC  H16S 2206  -0.001   5.131   8.747 -0.2910  1.9400  1.0497
   17SAPC  C217 2207   0.054   4.910   8.739  0.6152 -0.2423 -0.0918
   17SAPC  H17R 2208   0.057   4.823   8.808  0.1787  0.2298  0.5359
   17SAPC  H17S 2209   0.159   4.922   8.705  0.6268  3.0927  0.7703
   17SAPC  C218 2210  -0.045   4.890   8.627  0.1609 -0.5763 -0.1154
   17SAPC  H18R 2211  -0.034   4.975   8.557  1.3122  0.2699  1.0555
   17SAPC  H18S 2212  -0.152   4.900   8.657  0.7860 -1.2409  2.6578
   17SAPC  C219 2213  -0.005   4.765   8.548 -0.5670 -0.6936 -0.1281
   17SAPC  H19R 2214   0.104   4.776   8.527 -0.3795 -2.1707 -0.0510
   17SAPC  H19S 2215  -0.061   4.762   8.452 -2.1510 -1.1047  0.7638
   17SAPC  C220 2216  -0.034   4.635   8.622  0.9358  0.6496  0.3716
   17SAPC  H20R 2217   0.013   4.556   8.559  1.8540  1.2959  0.2213
   17SAPC  H20S 2218  -0.144   4.642   8.633  0.9014  0.8152 -0.0792
   17SAPC  H20T 2219   0.013   4.643   8.723  3.7331 -0.0745 -0.7789
   17SAPC   C33 2220  -0.380   5.309   9.948  0.4261  0.0634  0.0425
   17SAPC   H3X 2221  -0.415   5.407   9.987 -0.0846  0.1338 -0.5834
   17SAPC   H3Y 2222  -0.436   5.237  10.011 -0.9234 -0.7914 -2.0225
   17SAPC   C34 2223  -0.429   5.305   9.803 -0.3741  0.7416 -0.0647
   17SAPC   H4X 2224  -0.539   5.320   9.792 -0.4050 -0.0018 -0.8356
   17SAPC   H4Y 2225  -0.423   5.199   9.772  1.5715  0.9563 -0.5168
   17SAPC   C35 2226  -0.356   5.393   9.703  0.1854 -0.0210  0.4236
   17SAPC   H5X 2227  -0.246   5.391   9.717  0.0684  0.2598  1.4468
   17SAPC   H5Y 2228  -0.381   5.501   9.713  1.0596  0.2679 -0.3768
   17SAPC   C36 2229  -0.375   5.339   9.561 -0.3070  0.1337  0.4329
   17SAPC   H6X 2230  -0.482   5.349   9.532 -0.5525 -1.2763  0.7523
   17SAPC   H6Y 2231  -0.359   5.229   9.560  0.3324  0.2131  1.2710
   17SAPC   C37 2232  -0.291   5.405   9.455  0.3869 -0.1768 -0.4593
   17SAPC   H7X 2233  -0.191   5.436   9.492 -0.0224  1.6038 -0.7896
   17SAPC   H7Y 2234  -0.339   5.500   9.424  0.4581 -0.6071 -1.9847
   17SAPC   C38 2235  -0.276   5.312   9.337 -0.1502 -0.2756  0.1433
   17SAPC   H8X 2236  -0.241   5.211   9.366  0.5313  0.3040  1.3937
   17SAPC   H8Y 2237  -0.208   5.352   9.259 -1.9054  1.9934 -0.3693
   17SAPC   C39 2238  -0.409   5.281   9.269 -0.1639 -0.1561  0.3150
   17SAPC   H9X 2239  -0.450   5.373   9.222  2.0693  0.3109 -0.8468
   17SAPC   H9Y 2240  -0.480   5.234   9.341 -0.1752  1.5899  1.5173
   17SAPC  C310 2241  -0.399   5.188   9.152 -0.3972  1.0605 -0.1795
   17SAPC  H10X 2242  -0.344   5.092   9.163 -2.0311 -0.0476 -1.3907
   17SAPC  H10Y 2243  -0.355   5.243   9.067 -1.1244 -0.3394 -1.5023
   17SAPC  C311 2244  -0.543   5.140   9.123  0.2082  0.7056  0.2926
   17SAPC  H11X 2245  -0.606   5.228   9.099 -1.4526 -0.2063  1.1161
   17SAPC  H11Y 2246  -0.599   5.088   9.204 -1.6225  2.3863  0.2016
   17SAPC  C312 2247  -0.538   5.028   9.012 -0.1496 -0.6819 -0.3873
   17SAPC  H12X 2248  -0.622   4.955   9.012  0.5178 -1.5003  1.4867
   17SAPC  H12Y 2249  -0.445   4.980   9.049  0.2459  0.2969 -0.0812
   17SAPC  C313 2250  -0.509   5.088   8.876 -0.8705  0.3606 -0.1698
   17SAPC  H13X 2251  -0.439   5.174   8.870 -1.4763  0.8893  0.2316
   17SAPC  H13Y 2252  -0.606   5.138   8.856 -0.9440  1.1698  1.9074
   17SAPC  C314 2253  -0.477   4.976   8.774 -0.5071 -0.2874 -0.7191
   17SAPC  H14X 2254  -0.554   4.897   8.787 -0.8366  0.0198 -0.8050
   17SAPC  H14Y 2255  -0.385   4.916   8.795 -0.7515 -0.2027  0.7234
   17SAPC  C315 2256  -0.489   5.025   8.626  0.3480  0.2283  0.4023
   17SAPC  H15X 2257  -0.587   5.074   8.610  1.9620  3.3963 -0.6159
   17SAPC  H15Y 2258  -0.489   4.932   8.564 -0.0417 -0.0830  0.8653
   17SAPC  C316 2259  -0.374   5.120   8.579  0.1766 -0.3153  0.3570
   17SAPC  H16X 2260  -0.277   5.072   8.604  0.2364 -1.7764 -2.2876
   17SAPC  H16Y 2261  -0.394   5.218   8.626  1.0076  0.9294 -1.7189
   17SAPC  C317 2262  -0.380   5.157   8.424  0.4181  0.2683 -0.8020
   17SAPC  H17X 2263  -0.483   5.193   8.406  0.1349  0.2623  0.6890
   17SAPC  H17Y 2264  -0.361   5.067   8.362  1.6798 -0.8309  1.0619
   17SAPC  C318 2265  -0.277   5.261   8.377  0.0858  1.1616 -0.1865
   17SAPC  H18X 2266  -0.177   5.219   8.399  0.0105  1.3848  0.6027
   17SAPC  H18Y 2267  -0.290   5.281   8.269 -1.2449 -2.4781 -0.8474
   17SAPC  H18Z 2268  -0.274   5.360   8.427 -1.2766  2.3117 -2.2170
   18SAPC     N 2269   4.319   3.301  10.789 -0.5699  0.8011  0.0942
   18SAPC   C12 2270   4.446   3.356  10.726 -0.4890 -0.3802  0.0383
   18SAPC  H12A 2271   4.497   3.270  10.685 -1.2316 -0.6754 -0.2878
   18SAPC  H12B 2272   4.524   3.390  10.793  2.2514 -2.1720 -2.0222
   18SAPC   C13 2273   4.213   3.261  10.690 -0.5494  0.5319  0.3868
   18SAPC  H13A 2274   4.241   3.178  10.627 -2.0034  0.6757 -0.5093
   18SAPC  H13B 2275   4.117   3.234  10.732  0.3303 -4.4956 -0.1921
   18SAPC  H13C 2276   4.205   3.344  10.622 -0.9493 -0.5714 -0.9691
   18SAPC   C14 2277   4.366   3.183  10.875  0.2778  0.9594 -0.3210
   18SAPC  H14A 2278   4.460   3.198  10.926  0.4617  0.1952 -0.4224
   18SAPC  H14B 2279   4.285   3.153  10.939 -0.5122  2.1033 -0.7489
   18SAPC  H14C 2280   4.391   3.099  10.812 -1.1776 -0.1168  0.4972
   18SAPC   C15 2281   4.264   3.410  10.888  0.4362  0.0306 -0.0197
   18SAPC  H15A 2282   4.263   3.507  10.842 -0.9976  1.5120  2.8833
   18SAPC  H15B 2283   4.164   3.386  10.921  0.3367  0.5014  0.0248
   18SAPC  H15C 2284   4.321   3.424  10.978  1.5208  0.6635 -0.7906
   18SAPC   C11 2285   4.429   3.459  10.613 -0.4166 -0.0077  0.7590
   18SAPC  H11A 2286   4.374   3.413  10.529  0.0328 -0.7448  0.8574
   18SAPC  H11B 2287   4.531   3.475  10.573 -0.3474  1.1673  1.3612
   18SAPC     P 2288   4.451   3.696  10.731  0.3622  0.0775  0.0351
   18SAPC   O13 2289   4.380   3.824  10.745 -0.2469 -0.3756 -0.4166
   18SAPC   O14 2290   4.485   3.638  10.866 -0.8212  0.1326  0.6322
   18SAPC   O12 2291   4.376   3.585  10.647 -0.1044 -0.1944 -0.2819
   18SAPC   O11 2292   4.580   3.715  10.642 -0.0225 -0.0725  0.0251
   18SAPC    C1 2293   4.563   3.790  10.519  0.0811  0.1570 -0.3240
   18SAPC    HA 2294   4.534   3.736  10.426  0.0143  0.2253 -0.3438
   18SAPC    HB 2295   4.490   3.874  10.525  1.1273  1.0064  1.0600
   18SAPC    C2 2296   4.694   3.852  10.472  0.0251 -0.9742  0.5283
   18SAPC    HS 2297   4.675   3.918  10.385 -0.0229  0.5163  1.6251
   18SAPC   O21 2298   4.782   3.739  10.433  0.0908 -0.2098 -0.0152
   18SAPC   C21 2299   4.773   3.707  10.305  0.5598 -0.4036  0.4292
   18SAPC   O22 2300   4.719   3.776  10.220  0.4136 -0.4518  0.5110
   18SAPC   C22 2301   4.857   3.586  10.279  0.3433  0.5429  0.2401
   18SAPC   H2R 2302   4.903   3.597  10.179  1.4898 -2.4210  0.3418
   18SAPC   H2S 2303   4.940   3.587  10.354 -0.6940 -0.9685  1.4834
   18SAPC    C3 2304   4.760   3.940  10.579 -1.0567 -0.0852 -0.5463
   18SAPC    HX 2305   4.805   3.873  10.655  2.7700  0.7633 -1.8525
   18SAPC    HY 2306   4.680   4.002  10.624  0.2382  0.0190  1.7095
   18SAPC   O31 2307   4.865   4.015  10.512  0.4043  0.4157 -0.0037
   18SAPC   C31 2308   4.844   4.146  10.491 -0.1748 -0.3366 -0.4403
   18SAPC   O32 2309   4.746   4.211  10.516 -0.1051 -0.5822 -0.0838
   18SAPC   C32 2310   4.960   4.195  10.414 -0.1757  0.5685  0.5020
   18SAPC   H2X 2311   4.991   4.107  10.354 -2.6856  0.1794 -0.3216
   18SAPC   H2Y 2312   5.045   4.207  10.485 -1.0143 -0.7176  1.7908
   18SAPC   C23 2313   4.775   3.458  10.300  0.3871 -0.2431 -0.5281
   18SAPC   H3R 2314   4.724   3.465  10.399 -1.0882 -2.3619 -1.0655
   18SAPC   H3S 2315   4.850   3.378  10.320  0.9591  0.4559  0.2141
   18SAPC   C24 2316   4.683   3.431  10.175  0.2671 -0.0175 -0.1511
   18SAPC   H4R 2317   4.751   3.449  10.088  0.0659  1.7137  0.0072
   18SAPC   H4S 2318   4.614   3.518  10.173  1.5885  1.0976  0.6709
   18SAPC   C25 2319   4.626   3.291  10.175 -0.8524 -0.6352  0.8247
   18SAPC   H5R 2320   4.587   3.251  10.269  0.2751 -0.5342  1.3558
   18SAPC   C26 2321   4.632   3.207  10.071 -0.6519 -0.3167  0.3925
   18SAPC   H6R 2322   4.568   3.118  10.076 -3.0736  1.2553 -0.5774
   18SAPC   C27 2323   4.686   3.245   9.932 -0.3647 -0.4827  0.0449
   18SAPC   H7R 2324   4.684   3.148   9.878  0.5729 -1.8172  2.3028
   18SAPC   H7S 2325   4.795   3.263   9.944 -0.3269 -1.2548  0.9027
   18SAPC   C28 2326   4.613   3.363   9.869  0.8741 -0.6321  0.5649
   18SAPC   H8R 2327   4.566   3.438   9.934 -0.5037 -0.6977 -0.3314
   18SAPC   C29 2328   4.609   3.399   9.741  0.0629  0.1353 -0.6666
   18SAPC   H9R 2329   4.560   3.494   9.712  2.8953  1.7673 -0.4615
   18SAPC  C210 2330   4.694   3.329   9.635  0.3352 -0.4188  0.6175
   18SAPC  H10R 2331   4.755   3.251   9.684  1.8062  0.7244  0.6583
   18SAPC  H10S 2332   4.766   3.396   9.584 -1.0823  1.1317  0.5463
   18SAPC  C211 2333   4.607   3.274   9.524  0.2964  0.8094  0.3949
   18SAPC  H11R 2334   4.506   3.316   9.518  0.2595  0.5717 -0.8387
   18SAPC  C212 2335   4.628   3.169   9.443  0.5044 -0.5030  0.3349
   18SAPC  H12R 2336   4.555   3.137   9.367 -1.2580 -0.5860  1.9771
   18SAPC  C213 2337   4.750   3.085   9.460 -0.4124  0.0730  0.1334
   18SAPC  H13R 2338   4.751   3.036   9.560 -2.8625 -0.9139 -0.2524
   18SAPC  H13S 2339   4.837   3.154   9.458 -1.3599  1.3338  0.8101
   18SAPC  C214 2340   4.758   2.986   9.344 -0.1985 -0.8384 -0.3520
   18SAPC  H14R 2341   4.745   2.883   9.381  0.1393 -0.9082 -0.4297
   18SAPC  C215 2342   4.793   3.003   9.215  0.1543 -0.0026  0.5955
   18SAPC  H15R 2343   4.813   2.907   9.165  5.1720  1.2795 -0.3892
   18SAPC  C216 2344   4.838   3.114   9.133  0.1466 -0.4805 -0.0167
   18SAPC  H16R 2345   4.891   3.181   9.205  0.9254  0.7309 -1.6461
   18SAPC  H16S 2346   4.750   3.176   9.104 -0.7561 -1.5745  0.3591
   18SAPC  C217 2347   4.922   3.085   9.014  0.0425  0.1905  0.1128
   18SAPC  H17R 2348   4.981   2.991   9.014 -1.5909 -0.8748  0.7985
   18SAPC  H17S 2349   4.992   3.171   9.004 -0.8121  0.7689 -1.1667
   18SAPC  C218 2350   4.828   3.078   8.893  0.6359  0.2739 -0.0868
   18SAPC  H18R 2351   4.751   3.159   8.890 -1.0385 -1.2690 -0.8006
   18SAPC  H18S 2352   4.777   2.981   8.908  0.9320 -0.5022 -3.3302
   18SAPC  C219 2353   4.894   3.070   8.753 -0.1022  0.2315  0.1363
   18SAPC  H19R 2354   4.966   3.153   8.737 -0.1026  0.1389 -0.3764
   18SAPC  H19S 2355   4.814   3.091   8.679 -1.1261  0.3626  1.2584
   18SAPC  C220 2356   4.968   2.936   8.729  0.7439 -0.1941 -0.2421
   18SAPC  H20R 2357   4.903   2.849   8.749  0.3101  0.4303  1.2156
   18SAPC  H20S 2358   5.063   2.936   8.787  0.5638  0.1357  0.0621
   18SAPC  H20T 2359   4.994   2.935   8.621  0.0234 -1.2596 -0.4112
   18SAPC   C33 2360   4.942   4.309  10.314  1.0427 -0.0851  0.4654
   18SAPC   H3X 2361   5.042   4.354  10.294  0.1789  0.2916 -3.7591
   18SAPC   H3Y 2362   4.874   4.386  10.355 -0.1133 -0.0452 -1.4013
   18SAPC   C34 2363   4.903   4.261  10.175  0.3283  0.5336 -0.1724
   18SAPC   H4X 2364   4.802   4.216  10.177 -0.0523  1.3854  0.3276
   18SAPC   H4Y 2365   4.983   4.194  10.137  1.2506  0.5732  1.5891
   18SAPC   C35 2366   4.902   4.376  10.078  0.5873 -0.7427  0.6103
   18SAPC   H5X 2367   4.995   4.438  10.083  0.2092 -0.2428  1.7371
   18SAPC   H5Y 2368   4.836   4.454  10.122  1.1441  1.3596 -1.9737
   18SAPC   C36 2369   4.848   4.340   9.941  0.5284  0.0146 -0.1071
   18SAPC   H6X 2370   4.737   4.339   9.943  0.4699 -0.7274 -1.8353
   18SAPC   H6Y 2371   4.876   4.232   9.934 -0.5455 -0.2057 -1.4582
   18SAPC   C37 2372   4.917   4.416   9.828  0.6330  0.0614  0.1235
   18SAPC   H7X 2373   5.015   4.453   9.863  0.5589  0.6000 -0.2264
   18SAPC   H7Y 2374   4.855   4.505   9.802  1.6039  0.7261  0.0199
   18SAPC   C38 2375   4.931   4.332   9.701  0.1642 -0.1628  0.1151
   18SAPC   H8X 2376   4.826   4.307   9.675  1.1475 -2.0515 -2.3549
   18SAPC   H8Y 2377   4.984   4.238   9.728  0.1610  0.0285  0.8273
   18SAPC   C39 2378   4.990   4.413   9.583 -0.6987  0.0629  0.5320
   18SAPC   H9X 2379   5.057   4.492   9.624 -3.2678  2.1688  0.9038
   18SAPC   H9Y 2380   4.897   4.463   9.550 -1.8933 -2.0744  0.4586
   18SAPC  C310 2381   5.046   4.320   9.474  0.3062  0.1415  0.0136
   18SAPC  H10X 2382   5.119   4.247   9.516 -1.1161  0.0005  2.4127
   18SAPC  H10Y 2383   5.083   4.385   9.392 -2.2924 -0.3888 -1.6794
   18SAPC  C311 2384   4.936   4.234   9.407  0.7488  0.2437 -0.4231
   18SAPC  H11X 2385   4.842   4.292   9.394  1.4804  2.3620  2.5446
   18SAPC  H11Y 2386   4.915   4.144   9.468  0.9777  1.8524  2.1841
   18SAPC  C312 2387   4.966   4.181   9.258  0.5764 -0.0047 -0.8771
   18SAPC  H12X 2388   5.071   4.146   9.250  0.4232 -0.2677 -1.9457
   18SAPC  H12Y 2389   4.962   4.267   9.189  1.0118  0.8134  0.0921
   18SAPC  C313 2390   4.854   4.082   9.214 -0.7227  0.0678  0.3800
   18SAPC  H13X 2391   4.764   4.148   9.224  0.4560  2.0852 -1.3831
   18SAPC  H13Y 2392   4.849   3.991   9.277  0.3356 -0.1040  0.2209
   18SAPC  C314 2393   4.866   4.033   9.074 -0.2833  0.1978  0.5388
   18SAPC  H14X 2394   4.963   3.982   9.056 -0.8270 -0.7090  0.1214
   18SAPC  H14Y 2395   4.858   4.129   9.019 -0.2690  0.9081  1.7334
   18SAPC  C315 2396   4.754   3.943   9.021 -0.2220  0.9224 -0.0773
   18SAPC  H15X 2397   4.661   4.000   8.999 -0.6507  0.2901  0.0830
   18SAPC  H15Y 2398   4.720   3.866   9.094  0.8847 -1.0855 -1.5575
   18SAPC  C316 2399   4.796   3.870   8.895  0.6184 -0.3212  0.0661
   18SAPC  H16X 2400   4.716   3.810   8.848  0.5540 -1.4383  1.5331
   18SAPC  H16Y 2401   4.882   3.805   8.920 -0.4972 -2.5448 -1.6285
   18SAPC  C317 2402   4.863   3.975   8.793  0.7528  0.1468  0.6124
   18SAPC  H17X 2403   4.974   3.982   8.803  1.0175 -0.0319 -1.6975
   18SAPC  H17Y 2404   4.823   4.077   8.811 -1.2960 -0.6173  0.6262
   18SAPC  C318 2405   4.831   3.944   8.643  0.0896  0.1227  0.2294
   18SAPC  H18X 2406   4.863   3.841   8.614  1.3485  0.3019  0.8959
   18SAPC  H18Y 2407   4.889   4.019   8.586 -2.6689  1.8307 -0.4923
   18SAPC  H18Z 2408   4.724   3.954   8.616  0.1970 -0.6253 -0.5216
   19SAPC     N 2409   1.534   5.344  11.022  0.8566  0.0010 -0.2949
   19SAPC   C12 2410   1.442   5.424  10.931 -0.2669 -0.3000  0.0705
   19SAPC  H12A 2411   1.398   5.515  10.972  0.2103  1.7942 -3.6048
   19SAPC  H12B 2412   1.359   5.361  10.903  0.0403 -0.9291  0.5542
   19SAPC   C13 2413   1.665   5.411  11.051 -0.4921  0.0399 -0.0830
   19SAPC  H13A 2414   1.713   5.420  10.954  0.3301  0.3897  0.3478
   19SAPC  H13B 2415   1.656   5.506  11.100 -0.5653  0.5055 -0.9750
   19SAPC  H13C 2416   1.723   5.346  11.114 -0.3637 -0.3565 -0.6003
   19SAPC   C14 2417   1.468   5.328  11.157 -0.4331  0.0079 -0.5734
   19SAPC  H14A 2418   1.432   5.423  11.195  1.8168  0.5655  0.3309
   19SAPC  H14B 2419   1.381   5.267  11.142 -1.4518  1.1359  0.5294
   19SAPC  H14C 2420   1.526   5.281  11.235  1.3643  0.7424 -1.4081
   19SAPC   C15 2421   1.558   5.213  10.959 -0.1139  0.4378 -0.2468
   19SAPC  H15A 2422   1.477   5.142  10.955  0.1039  0.1948 -0.3984
   19SAPC  H15B 2423   1.609   5.215  10.864  0.0071 -0.6889 -0.2216
   19SAPC  H15C 2424   1.625   5.158  11.023 -0.3370  1.5151  0.9527
   19SAPC   C11 2425   1.505   5.471  10.797 -0.6194 -0.3779 -0.0483
   19SAPC  H11A 2426   1.598   5.525  10.822 -0.9729 -0.2696  1.1170
   19SAPC  H11B 2427   1.439   5.541  10.742 -1.2176 -0.8376  0.0636
   19SAPC     P 2428   1.609   5.379  10.579 -0.1733  0.0212  0.0885
   19SAPC   O13 2429   1.532   5.472  10.496 -0.2936  0.2610 -0.0593
   19SAPC   O14 2430   1.753   5.404  10.612 -0.0276  0.4325  0.7071
   19SAPC   O12 2431   1.536   5.352  10.715  0.5122 -0.7258 -0.2342
   19SAPC   O11 2432   1.589   5.233  10.514 -0.3004 -0.1853 -0.3821
   19SAPC    C1 2433   1.621   5.108  10.584  0.9381 -0.6581  0.0243
   19SAPC    HA 2434   1.634   5.117  10.694  2.8328  1.0903 -0.2841
   19SAPC    HB 2435   1.543   5.033  10.562  0.9911 -0.6703 -0.1205
   19SAPC    C2 2436   1.755   5.057  10.541 -0.0448 -0.2105 -0.4713
   19SAPC    HS 2437   1.827   5.134  10.577  0.1181  0.5025 -2.2013
   19SAPC   O21 2438   1.754   5.056  10.394  0.5188 -0.3800  0.3783
   19SAPC   C21 2439   1.867   5.053  10.340 -0.0886 -0.3286 -0.2640
   19SAPC   O22 2440   1.970   5.073  10.398 -0.0823  0.1677 -0.1180
   19SAPC   C22 2441   1.850   5.031  10.196  0.0230  0.4498  0.5395
   19SAPC   H2R 2442   1.762   4.969  10.168  0.2713  0.5801 -0.5693
   19SAPC   H2S 2443   1.847   5.131  10.147  2.7979  0.3398 -0.0222
   19SAPC    C3 2444   1.789   4.916  10.600  0.0958 -0.6970  1.0642
   19SAPC    HX 2445   1.792   4.924  10.711 -2.4807 -0.1511  1.1605
   19SAPC    HY 2446   1.895   4.891  10.575  0.1859  1.0386 -0.4649
   19SAPC   O31 2447   1.698   4.806  10.561 -0.4828 -0.2528 -0.1643
   19SAPC   C31 2448   1.733   4.745  10.447 -0.5402  0.1920 -0.5181
   19SAPC   O32 2449   1.837   4.767  10.383  0.2143 -0.0037 -1.0900
   19SAPC   C32 2450   1.645   4.631  10.422  0.4443  0.0050 -0.2292
   19SAPC   H2X 2451   1.539   4.665  10.414  0.6530  0.7101 -0.0915
   19SAPC   H2Y 2452   1.660   4.559  10.506  2.8450  2.3944  1.5403
   19SAPC   C23 2453   1.972   4.951  10.144  0.1725  0.2223 -0.4309
   19SAPC   H3R 2454   1.978   4.843  10.169  1.1795  0.4786  0.5183
   19SAPC   H3S 2455   2.061   5.007  10.180  0.4769 -1.0523  0.8850
   19SAPC   C24 2456   1.977   4.958   9.988 -0.1750  0.4783 -0.4997
   19SAPC   H4R 2457   2.073   4.911   9.957 -1.2469 -0.2262 -3.0166
   19SAPC   H4S 2458   1.969   5.066   9.962 -1.7433  0.8652  1.4045
   19SAPC   C25 2459   1.861   4.887   9.926 -0.0558 -0.7266 -0.6359
   19SAPC   H5R 2460   1.805   4.821   9.993 -0.3558  1.0959  0.9906
   19SAPC   C26 2461   1.837   4.895   9.791  0.2288 -0.0272 -0.1818
   19SAPC   H6R 2462   1.747   4.844   9.752  0.6897  0.3256 -1.7704
   19SAPC   C27 2463   1.917   4.979   9.696  0.0728  0.7404  0.1048
   19SAPC   H7R 2464   1.926   4.924   9.600 -0.3102 -0.7558  0.8959
   19SAPC   H7S 2465   2.015   5.005   9.741 -0.7610  1.7965  1.3973
   19SAPC   C28 2466   1.844   5.116   9.677 -0.2035  0.0994 -0.6179
   19SAPC   H8R 2467   1.806   5.157   9.772  0.5940  0.9318 -0.6523
   19SAPC   C29 2468   1.827   5.178   9.562  0.4602  0.3415 -0.4425
   19SAPC   H9R 2469   1.769   5.272   9.558  0.7052  0.5347  0.2572
   19SAPC  C210 2470   1.880   5.136   9.427 -0.6288 -0.3825  0.1684
   19SAPC  H10R 2471   1.797   5.164   9.358 -0.4982  1.1266  0.5903
   19SAPC  H10S 2472   1.888   5.025   9.419 -0.2749 -0.2971 -0.6935
   19SAPC  C211 2473   2.010   5.196   9.383 -0.8914  0.4040  0.6914
   19SAPC  H11R 2474   2.097   5.211   9.448  0.2008 -1.1136 -0.3638
   19SAPC  C212 2475   2.029   5.219   9.250  0.8503 -1.0270 -0.7813
   19SAPC  H12R 2476   2.122   5.263   9.211  0.5443  1.6988  1.2649
   19SAPC  C213 2477   1.934   5.187   9.143  0.0610  0.4038 -0.0156
   19SAPC  H13R 2478   1.879   5.096   9.176  2.1144 -0.5508  0.9518
   19SAPC  H13S 2479   1.991   5.141   9.059 -1.7507 -3.0809  0.4846
   19SAPC  C214 2480   1.841   5.295   9.104 -0.0260 -0.6638  0.1799
   19SAPC  H14R 2481   1.818   5.374   9.177 -2.3571  1.2212 -2.3509
   19SAPC  C215 2482   1.786   5.312   8.981 -0.0862 -0.6139 -0.4730
   19SAPC  H15R 2483   1.715   5.396   8.977  2.0371  1.4247  1.5519
   19SAPC  C216 2484   1.803   5.219   8.863  0.3405 -0.6857  0.5864
   19SAPC  H16R 2485   1.897   5.160   8.861 -0.6873 -2.3835  0.7905
   19SAPC  H16S 2486   1.796   5.275   8.767  0.3527 -0.8525  0.4894
   19SAPC  C217 2487   1.693   5.109   8.871  0.6344 -0.6618  0.8804
   19SAPC  H17R 2488   1.603   5.174   8.878  1.5398  0.8676 -0.8475
   19SAPC  H17S 2489   1.701   5.037   8.956 -1.2378 -1.5105  0.3973
   19SAPC  C218 2490   1.694   5.029   8.741 -0.3803  0.2153  0.5651
   19SAPC  H18R 2491   1.790   4.975   8.726 -0.0205  0.3677  2.1547
   19SAPC  H18S 2492   1.685   5.094   8.651  3.9954  0.0956 -0.1362
   19SAPC  C219 2493   1.587   4.918   8.751  0.4682 -0.8815 -0.3199
   19SAPC  H19R 2494   1.496   4.956   8.801  1.4636 -0.1342  0.9816
   19SAPC  H19S 2495   1.634   4.838   8.813  1.3420  0.6485  1.0494
   19SAPC  C220 2496   1.545   4.854   8.612  0.4356 -0.0943  0.6161
   19SAPC  H20R 2497   1.480   4.917   8.548 -0.4854 -2.3825 -0.8000
   19SAPC  H20S 2498   1.480   4.771   8.648 -0.0774 -0.3054 -0.7639
   19SAPC  H20T 2499   1.634   4.823   8.554 -0.8621 -0.4266 -1.2950
   19SAPC   C33 2500   1.684   4.549  10.301 -0.1089 -0.1426  0.1874
   19SAPC   H3X 2501   1.787   4.510  10.313 -0.2716 -1.4251 -2.1487
   19SAPC   H3Y 2502   1.685   4.614  10.211  2.4162 -1.3493 -0.7254
   19SAPC   C34 2503   1.579   4.445  10.269  0.6186  0.1265  0.2277
   19SAPC   H4X 2504   1.489   4.507  10.250  0.0728 -0.0328  2.1546
   19SAPC   H4Y 2505   1.566   4.376  10.355  2.2536  1.4686  1.6177
   19SAPC   C35 2506   1.616   4.357  10.142  1.0197  0.1716 -0.0533
   19SAPC   H5X 2507   1.551   4.267  10.142 -0.3055  1.1033 -1.1206
   19SAPC   H5Y 2508   1.720   4.316  10.150  1.0847  0.1385 -1.0093
   19SAPC   C36 2509   1.573   4.429  10.008 -0.5290  0.4588  0.2751
   19SAPC   H6X 2510   1.614   4.532  10.020 -0.4629  0.3638  0.8854
   19SAPC   H6Y 2511   1.462   4.431  10.004 -0.5802 -1.8510 -2.0066
   19SAPC   C37 2512   1.645   4.368   9.885 -0.2244  0.3009 -0.2772
   19SAPC   H7X 2513   1.613   4.262   9.885 -1.2359  0.5750  1.4879
   19SAPC   H7Y 2514   1.750   4.373   9.919 -0.9965  1.8021  2.1351
   19SAPC   C38 2515   1.595   4.434   9.759 -0.9053  0.7595  0.8978
   19SAPC   H8X 2516   1.611   4.544   9.749 -1.2264  0.6508 -1.2873
   19SAPC   H8Y 2517   1.488   4.416   9.736 -0.8094  0.6873  0.5069
   19SAPC   C39 2518   1.676   4.396   9.627  0.5654 -0.4619  0.1623
   19SAPC   H9X 2519   1.717   4.293   9.620  1.8240  0.0403 -0.1642
   19SAPC   H9Y 2520   1.771   4.454   9.623  0.4373 -0.2555  0.0994
   19SAPC  C310 2521   1.605   4.438   9.497 -0.1755 -0.4350 -0.3541
   19SAPC  H10X 2522   1.676   4.441   9.411  0.1599 -1.3805 -0.1187
   19SAPC  H10Y 2523   1.560   4.539   9.508 -0.1237 -0.1374 -2.4376
   19SAPC  C311 2524   1.503   4.333   9.454 -0.9078  0.6316 -0.6708
   19SAPC  H11X 2525   1.414   4.343   9.519  0.5021 -0.9635  1.6499
   19SAPC  H11Y 2526   1.560   4.242   9.483 -0.7681  1.1953  0.9154
   19SAPC  C312 2527   1.479   4.329   9.303 -0.1058 -0.8287  0.6066
   19SAPC  H12X 2528   1.464   4.224   9.271 -2.3856  0.1086 -1.7787
   19SAPC  H12Y 2529   1.572   4.349   9.245 -1.5280  0.7686 -1.2925
   19SAPC  C313 2530   1.364   4.418   9.257 -0.6204 -0.0785 -0.2396
   19SAPC  H13X 2531   1.393   4.525   9.254 -0.8479  0.0719  1.7435
   19SAPC  H13Y 2532   1.282   4.406   9.331 -0.0889 -0.0658  0.3553
   19SAPC  C314 2533   1.318   4.369   9.122 -0.2765 -0.7521 -0.2110
   19SAPC  H14X 2534   1.270   4.269   9.126 -1.3125 -0.2424  0.7872
   19SAPC  H14Y 2535   1.404   4.361   9.053 -1.0635  3.2826 -1.9663
   19SAPC  C315 2536   1.200   4.457   9.068 -0.2066  0.0509 -0.1001
   19SAPC  H15X 2537   1.135   4.493   9.151 -1.3827  1.3662 -1.5324
   19SAPC  H15Y 2538   1.139   4.404   8.992 -0.0284  0.5249 -0.5853
   19SAPC  C316 2539   1.262   4.574   8.991 -0.3406 -0.1249  0.3493
   19SAPC  H16X 2540   1.278   4.546   8.885 -1.8050 -1.0651  0.3536
   19SAPC  H16Y 2541   1.357   4.604   9.042 -0.5521 -1.0241  1.2987
   19SAPC  C317 2542   1.173   4.693   8.971  0.3894  0.7620 -0.5945
   19SAPC  H17X 2543   1.242   4.776   8.944  1.2057  0.1646 -0.3822
   19SAPC  H17Y 2544   1.140   4.718   9.074  2.7943 -2.5103  1.1500
   19SAPC  C318 2545   1.062   4.674   8.868 -1.2838 -0.8482  0.3102
   19SAPC  H18X 2546   1.115   4.648   8.773  3.2494  1.0624  2.0463
   19SAPC  H18Y 2547   0.996   4.762   8.853 -0.6681  0.0564  2.6416
   19SAPC  H18Z 2548   1.002   4.586   8.900 -1.4029 -1.5196 -1.5772
   20SAPC     N 2549   5.148   2.808  10.813  0.6654 -0.8513 -1.2483
   20SAPC   C12 2550   5.130   2.667  10.767  0.2678  0.0302  0.2031
   20SAPC  H12A 2551   5.046   2.670  10.699  0.5602  1.2388 -0.1402
   20SAPC  H12B 2552   5.107   2.609  10.855  0.1085 -1.1718 -0.6094
   20SAPC   C13 2553   5.030   2.850  10.895  0.4375  0.3083  0.0538
   20SAPC  H13A 2554   5.037   2.952  10.931  1.8100 -0.2210  1.3655
   20SAPC  H13B 2555   4.939   2.841  10.838  1.0540  1.9877 -1.2997
   20SAPC  H13C 2556   5.012   2.796  10.986  0.3483  1.1143  0.5254
   20SAPC   C14 2557   5.275   2.826  10.891  0.4330  0.6188  0.2467
   20SAPC  H14A 2558   5.292   2.932  10.899  1.3013  0.4796  0.2813
   20SAPC  H14B 2559   5.272   2.783  10.990 -0.9194 -1.1187 -0.4767
   20SAPC  H14C 2560   5.352   2.780  10.831  0.2344  1.3366 -0.5777
   20SAPC   C15 2561   5.152   2.896  10.688  0.1500  0.4124 -0.1438
   20SAPC  H15A 2562   5.151   3.003  10.706 -1.7942  0.3476  0.3131
   20SAPC  H15B 2563   5.230   2.867  10.619  0.5117  1.2705 -0.1154
   20SAPC  H15C 2564   5.057   2.885  10.637 -0.1598 -1.0431  0.7041
   20SAPC   C11 2565   5.241   2.602  10.692  0.3718  0.7738  0.4240
   20SAPC  H11A 2566   5.259   2.657  10.597 -1.8727 -0.0727 -0.5855
   20SAPC  H11B 2567   5.194   2.504  10.665  1.9220  0.3607 -0.9093
   20SAPC     P 2568   5.392   2.488  10.879  0.1042  0.2073 -0.2999
   20SAPC   O13 2569   5.473   2.553  10.984 -0.3245 -0.6917  0.0483
   20SAPC   O14 2570   5.261   2.426  10.920  0.1343 -0.1701 -0.3641
   20SAPC   O12 2571   5.363   2.583  10.760  0.4079 -0.0167 -0.0826
   20SAPC   O11 2572   5.480   2.376  10.811 -0.1438  0.1801  0.3735
   20SAPC    C1 2573   5.462   2.312  10.682 -0.2848  0.1536 -0.0592
   20SAPC    HA 2574   5.477   2.204  10.703  0.0492 -0.1395 -1.6781
   20SAPC    HB 2575   5.360   2.326  10.641  0.2186  1.6760 -0.8441
   20SAPC    C2 2576   5.577   2.347  10.579 -0.2841 -0.8998 -0.3539
   20SAPC    HS 2577   5.665   2.347  10.648 -1.6843 -2.8019  1.5847
   20SAPC   O21 2578   5.560   2.480  10.527 -0.1773  0.2422 -0.4395
   20SAPC   C21 2579   5.606   2.584  10.588  0.0682 -0.0393 -0.2806
   20SAPC   O22 2580   5.683   2.583  10.686  0.5128 -0.1330 -0.1431
   20SAPC   C22 2581   5.583   2.702  10.504  0.4350 -0.1471  0.1641
   20SAPC   H2R 2582   5.668   2.734  10.440 -0.8676  1.2446 -0.9373
   20SAPC   H2S 2583   5.504   2.683  10.428  0.8517  2.3659 -1.0079
   20SAPC    C3 2584   5.587   2.248  10.458 -0.0231 -0.3312 -0.3306
   20SAPC    HX 2585   5.479   2.229  10.439  0.2113 -0.5428 -1.5122
   20SAPC    HY 2586   5.637   2.158  10.499  0.9674  0.9258  1.3685
   20SAPC   O31 2587   5.670   2.300  10.351  0.4325 -0.5164 -0.6170
   20SAPC   C31 2588   5.627   2.255  10.230  1.1044  0.4307  0.6629
   20SAPC   O32 2589   5.532   2.174  10.212 -0.0765 -0.1362 -0.8626
   20SAPC   C32 2590   5.704   2.322  10.122 -0.0232  0.1780  0.1902
   20SAPC   H2X 2591   5.811   2.310  10.148  0.6867  1.2100 -2.0226
   20SAPC   H2Y 2592   5.664   2.425  10.125 -1.4535 -0.3585  3.0854
   20SAPC   C23 2593   5.534   2.828  10.582 -0.2090  0.4003  0.1551
   20SAPC   H3R 2594   5.604   2.855  10.664 -2.7435 -0.0643  2.6273
   20SAPC   H3S 2595   5.434   2.801  10.622  0.5694 -0.9394  1.2969
   20SAPC   C24 2596   5.513   2.953  10.493 -0.4308 -0.0420 -0.0802
   20SAPC   H4R 2597   5.610   2.987  10.452  0.2955 -1.2267  0.6200
   20SAPC   H4S 2598   5.491   3.046  10.549  0.8474  0.0690  0.2504
   20SAPC   C25 2599   5.420   2.942  10.375  0.4140  0.4604  0.5252
   20SAPC   H5R 2600   5.317   2.950  10.412  1.0756  3.0056  2.1506
   20SAPC   C26 2601   5.447   2.935  10.242  0.4025 -0.0491  0.0989
   20SAPC   H6R 2602   5.366   2.920  10.169 -0.4001 -2.0865  1.3294
   20SAPC   C27 2603   5.582   2.931  10.179 -0.4561 -0.2872  0.4626
   20SAPC   H7R 2604   5.587   2.863  10.091  0.9154  2.1382 -1.4607
   20SAPC   H7S 2605   5.649   2.887  10.256  0.0139  1.2932  0.9848
   20SAPC   C28 2606   5.640   3.068  10.137  0.4154 -0.2756  0.6258
   20SAPC   H8R 2607   5.623   3.148  10.210 -2.6004 -2.3829  2.4754
   20SAPC   C29 2608   5.690   3.097  10.015 -0.6514  0.4723 -0.7562
   20SAPC   H9R 2609   5.739   3.195  10.001  0.3481  0.0305 -0.4566
   20SAPC  C210 2610   5.705   2.997   9.903 -0.5086  0.5347 -0.2233
   20SAPC  H10R 2611   5.738   2.899   9.944 -1.4141 -0.0422 -0.8349
   20SAPC  H10S 2612   5.785   3.021   9.830 -0.6662  0.4711 -0.4181
   20SAPC  C211 2613   5.570   2.979   9.836 -0.1449  0.0645 -0.0479
   20SAPC  H11R 2614   5.480   2.984   9.899 -0.4136 -0.3350 -0.3997
   20SAPC  C212 2615   5.556   2.964   9.705 -0.1516 -0.2455 -0.0556
   20SAPC  H12R 2616   5.453   2.960   9.667 -0.1262 -0.5293 -0.0958
   20SAPC  C213 2617   5.664   2.963   9.602  0.0553 -0.1217 -0.0349
   20SAPC  H13R 2618   5.753   2.918   9.651 -0.9363 -0.4986  1.5030
   20SAPC  H13S 2619   5.690   3.064   9.563 -0.7924 -0.2846 -1.0627
   20SAPC  C214 2620   5.633   2.866   9.498  0.4981  0.0131 -0.5037
   20SAPC  H14R 2621   5.598   2.773   9.546  3.1866 -0.7826  0.0826
   20SAPC  C215 2622   5.662   2.877   9.363  0.3583  0.0493 -0.0884
   20SAPC  H15R 2623   5.636   2.796   9.292 -1.0188 -0.9869  1.5228
   20SAPC  C216 2624   5.728   2.989   9.292 -0.1503 -0.5711  0.5203
   20SAPC  H16R 2625   5.826   3.009   9.340 -0.8250 -0.1551  1.7676
   20SAPC  H16S 2626   5.667   3.082   9.293  0.9077  0.2351 -1.9864
   20SAPC  C217 2627   5.762   2.956   9.144  0.0839 -0.0452  0.2705
   20SAPC  H17R 2628   5.839   2.877   9.148  0.4053  0.1525 -1.3820
   20SAPC  H17S 2629   5.802   3.048   9.097 -1.5233 -0.4512 -2.0942
   20SAPC  C218 2630   5.655   2.913   9.052  0.0549 -0.3707  0.1100
   20SAPC  H18R 2631   5.575   2.987   9.031 -0.8201 -0.8659  1.5834
   20SAPC  H18S 2632   5.595   2.824   9.083 -1.3041  1.0726  1.8170
   20SAPC  C219 2633   5.708   2.864   8.912 -0.2089  0.8118 -0.1218
   20SAPC  H19R 2634   5.634   2.815   8.846  0.9826 -1.6394  0.2496
   20SAPC  H19S 2635   5.786   2.788   8.935 -2.3534 -1.4414  0.0548
   20SAPC  C220 2636   5.788   2.971   8.833 -0.3345 -0.9296 -0.0538
   20SAPC  H20R 2637   5.846   2.927   8.748 -0.5042 -3.3578  0.9993
   20SAPC  H20S 2638   5.850   3.040   8.893 -2.7267  1.7324 -0.4281
   20SAPC  H20T 2639   5.718   3.037   8.777  0.7568 -0.1527 -0.5345
   20SAPC   C33 2640   5.683   2.264   9.971  0.0175  0.6348 -0.0394
   20SAPC   H3X 2641   5.741   2.334   9.907 -0.9827  1.0506 -0.5175
   20SAPC   H3Y 2642   5.578   2.258   9.933  0.2666 -1.8826 -0.5095
   20SAPC   C34 2643   5.745   2.121   9.946 -0.1654 -0.0924  1.1962
   20SAPC   H4X 2644   5.682   2.041   9.991  0.3959 -1.1749  0.1070
   20SAPC   H4Y 2645   5.849   2.113   9.983  1.0120 -1.7697 -2.0850
   20SAPC   C35 2646   5.772   2.099   9.794  0.0208 -0.3245 -0.0793
   20SAPC   H5X 2647   5.836   2.177   9.747  0.1804 -2.0520 -3.0200
   20SAPC   H5Y 2648   5.673   2.092   9.744 -0.2035 -1.8550  0.5257
   20SAPC   C36 2649   5.837   1.962   9.772  0.0071  0.6458 -0.1233
   20SAPC   H6X 2650   5.767   1.889   9.817 -0.8805  0.5671 -1.5748
   20SAPC   H6Y 2651   5.927   1.963   9.836  0.4386 -0.2418 -0.7089
   20SAPC   C37 2652   5.846   1.931   9.624 -0.1115  0.2742  0.9354
   20SAPC   H7X 2653   5.908   2.018   9.594 -0.3362 -0.3158 -1.4156
   20SAPC   H7Y 2654   5.744   1.927   9.582 -0.3704 -0.7469  1.6289
   20SAPC   C38 2655   5.921   1.802   9.604  0.0693 -0.6313 -0.1703
   20SAPC   H8X 2656   5.844   1.728   9.633 -1.5961  0.9269 -0.4506
   20SAPC   H8Y 2657   6.014   1.796   9.665  0.9126  2.0423 -1.0299
   20SAPC   C39 2658   5.960   1.775   9.457  0.2260  0.4606  0.5226
   20SAPC   H9X 2659   6.014   1.679   9.448  0.7512  0.9405 -3.1836
   20SAPC   H9Y 2660   6.041   1.849   9.442  0.4588  0.5412  2.0492
   20SAPC  C310 2661   5.844   1.778   9.356  0.1319 -0.2498  0.2887
   20SAPC  H10X 2662   5.799   1.879   9.345  2.0546  0.4974 -1.0389
   20SAPC  H10Y 2663   5.765   1.715   9.404  0.8225 -0.3642  1.3164
   20SAPC  C311 2664   5.895   1.735   9.218 -0.5637  0.3397  0.7559
   20SAPC  H11X 2665   5.861   1.632   9.197  0.5038  0.0372  0.4504
   20SAPC  H11Y 2666   6.006   1.740   9.215 -0.2278 -3.5863 -2.8570
   20SAPC  C312 2667   5.835   1.835   9.115  0.0785 -0.0770 -0.2418
   20SAPC  H12X 2668   5.861   1.939   9.144  0.1955 -0.4294  0.9597
   20SAPC  H12Y 2669   5.726   1.815   9.122 -0.0288  0.2076 -1.0043
   20SAPC  C313 2670   5.884   1.803   8.974 -0.0960 -0.0885  0.5420
   20SAPC  H13X 2671   5.995   1.803   8.983  0.0483  1.8078 -0.8088
   20SAPC  H13Y 2672   5.857   1.892   8.915 -0.2135 -1.0607 -0.9218
   20SAPC  C314 2673   5.838   1.673   8.906  0.6961  0.2369  0.6333
   20SAPC  H14X 2674   5.728   1.658   8.910  0.7660 -0.0152  1.8392
   20SAPC  H14Y 2675   5.872   1.580   8.956  2.6798 -0.0625 -1.1130
   20SAPC  C315 2676   5.877   1.668   8.760 -0.7477 -0.2919 -0.4222
   20SAPC  H15X 2677   5.985   1.691   8.746 -1.4833  2.5590 -2.5695
   20SAPC  H15Y 2678   5.814   1.746   8.711 -0.8420  1.9778  3.0018
   20SAPC  C316 2679   5.828   1.535   8.706  0.7147 -0.4223 -0.0157
   20SAPC  H16X 2680   5.726   1.513   8.745  1.2540 -0.7353  1.2986
   20SAPC  H16Y 2681   5.880   1.453   8.760  0.6964 -0.5161 -0.1413
   20SAPC  C317 2682   5.831   1.518   8.551 -0.5362  0.2990 -0.3970
   20SAPC  H17X 2683   5.776   1.429   8.515  1.2986 -1.1116  0.1248
   20SAPC  H17Y 2684   5.935   1.495   8.519 -1.1300 -2.1330 -0.7103
   20SAPC  C318 2685   5.779   1.639   8.476 -0.2131  0.1765 -0.0181
   20SAPC  H18X 2686   5.780   1.616   8.367 -0.5813 -0.5200  0.1243
   20SAPC  H18Y 2687   5.845   1.729   8.484 -1.2053  1.0394 -1.1247
   20SAPC  H18Z 2688   5.675   1.664   8.503  0.1531  0.1758  1.4718
   21SAPC     N 2689   4.962   2.155  10.868 -0.4184 -0.1956 -0.0906
   21SAPC   C12 2690   4.853   2.109  10.780  0.3874 -0.2524 -0.1826
   21SAPC  H12A 2691   4.777   2.185  10.773 -1.7664 -2.2198  0.4404
   21SAPC  H12B 2692   4.796   2.035  10.834  0.6518 -0.2957  0.0456
   21SAPC   C13 2693   5.064   2.236  10.797  0.1303 -0.6419 -0.3082
   21SAPC  H13A 2694   5.130   2.181  10.732  0.6443  0.5463 -0.8049
   21SAPC  H13B 2695   5.016   2.315  10.741  0.0393 -0.7178 -0.3390
   21SAPC  H13C 2696   5.121   2.285  10.874  0.7117 -2.8383  0.7380
   21SAPC   C14 2697   4.905   2.243  10.974 -0.0526  0.3112 -0.9116
   21SAPC  H14A 2698   4.969   2.260  11.059 -1.7003 -0.2275  0.4985
   21SAPC  H14B 2699   4.861   2.331  10.928 -1.3920 -1.3851 -3.0926
   21SAPC  H14C 2700   4.826   2.187  11.021 -0.4861  0.6617 -1.2067
   21SAPC   C15 2701   5.031   2.044  10.936 -0.6954 -0.5063  0.1091
   21SAPC  H15A 2702   5.120   2.063  10.995 -0.9226 -1.7699  0.8966
   21SAPC  H15B 2703   4.967   1.988  11.003 -1.6450  2.0392  1.4823
   21SAPC  H15C 2704   5.075   1.982  10.859 -2.3872 -2.1218  0.3788
   21SAPC   C11 2705   4.888   2.054  10.644 -0.3023 -0.6304  0.6511
   21SAPC  H11A 2706   4.935   2.132  10.581  1.1459 -0.9295  1.3431
   21SAPC  H11B 2707   4.796   2.039  10.583  0.3746  0.2894 -0.6510
   21SAPC     P 2708   4.923   1.794  10.653  0.3868 -0.0548  0.1916
   21SAPC   O13 2709   4.965   1.711  10.536 -0.0734  0.4519  0.6344
   21SAPC   O14 2710   4.965   1.749  10.786 -0.4586  0.1837 -0.0593
   21SAPC   O12 2711   4.971   1.943  10.634  0.1538  0.3127  0.0156
   21SAPC   O11 2712   4.765   1.801  10.657  0.8685 -0.0434  0.1649
   21SAPC    C1 2713   4.675   1.690  10.618 -0.0488 -0.3605  0.7159
   21SAPC    HA 2714   4.728   1.593  10.620  2.6077  0.9576 -0.3643
   21SAPC    HB 2715   4.596   1.687  10.696 -0.7497 -2.8588 -0.0056
   21SAPC    C2 2716   4.614   1.724  10.479  0.0848  0.1842  0.8087
   21SAPC    HS 2717   4.703   1.753  10.419  1.6204  2.0836  3.7835
   21SAPC   O21 2718   4.518   1.829  10.506 -0.4369 -0.4635  0.5628
   21SAPC   C21 2719   4.518   1.923  10.413 -0.3758 -0.2474 -1.3205
   21SAPC   O22 2720   4.615   1.952  10.341  0.6920 -0.2259 -0.4440
   21SAPC   C22 2721   4.384   1.995  10.402 -0.5602 -0.3885 -0.9210
   21SAPC   H2R 2722   4.396   2.085  10.465  1.8442  0.8930 -3.0072
   21SAPC   H2S 2723   4.381   2.026  10.296  0.6266  2.3780 -0.2386
   21SAPC    C3 2724   4.548   1.603  10.409 -0.4116  0.6670  0.5247
   21SAPC    HX 2725   4.453   1.592  10.467  0.5152  0.9163  2.1478
   21SAPC    HY 2726   4.602   1.507  10.427  0.0264  0.9408  0.6845
   21SAPC   O31 2727   4.523   1.622  10.272  0.1209  0.7688 -0.6235
   21SAPC   C31 2728   4.622   1.582  10.187 -0.7336 -0.3075 -0.4849
   21SAPC   O32 2729   4.722   1.523  10.226  0.2912 -0.0953 -0.9225
   21SAPC   C32 2730   4.604   1.633  10.049 -0.0212  0.1263  0.4987
   21SAPC   H2X 2731   4.514   1.698  10.050  1.0001  1.5855  0.2366
   21SAPC   H2Y 2732   4.595   1.542   9.985  0.4548 -0.4806  1.2823
   21SAPC   C23 2733   4.259   1.912  10.438  0.4721 -0.3737  0.9860
   21SAPC   H3R 2734   4.203   1.978  10.508  0.1764  1.6898 -1.0608
   21SAPC   H3S 2735   4.269   1.813  10.488  0.7599 -0.5400  0.5999
   21SAPC   C24 2736   4.172   1.877  10.317 -0.0540  0.0700 -0.2040
   21SAPC   H4R 2737   4.087   1.819  10.358 -2.7161  2.9464 -1.2594
   21SAPC   H4S 2738   4.222   1.807  10.246 -0.3665  1.0009 -1.3658
   21SAPC   C25 2739   4.096   1.974  10.231  0.4040  0.6423 -0.5620
   21SAPC   H5R 2740   4.024   2.036  10.285  0.2034  0.2823 -0.4122
   21SAPC   C26 2741   4.108   2.004  10.104 -0.5867 -0.7600 -0.0113
   21SAPC   H6R 2742   4.038   2.079  10.063  0.5500  0.0646 -0.4752
   21SAPC   C27 2743   4.190   1.940   9.990 -0.3188  0.1377  0.0793
   21SAPC   H7R 2744   4.129   1.852   9.960  1.9037 -0.9245 -1.6443
   21SAPC   H7S 2745   4.282   1.882  10.014 -0.5213 -0.7711 -1.2615
   21SAPC   C28 2746   4.217   2.025   9.867 -0.3055  0.3896 -0.0781
   21SAPC   H8R 2747   4.316   2.071   9.876  0.0853 -0.5655  0.7323
   21SAPC   C29 2748   4.149   2.016   9.757  0.3268 -0.3018  0.6502
   21SAPC   H9R 2749   4.184   2.093   9.687  2.2797 -2.0193 -0.3861
   21SAPC  C210 2750   4.015   1.944   9.727 -0.0548  0.3022 -0.2500
   21SAPC  H10R 2751   3.953   2.015   9.668  0.6861 -0.4168 -1.9609
   21SAPC  H10S 2752   3.959   1.939   9.823  1.7827  2.2365  1.0185
   21SAPC  C211 2753   4.027   1.811   9.656 -0.2680  0.7167  0.2705
   21SAPC  H11R 2754   4.007   1.724   9.720 -1.3802 -0.1571 -1.2119
   21SAPC  C212 2755   4.058   1.795   9.523 -0.0013 -0.5460 -0.1157
   21SAPC  H12R 2756   4.053   1.693   9.483 -2.2917 -0.2824 -0.6274
   21SAPC  C213 2757   4.082   1.909   9.427  0.4908  0.2133 -0.8313
   21SAPC  H13R 2758   4.121   1.994   9.486 -1.2072  0.9003 -0.6415
   21SAPC  H13S 2759   3.986   1.949   9.388  0.4486  1.6693  0.6678
   21SAPC  C214 2760   4.180   1.864   9.320  0.3888  0.7648  0.0162
   21SAPC  H14R 2761   4.283   1.854   9.357  0.3394  1.9730  0.5196
   21SAPC  C215 2762   4.156   1.844   9.188 -0.7297  1.1278 -0.0415
   21SAPC  H15R 2763   4.245   1.805   9.136  0.6464  2.0534  1.4760
   21SAPC  C216 2764   4.027   1.858   9.112 -0.6086  0.1420 -0.7792
   21SAPC  H16R 2765   4.022   1.933   9.030 -1.5109  1.5084  0.4666
   21SAPC  H16S 2766   3.958   1.904   9.186  0.8537  1.6878 -0.3049
   21SAPC  C217 2767   3.943   1.737   9.067 -0.4581 -0.5974  0.2963
   21SAPC  H17R 2768   3.839   1.777   9.061 -0.2251  0.0830  0.7154
   21SAPC  H17S 2769   3.962   1.652   9.136  1.8516  1.4507  2.3224
   21SAPC  C218 2770   4.001   1.700   8.929 -0.4111  0.6138  0.2219
   21SAPC  H18R 2771   4.109   1.680   8.939 -0.0946  2.1581  0.1716
   21SAPC  H18S 2772   3.980   1.788   8.864 -2.6702  1.8512  2.4525
   21SAPC  C219 2773   3.933   1.572   8.866  0.0274 -0.4917  0.0192
   21SAPC  H19R 2774   3.926   1.498   8.948  0.2354 -1.3549 -0.7245
   21SAPC  H19S 2775   4.005   1.525   8.796 -1.2274  0.3464 -1.9299
   21SAPC  C220 2776   3.793   1.598   8.810 -0.3848  0.2210 -0.5091
   21SAPC  H20R 2777   3.737   1.510   8.771  1.5209 -0.8461 -0.9776
   21SAPC  H20S 2778   3.803   1.670   8.725 -1.9209  0.0869 -0.8328
   21SAPC  H20T 2779   3.738   1.651   8.891  0.2891  0.6375 -0.3123
   21SAPC   C33 2780   4.731   1.705  10.011  0.1759  0.4683  0.1035
   21SAPC   H3X 2781   4.810   1.629   9.994 -0.9556 -0.7768  0.2976
   21SAPC   H3Y 2782   4.771   1.772  10.090 -0.1830  0.2629  0.4614
   21SAPC   C34 2783   4.712   1.808   9.886 -0.1322 -0.5225  0.1231
   21SAPC   H4X 2784   4.664   1.748   9.806  1.7958 -2.7600  0.4995
   21SAPC   H4Y 2785   4.809   1.847   9.848 -0.7948  0.1568 -0.9267
   21SAPC   C35 2786   4.629   1.934   9.925 -0.5830 -0.0008 -0.1050
   21SAPC   H5X 2787   4.667   1.975  10.021  0.5172  0.8953 -0.9012
   21SAPC   H5Y 2788   4.525   1.904   9.950 -1.4834  2.5422 -0.5518
   21SAPC   C36 2789   4.633   2.038   9.813  0.2040 -0.1946  0.5730
   21SAPC   H6X 2790   4.738   2.066   9.789 -0.0410  1.3803  1.2557
   21SAPC   H6Y 2791   4.588   2.135   9.844  0.1317  0.2646 -0.8874
   21SAPC   C37 2792   4.558   1.985   9.686 -0.2094  0.3245 -0.1195
   21SAPC   H7X 2793   4.447   1.995   9.694 -0.3171 -0.5916 -0.2803
   21SAPC   H7Y 2794   4.569   1.874   9.679  2.4825  0.3908  1.7469
   21SAPC   C38 2795   4.621   2.044   9.558  0.8381 -0.1704  0.7657
   21SAPC   H8X 2796   4.728   2.016   9.561  1.0983  0.7434  0.3811
   21SAPC   H8Y 2797   4.623   2.155   9.547  1.7526 -0.2389  0.1117
   21SAPC   C39 2798   4.560   1.978   9.436  0.0174  0.0703  0.5937
   21SAPC   H9X 2799   4.450   1.993   9.440 -0.1483 -0.7496 -0.4926
   21SAPC   H9Y 2800   4.592   1.871   9.435  0.1373 -0.0356 -4.2103
   21SAPC  C310 2801   4.597   2.039   9.302 -0.4149  0.2758  0.1233
   21SAPC  H10X 2802   4.704   2.063   9.319 -0.9791  2.6619  0.5566
   21SAPC  H10Y 2803   4.550   2.138   9.291  0.1783  0.7809  1.7641
   21SAPC  C311 2804   4.560   1.939   9.192  0.6036 -0.0230  0.3999
   21SAPC  H11X 2805   4.450   1.923   9.200  0.3895  0.7369 -0.7960
   21SAPC  H11Y 2806   4.615   1.844   9.210 -0.4794 -0.4415  1.6754
   21SAPC  C312 2807   4.580   1.994   9.048 -0.0612  0.8779  0.1241
   21SAPC  H12X 2808   4.684   2.027   9.034 -0.1671  0.7958 -0.9416
   21SAPC  H12Y 2809   4.514   2.083   9.045 -2.0128 -0.4427  0.9040
   21SAPC  C313 2810   4.533   1.894   8.944  0.1635 -0.2656  0.9741
   21SAPC  H13X 2811   4.426   1.866   8.953 -0.6303  2.3402  0.3512
   21SAPC  H13Y 2812   4.600   1.810   8.971  2.9042  1.2765 -0.5380
   21SAPC  C314 2813   4.566   1.941   8.802  0.3374 -0.7976 -0.4102
   21SAPC  H14X 2814   4.549   1.855   8.734 -2.2705 -1.5049  1.0070
   21SAPC  H14Y 2815   4.675   1.957   8.787  0.1577  1.1817  0.1957
   21SAPC  C315 2816   4.484   2.063   8.757 -0.6667  0.0482 -0.3432
   21SAPC  H15X 2817   4.524   2.093   8.657  0.9140 -0.7678  0.0086
   21SAPC  H15Y 2818   4.509   2.140   8.832  0.1645  1.5963 -2.1107
   21SAPC  C316 2819   4.335   2.029   8.730  0.2380  0.3552 -0.4841
   21SAPC  H16X 2820   4.305   2.006   8.835  4.3107  0.6475  0.8855
   21SAPC  H16Y 2821   4.334   1.942   8.661 -0.7514  0.7901 -1.0501
   21SAPC  C317 2822   4.247   2.134   8.669  0.6869  0.1815  0.4485
   21SAPC  H17X 2823   4.282   2.161   8.567 -0.9440 -4.9557 -1.7735
   21SAPC  H17Y 2824   4.241   2.233   8.719 -0.8603  1.0128 -1.2689
   21SAPC  C318 2825   4.107   2.083   8.646  0.3666 -0.5268 -0.5875
   21SAPC  H18X 2826   4.061   2.029   8.731 -1.0816  1.7813  0.2134
   21SAPC  H18Y 2827   4.093   2.021   8.555 -0.4843  0.0260 -0.8544
   21SAPC  H18Z 2828   4.036   2.169   8.635  0.5418 -0.1593  0.9697
   22SAPC     N 2829   3.641   1.032  10.955 -0.9227  0.6928 -0.1335
   22SAPC   C12 2830   3.785   1.088  10.964  0.4618  0.1728  0.0672
   22SAPC  H12A 2831   3.771   1.161  11.043 -1.1882 -1.6129  1.5510
   22SAPC  H12B 2832   3.801   1.144  10.873  2.1170  1.6915  1.2183
   22SAPC   C13 2833   3.622   0.967  10.827  0.1142  0.1550  0.4377
   22SAPC  H13A 2834   3.681   0.876  10.822  0.7779  0.5251  1.2863
   22SAPC  H13B 2835   3.520   0.937  10.813 -0.2325  1.9498 -1.4641
   22SAPC  H13C 2836   3.664   1.030  10.750  2.6962  2.6676  3.5859
   22SAPC   C14 2837   3.611   0.944  11.073 -1.0908  0.4039  0.0605
   22SAPC  H14A 2838   3.519   0.888  11.062 -0.1228 -1.4943  1.0807
   22SAPC  H14B 2839   3.687   0.871  11.095  1.5259  2.6119 -1.1680
   22SAPC  H14C 2840   3.612   1.001  11.165  1.0776  0.2849  0.1478
   22SAPC   C15 2841   3.537   1.138  10.953  0.8290 -0.1325  0.4136
   22SAPC  H15A 2842   3.438   1.098  10.943  0.7533 -0.7214  2.8550
   22SAPC  H15B 2843   3.544   1.216  11.028  3.7081  1.9136 -1.7555
   22SAPC  H15C 2844   3.557   1.194  10.863 -2.4779  1.4582  0.5196
   22SAPC   C11 2845   3.900   0.989  10.973  0.4915 -0.5586 -0.1971
   22SAPC  H11A 2846   3.873   0.901  11.036  0.9190 -1.5203 -1.3297
   22SAPC  H11B 2847   3.991   1.036  11.016  1.7880  0.2130 -3.5048
   22SAPC     P 2848   3.985   1.007  10.728 -0.4701 -0.4179 -0.0637
   22SAPC   O13 2849   4.109   1.084  10.762 -0.2330 -0.0529  0.2945
   22SAPC   O14 2850   3.992   0.912  10.616 -0.3298 -0.3535  0.0793
   22SAPC   O12 2851   3.932   0.927  10.850 -0.6307  0.4465  0.0127
   22SAPC   O11 2852   3.864   1.109  10.694 -0.3013 -0.6147 -0.2159
   22SAPC    C1 2853   3.882   1.254  10.684  0.1348  0.0725 -0.1997
   22SAPC    HA 2854   3.794   1.298  10.737 -0.1709  0.9008 -1.3487
   22SAPC    HB 2855   3.969   1.286  10.744 -1.1425  1.6980  0.8929
   22SAPC    C2 2856   3.892   1.306  10.539  0.4121  1.0621  0.1815
   22SAPC    HS 2857   3.801   1.270  10.486  1.3481  0.5402 -1.1448
   22SAPC   O21 2858   4.013   1.259  10.484 -0.6144 -0.0357  0.3824
   22SAPC   C21 2859   4.001   1.168  10.390  0.7004  0.7559  0.7275
   22SAPC   O22 2860   3.905   1.132  10.321  0.5553  0.9607 -0.3596
   22SAPC   C22 2861   4.141   1.113  10.364 -0.3883 -0.4194 -0.5982
   22SAPC   H2R 2862   4.203   1.197  10.326  0.6753 -0.3244  1.2290
   22SAPC   H2S 2863   4.188   1.092  10.463 -0.9017  2.5815  0.4112
   22SAPC    C3 2864   3.892   1.459  10.525  0.7859  0.2192  0.2985
   22SAPC    HX 2865   3.974   1.496  10.591 -0.0506  1.6705  0.5754
   22SAPC    HY 2866   3.795   1.491  10.569  1.5282  1.1343  1.3293
   22SAPC   O31 2867   3.907   1.502  10.384 -0.0286  0.1255  0.1290
   22SAPC   C31 2868   3.881   1.620  10.359 -0.6532  0.4577  0.3224
   22SAPC   O32 2869   3.850   1.714  10.435  0.0050  0.3693  0.0244
   22SAPC   C32 2870   3.874   1.642  10.210 -0.4964  0.3137  0.3848
   22SAPC   H2X 2871   3.973   1.677  10.175  0.1091 -1.3936  0.3237
   22SAPC   H2Y 2872   3.794   1.717  10.187  0.0422  0.6897 -0.3268
   22SAPC   C23 2873   4.159   0.987  10.284 -0.6760 -0.2146  0.1906
   22SAPC   H3R 2874   4.073   0.918  10.298 -1.1665  0.2279 -0.5538
   22SAPC   H3S 2875   4.250   0.928  10.309 -0.1800  0.0481 -0.9043
   22SAPC   C24 2876   4.174   1.027  10.136 -0.1315 -0.1556  0.0744
   22SAPC   H4R 2877   4.088   1.086  10.096 -0.3782  1.0319  2.2239
   22SAPC   H4S 2878   4.174   0.927  10.086 -0.9696  0.1902 -0.6393
   22SAPC   C25 2879   4.301   1.102  10.101 -1.2615 -0.6830  0.0569
   22SAPC   H5R 2880   4.383   1.031  10.085  0.9874  1.1630  2.4812
   22SAPC   C26 2881   4.311   1.237  10.078 -0.2622  0.6130 -0.2896
   22SAPC   H6R 2882   4.407   1.287  10.060 -0.1794  0.9596  1.0230
   22SAPC   C27 2883   4.192   1.332  10.083  0.0694  0.1565 -0.3737
   22SAPC   H7R 2884   4.119   1.301  10.161  0.9922 -0.0930  0.4027
   22SAPC   H7S 2885   4.133   1.324   9.988 -0.6300 -3.4129  0.2021
   22SAPC   C28 2886   4.247   1.475  10.108  0.7351  0.1078 -0.4225
   22SAPC   H8R 2887   4.257   1.487  10.217 -1.4332 -1.8271  0.0635
   22SAPC   C29 2888   4.282   1.561  10.006  0.3158  0.0460  0.2450
   22SAPC   H9R 2889   4.299   1.667  10.029 -1.9806  0.8080 -1.1456
   22SAPC  C210 2890   4.282   1.518   9.864  0.2095  0.0604  0.5516
   22SAPC  H10R 2891   4.181   1.485   9.831 -0.3816  2.7223 -0.5873
   22SAPC  H10S 2892   4.348   1.429   9.858 -1.9879 -1.6237  0.3744
   22SAPC  C211 2893   4.337   1.628   9.772  0.2888  0.1826 -0.6735
   22SAPC  H11R 2894   4.271   1.716   9.769  2.3250  1.8779  1.1202
   22SAPC  C212 2895   4.443   1.625   9.689 -0.2565 -0.6135 -0.6522
   22SAPC  H12R 2896   4.457   1.712   9.624  0.6424 -0.9448 -0.9232
   22SAPC  C213 2897   4.536   1.514   9.666  0.1282  0.2578  0.0223
   22SAPC  H13R 2898   4.480   1.440   9.606  1.2595 -0.3989 -0.2572
   22SAPC  H13S 2899   4.561   1.459   9.760  0.2642 -1.4242 -0.9724
   22SAPC  C214 2900   4.665   1.551   9.602  0.4496  0.7006 -0.1286
   22SAPC  H14R 2901   4.754   1.532   9.665  1.3421  0.0651 -1.5269
   22SAPC  C215 2902   4.699   1.552   9.473  0.7357  0.0861 -0.2591
   22SAPC  H15R 2903   4.794   1.596   9.438 -0.1856  1.8485 -0.6982
   22SAPC  C216 2904   4.609   1.529   9.362 -0.0660  0.2975  0.0926
   22SAPC  H16R 2905   4.555   1.624   9.339  0.7668  1.1018  1.3502
   22SAPC  H16S 2906   4.528   1.456   9.385  0.2876  0.0463  0.5484
   22SAPC  C217 2907   4.681   1.477   9.236  0.4810  0.2002 -1.0198
   22SAPC  H17R 2908   4.750   1.397   9.272 -1.3985 -0.3818  1.6252
   22SAPC  H17S 2909   4.748   1.558   9.200 -2.9189  2.8084 -1.9803
   22SAPC  C218 2910   4.588   1.424   9.126 -0.8715  0.4153  0.3790
   22SAPC  H18R 2911   4.534   1.341   9.176  2.5152 -1.1290  1.7240
   22SAPC  H18S 2912   4.644   1.388   9.038 -0.8393  0.4369  0.3905
   22SAPC  C219 2913   4.483   1.519   9.066 -0.3349  0.1800  0.2267
   22SAPC  H19R 2914   4.524   1.619   9.041  0.3527 -0.5449 -1.7115
   22SAPC  H19S 2915   4.403   1.531   9.142  0.6072  3.3975  0.8571
   22SAPC  C220 2916   4.424   1.467   8.939  0.2816  0.4472  0.6573
   22SAPC  H20R 2917   4.353   1.539   8.894 -1.9019 -1.0736  1.4598
   22SAPC  H20S 2918   4.392   1.361   8.953  1.9203 -0.4832 -1.9142
   22SAPC  H20T 2919   4.506   1.455   8.866  0.2407 -0.5103  0.7484
   22SAPC   C33 2920   3.846   1.512  10.130 -0.0697 -0.5853 -0.5940
   22SAPC   H3X 2921   3.741   1.479  10.144 -0.1092 -0.2107  0.0643
   22SAPC   H3Y 2922   3.905   1.423  10.159 -0.0733 -0.7768 -1.1543
   22SAPC   C34 2923   3.857   1.538   9.980 -0.4719 -0.1597 -0.9202
   22SAPC   H4X 2924   3.965   1.546   9.954 -0.8125  0.1249 -2.3047
   22SAPC   H4Y 2925   3.818   1.639   9.954  1.2904  0.8932  0.3147
   22SAPC   C35 2926   3.797   1.422   9.902 -0.0422  0.1524 -0.6317
   22SAPC   H5X 2927   3.689   1.443   9.922  0.6489  0.9937  2.9282
   22SAPC   H5Y 2928   3.823   1.321   9.941 -0.0040  0.3675 -0.0897
   22SAPC   C36 2929   3.828   1.420   9.748 -0.0075 -0.1016  0.0555
   22SAPC   H6X 2930   3.889   1.328   9.733 -2.7839 -1.8941 -1.1145
   22SAPC   H6Y 2931   3.890   1.511   9.732  0.1017 -0.0883  0.5454
   22SAPC   C37 2932   3.716   1.420   9.646 -0.1529  0.2302 -0.6176
   22SAPC   H7X 2933   3.666   1.518   9.657 -0.8638 -0.1955 -0.0056
   22SAPC   H7Y 2934   3.650   1.334   9.669 -1.0994  0.6759 -1.5605
   22SAPC   C38 2935   3.765   1.394   9.503 -0.1184 -0.0413  0.0415
   22SAPC   H8X 2936   3.839   1.311   9.498 -0.0119  0.0808 -0.4897
   22SAPC   H8Y 2937   3.811   1.482   9.454 -0.1136 -0.8759 -1.5326
   22SAPC   C39 2938   3.644   1.375   9.412  0.2184  0.1437 -0.4668
   22SAPC   H9X 2939   3.575   1.457   9.439  1.3290  0.4274  1.7195
   22SAPC   H9Y 2940   3.594   1.280   9.441  0.0884 -0.5385 -2.6869
   22SAPC  C310 2941   3.675   1.397   9.259  1.1045  1.4037 -0.3594
   22SAPC  H10X 2942   3.754   1.326   9.227  0.8485  0.8585  0.2070
   22SAPC  H10Y 2943   3.721   1.499   9.259  0.6862  1.6581  1.9487
   22SAPC  C311 2944   3.553   1.382   9.172  0.4284 -0.6918 -0.0442
   22SAPC  H11X 2945   3.482   1.464   9.194  1.1171 -0.5961  2.1047
   22SAPC  H11Y 2946   3.509   1.282   9.191 -3.3880  0.5453 -1.3993
   22SAPC  C312 2947   3.598   1.390   9.030 -0.2054  0.1598  0.1990
   22SAPC  H12X 2948   3.693   1.340   8.998 -2.4221 -4.2090 -0.3313
   22SAPC  H12Y 2949   3.609   1.498   9.008  0.3470 -0.4106 -2.8164
   22SAPC  C313 2950   3.487   1.327   8.941  0.3933 -0.2646 -0.4191
   22SAPC  H13X 2951   3.392   1.382   8.961  0.0918 -0.8701 -0.1768
   22SAPC  H13Y 2952   3.467   1.224   8.978  0.8597 -0.4499 -0.6770
   22SAPC  C314 2953   3.520   1.316   8.789 -0.3701 -0.0739  0.0550
   22SAPC  H14X 2954   3.616   1.265   8.767  0.8980  1.9683  0.6709
   22SAPC  H14Y 2955   3.542   1.418   8.750  0.7812 -0.9518 -1.7496
   22SAPC  C315 2956   3.408   1.251   8.712  0.0059 -0.5305  0.7077
   22SAPC  H15X 2957   3.396   1.147   8.747  1.4762 -0.4383  1.5466
   22SAPC  H15Y 2958   3.446   1.250   8.608 -1.0605  1.8940  0.2023
   22SAPC  C316 2959   3.271   1.328   8.703 -0.0495 -0.1774 -0.4831
   22SAPC  H16X 2960   3.225   1.294   8.799  5.0022  0.8952  2.7593
   22SAPC  H16Y 2961   3.216   1.288   8.616  0.1529 -0.0366 -0.6752
   22SAPC  C317 2962   3.279   1.490   8.694 -0.0761 -0.4303  0.1371
   22SAPC  H17X 2963   3.331   1.529   8.785  1.9975 -1.5118 -0.5035
   22SAPC  H17Y 2964   3.173   1.520   8.690 -0.0640 -0.5349 -2.0127
   22SAPC  C318 2965   3.350   1.534   8.564  0.1523  0.1482  0.4812
   22SAPC  H18X 2966   3.300   1.496   8.472  1.4946  2.6153 -1.3752
   22SAPC  H18Y 2967   3.455   1.498   8.564  1.0648  2.6207  0.5883
   22SAPC  H18Z 2968   3.357   1.644   8.555 -0.3301  0.3276  2.0514
   23SAPC     N 2969   5.198   1.472  10.734  0.2510 -0.4110  0.3665
   23SAPC   C12 2970   5.232   1.618  10.722 -0.2506 -0.0646 -0.2140
   23SAPC  H12A 2971   5.312   1.637  10.792  0.1028 -0.6658 -0.4503
   23SAPC  H12B 2972   5.142   1.673  10.748 -0.6914 -0.3343 -1.1139
   23SAPC   C13 2973   5.106   1.417  10.629 -0.2766 -0.2411  0.3409
   23SAPC  H13A 2974   5.034   1.496  10.613 -0.6395 -0.3438  1.3693
   23SAPC  H13B 2975   5.160   1.414  10.535 -0.1329  0.8241  0.3723
   23SAPC  H13C 2976   5.061   1.322  10.655  1.1460 -1.1223 -0.3041
   23SAPC   C14 2977   5.316   1.393  10.721 -1.0715 -0.5392 -0.1366
   23SAPC  H14A 2978   5.306   1.290  10.751  0.8283 -0.7232  0.0306
   23SAPC  H14B 2979   5.354   1.408  10.620 -1.0953  2.8531  0.2275
   23SAPC  H14C 2980   5.393   1.426  10.789 -0.0327 -1.3738 -0.8722
   23SAPC   C15 2981   5.140   1.443  10.864 -0.2553 -0.0401 -0.6021
   23SAPC  H15A 2982   5.122   1.340  10.891 -0.4377 -0.3624 -1.9171
   23SAPC  H15B 2983   5.197   1.494  10.941  0.9985 -2.3056  0.0462
   23SAPC  H15C 2984   5.045   1.494  10.866 -0.0525  0.4683 -2.3205
   23SAPC   C11 2985   5.291   1.673  10.591 -0.5541  0.2763 -0.2617
   23SAPC  H11A 2986   5.290   1.784  10.588  1.5707  0.3426  0.2315
   23SAPC  H11B 2987   5.217   1.629  10.520 -1.4167  0.8285  0.2809
   23SAPC     P 2988   5.542   1.693  10.631  0.0520 -0.2237  0.1792
   23SAPC   O13 2989   5.500   1.799  10.725 -0.0298 -0.1507 -0.3582
   23SAPC   O14 2990   5.630   1.584  10.682  0.3553 -0.8874 -0.1289
   23SAPC   O12 2991   5.423   1.622  10.569  0.3879  0.6206 -0.2431
   23SAPC   O11 2992   5.623   1.761  10.515 -0.4237  0.6871 -0.0365
   23SAPC    C1 2993   5.558   1.830  10.408 -0.0174 -0.5418  0.5061
   23SAPC    HA 2994   5.460   1.878  10.421  0.2510  0.2951 -0.4351
   23SAPC    HB 2995   5.627   1.912  10.378  1.1786 -1.5083  0.5205
   23SAPC    C2 2996   5.546   1.741  10.280  0.6111 -0.3579 -0.5629
   23SAPC    HS 2997   5.467   1.668  10.304 -0.3171  0.6024 -0.6219
   23SAPC   O21 2998   5.672   1.686  10.246  0.3806  0.2448  0.1362
   23SAPC   C21 2999   5.694   1.558  10.261 -0.9934 -0.1094 -0.3214
   23SAPC   O22 3000   5.609   1.480  10.287  0.1228  0.3512  0.0774
   23SAPC   C22 3001   5.848   1.535  10.236 -0.2119  0.2987 -0.1694
   23SAPC   H2R 3002   5.897   1.548  10.335  0.5747 -0.6270 -0.4274
   23SAPC   H2S 3003   5.881   1.435  10.204  0.4446  0.8137 -1.1283
   23SAPC    C3 3004   5.486   1.808  10.155 -0.3352 -0.4112 -0.8967
   23SAPC    HX 3005   5.564   1.870  10.108  0.3752 -1.0205 -0.5376
   23SAPC    HY 3006   5.414   1.883  10.194 -0.8200 -0.6448 -1.3293
   23SAPC   O31 3007   5.441   1.721  10.053 -0.1867 -0.2206 -0.6698
   23SAPC   C31 3008   5.329   1.655  10.097  0.2391 -0.3361  0.6745
   23SAPC   O32 3009   5.263   1.677  10.194 -0.2308 -0.4047 -0.2424
   23SAPC   C32 3010   5.288   1.547   9.997  0.5659 -1.0522  0.8158
   23SAPC   H2X 3011   5.346   1.455  10.018  3.4464  0.2441 -0.8940
   23SAPC   H2Y 3012   5.319   1.599   9.903  2.4994 -1.7340  1.0314
   23SAPC   C23 3013   5.917   1.631  10.139 -0.0005 -0.0821  0.6573
   23SAPC   H3R 3014   6.021   1.594  10.129  0.2575 -0.1304  2.9636
   23SAPC   H3S 3015   5.904   1.735  10.175 -0.2314 -0.5048  1.8589
   23SAPC   C24 3016   5.842   1.627  10.007 -0.3255 -0.3621  1.1013
   23SAPC   H4R 3017   5.860   1.725   9.958 -2.5201  0.1722  1.2330
   23SAPC   H4S 3018   5.732   1.645  10.007 -0.4680 -1.1781  1.2358
   23SAPC   C25 3019   5.882   1.520   9.908  0.4987  0.6604  0.1414
   23SAPC   H5R 3020   5.989   1.502   9.888  0.7498  3.4582 -1.4961
   23SAPC   C26 3021   5.795   1.447   9.836 -0.0977 -0.3134  0.0022
   23SAPC   H6R 3022   5.836   1.378   9.760 -0.9245 -0.7437 -0.0604
   23SAPC   C27 3023   5.644   1.469   9.839  0.3710  0.5834 -0.1225
   23SAPC   H7R 3024   5.611   1.509   9.938  0.2459  1.8018 -0.6340
   23SAPC   H7S 3025   5.596   1.369   9.835  1.5074 -0.0678  1.3684
   23SAPC   C28 3026   5.593   1.563   9.731  1.1335  0.5683 -0.1561
   23SAPC   H8R 3027   5.586   1.667   9.766 -0.0441  0.2603  0.5728
   23SAPC   C29 3028   5.581   1.529   9.598 -0.1823  0.2373  0.4752
   23SAPC   H9R 3029   5.554   1.604   9.523  0.0392 -2.1017 -2.0772
   23SAPC  C210 3030   5.611   1.399   9.536  0.7511 -0.5701  0.0733
   23SAPC  H10R 3031   5.618   1.324   9.617 -1.4999 -1.7200 -0.6967
   23SAPC  H10S 3032   5.709   1.411   9.486  1.3077 -0.2492  1.2143
   23SAPC  C211 3033   5.509   1.362   9.436  0.3163 -0.2955 -0.4216
   23SAPC  H11R 3034   5.404   1.359   9.469 -0.4850 -2.0301 -2.7782
   23SAPC  C212 3035   5.533   1.314   9.309  0.5104 -0.4537  0.6329
   23SAPC  H12R 3036   5.451   1.279   9.245 -0.4032 -2.0675  2.5471
   23SAPC  C213 3037   5.668   1.295   9.240  0.4955 -0.4002 -0.1610
   23SAPC  H13R 3038   5.755   1.312   9.307 -0.3866  0.0341  0.9081
   23SAPC  H13S 3039   5.684   1.366   9.157 -2.6411 -0.8996 -1.3180
   23SAPC  C214 3040   5.681   1.161   9.177  0.0751  0.4317  0.3793
   23SAPC  H14R 3041   5.756   1.104   9.235 -0.1763  0.1530  0.4330
   23SAPC  C215 3042   5.633   1.108   9.063  0.0478  0.2766  0.3131
   23SAPC  H15R 3043   5.647   1.004   9.032 -0.5843  0.0433  0.8088
   23SAPC  C216 3044   5.553   1.187   8.965 -0.2950 -0.0506 -0.1709
   23SAPC  H16R 3045   5.536   1.286   9.013  3.0211 -1.1136  3.8049
   23SAPC  H16S 3046   5.455   1.139   8.944 -1.6975  2.6733 -0.3807
   23SAPC  C217 3047   5.627   1.209   8.835 -0.1493  0.2163 -0.3952
   23SAPC  H17R 3048   5.710   1.280   8.859 -1.1486  1.1765  0.3159
   23SAPC  H17S 3049   5.562   1.271   8.771  0.9369 -1.0534 -2.8550
   23SAPC  C218 3050   5.676   1.085   8.756 -0.2678 -0.5908  0.2111
   23SAPC  H18R 3051   5.595   1.017   8.724  0.2941 -1.3009  0.2748
   23SAPC  H18S 3052   5.748   1.030   8.820  0.0956  0.4145  0.6930
   23SAPC  C219 3053   5.755   1.126   8.626 -0.3078 -0.0328 -0.3124
   23SAPC  H19R 3054   5.836   1.195   8.658  1.5685 -1.6854 -1.2563
   23SAPC  H19S 3055   5.684   1.171   8.554 -0.5239 -0.9793 -0.7102
   23SAPC  C220 3056   5.825   1.017   8.547 -0.0921 -0.9217 -0.2468
   23SAPC  H20R 3057   5.871   0.938   8.611  1.5456  0.1546 -0.0225
   23SAPC  H20S 3058   5.890   1.049   8.463  0.3649  0.0975  0.4746
   23SAPC  H20T 3059   5.739   0.977   8.490  0.1633  2.1412 -3.0534
   23SAPC   C33 3060   5.137   1.511  10.009 -0.0042 -0.0480  0.6358
   23SAPC   H3X 3061   5.076   1.604  10.014 -2.4135 -1.5258  0.5752
   23SAPC   H3Y 3062   5.122   1.453  10.103 -0.4916  1.5821  1.6027
   23SAPC   C34 3063   5.079   1.421   9.899  0.2147  0.2026 -0.0358
   23SAPC   H4X 3064   4.970   1.406   9.919 -0.2113  2.5936 -0.3202
   23SAPC   H4Y 3065   5.127   1.321   9.896  0.4421  0.3049  0.1759
   23SAPC   C35 3066   5.089   1.490   9.758  0.7264 -0.1262  0.0162
   23SAPC   H5X 3067   5.197   1.507   9.738  1.4798 -3.1473  0.9027
   23SAPC   H5Y 3068   5.030   1.584   9.764  0.7635 -0.1425  0.6540
   23SAPC   C36 3069   5.041   1.404   9.646 -0.9392 -0.3776  0.5321
   23SAPC   H6X 3070   4.931   1.389   9.655 -1.4088  2.2758  0.0931
   23SAPC   H6Y 3071   5.094   1.307   9.644  1.2349  0.7325 -0.8421
   23SAPC   C37 3072   5.072   1.470   9.510 -0.1057 -0.4241  0.3794
   23SAPC   H7X 3073   5.180   1.468   9.483 -0.7237  1.3355 -2.7229
   23SAPC   H7Y 3074   5.044   1.577   9.516 -2.3602 -1.0561  2.3675
   23SAPC   C38 3075   5.001   1.400   9.391  0.3438 -0.5747  0.4695
   23SAPC   H8X 3076   4.999   1.489   9.324  0.2608 -0.7921  0.1798
   23SAPC   H8Y 3077   4.897   1.362   9.397  0.1737 -0.7662 -2.2438
   23SAPC   C39 3078   5.066   1.284   9.313 -0.3233  0.4434 -0.2284
   23SAPC   H9X 3079   5.058   1.194   9.377 -0.6952  0.3727 -0.3762
   23SAPC   H9Y 3080   5.166   1.299   9.268 -1.2928 -1.7033 -3.4101
   23SAPC  C310 3081   4.991   1.243   9.184  0.8545  0.7327  0.1679
   23SAPC  H10X 3082   4.882   1.228   9.199  0.9645 -0.3362  0.0320
   23SAPC  H10Y 3083   5.022   1.141   9.151 -3.0777 -1.1651  1.7194
   23SAPC  C311 3084   4.990   1.348   9.071 -0.1805  0.4808  0.2116
   23SAPC  H11X 3085   5.096   1.373   9.050 -0.0994 -1.3738 -1.9056
   23SAPC  H11Y 3086   4.936   1.437   9.111  0.0156  0.3466  0.7831
   23SAPC  C312 3087   4.916   1.310   8.936  0.2365 -0.0045  0.1700
   23SAPC  H12X 3088   4.812   1.274   8.942  0.2474 -0.3046 -1.2704
   23SAPC  H12Y 3089   4.978   1.226   8.899 -0.4022  0.6302 -2.5659
   23SAPC  C313 3090   4.931   1.418   8.827  1.2422  0.2912 -0.3050
   23SAPC  H13X 3091   4.911   1.363   8.733 -0.1125 -0.1998  0.2545
   23SAPC  H13Y 3092   5.038   1.448   8.834  1.6306 -0.6675 -1.6480
   23SAPC  C314 3093   4.815   1.521   8.845 -0.4040  0.2361  0.0010
   23SAPC  H14X 3094   4.844   1.561   8.944  2.0519  0.4448 -0.7335
   23SAPC  H14Y 3095   4.724   1.458   8.846 -0.5773  0.4932  0.5245
   23SAPC  C315 3096   4.811   1.631   8.746 -0.0377 -0.1661  0.4277
   23SAPC  H15X 3097   4.903   1.692   8.757 -0.2202  0.2855 -0.5076
   23SAPC  H15Y 3098   4.722   1.691   8.775 -1.6908 -2.4731  0.4085
   23SAPC  C316 3099   4.783   1.569   8.608  0.4261 -0.4810  0.0078
   23SAPC  H16X 3100   4.683   1.521   8.604  1.1964 -2.0764 -1.3635
   23SAPC  H16Y 3101   4.861   1.495   8.581  2.0763 -0.6050  4.3312
   23SAPC  C317 3102   4.789   1.677   8.496  0.0947  0.2682 -0.2558
   23SAPC  H17X 3103   4.693   1.734   8.500 -1.0643 -1.6323 -0.0336
   23SAPC  H17Y 3104   4.801   1.633   8.395  1.8998  1.0430 -0.4158
   23SAPC  C318 3105   4.906   1.781   8.512 -0.0117 -0.2437 -0.1205
   23SAPC  H18X 3106   4.890   1.853   8.429 -0.4893  0.5764  0.6633
   23SAPC  H18Y 3107   5.004   1.731   8.495 -0.9244 -1.9117 -0.6829
   23SAPC  H18Z 3108   4.904   1.827   8.613 -1.6733 -1.1221  0.2786
   24SAPC     N 3109   4.710   4.724  11.136  0.3199  0.4089 -0.6787
   24SAPC   C12 3110   4.695   4.614  11.036  0.5074  1.0489 -0.0276
   24SAPC  H12A 3111   4.660   4.525  11.086  0.2890  2.1881  1.9530
   24SAPC  H12B 3112   4.797   4.590  11.007  0.7655  0.4317  1.3359
   24SAPC   C13 3113   4.736   4.857  11.067  0.0532  0.6471  0.5366
   24SAPC  H13A 3114   4.812   4.842  10.991 -0.9269 -3.5363  0.1644
   24SAPC  H13B 3115   4.649   4.890  11.014 -1.0138 -1.1824  1.0699
   24SAPC  H13C 3116   4.765   4.937  11.134  0.5204  0.5494  0.4596
   24SAPC   C14 3117   4.591   4.747  11.225  0.8743  0.4359  0.6016
   24SAPC  H14A 3118   4.581   4.665  11.294  0.6731  0.1692  0.2581
   24SAPC  H14B 3119   4.588   4.845  11.272  0.3373 -0.4839  2.5620
   24SAPC  H14C 3120   4.504   4.737  11.162  0.7735  1.9233  0.4686
   24SAPC   C15 3121   4.823   4.701  11.240  0.3618 -0.2916  0.6460
   24SAPC  H15A 3122   4.921   4.699  11.194  0.5314  0.5184  0.9553
   24SAPC  H15B 3123   4.836   4.777  11.316 -0.3220 -0.5159  0.9948
   24SAPC  H15C 3124   4.803   4.616  11.304 -1.3847  0.4962  1.1985
   24SAPC   C11 3125   4.594   4.627  10.918  0.7753 -0.7071 -0.1753
   24SAPC  H11A 3126   4.589   4.526  10.872 -0.1733 -0.8019  0.1052
   24SAPC  H11B 3127   4.638   4.708  10.856  0.2384 -0.7549 -0.6267
   24SAPC     P 3128   4.385   4.777  10.907 -0.3762 -0.1904 -0.4629
   24SAPC   O13 3129   4.242   4.748  10.937  0.2303 -0.2754  0.0891
   24SAPC   O14 3130   4.447   4.898  10.972 -0.2644  0.2112 -0.2034
   24SAPC   O12 3131   4.459   4.643  10.957 -0.6545  0.0670  0.0048
   24SAPC   O11 3132   4.400   4.786  10.750  0.2569  0.0631  0.0403
   24SAPC    C1 3133   4.343   4.686  10.662 -0.1832 -0.0061 -0.4683
   24SAPC    HA 3134   4.429   4.632  10.616 -1.0906  0.7729 -3.3345
   24SAPC    HB 3135   4.291   4.608  10.721  1.4671 -0.5362  0.3591
   24SAPC    C2 3136   4.239   4.726  10.557  1.1886 -0.7165 -0.2163
   24SAPC    HS 3137   4.215   4.645  10.484 -1.4234  1.6843 -2.2771
   24SAPC   O21 3138   4.289   4.836  10.482 -0.2368  0.2607  0.5059
   24SAPC   C21 3139   4.383   4.803  10.391  0.0506  0.6784  0.4360
   24SAPC   O22 3140   4.418   4.688  10.366 -0.4614 -0.3023 -0.2727
   24SAPC   C22 3141   4.434   4.927  10.322  0.5532 -0.8817 -0.5483
   24SAPC   H2R 3142   4.403   5.015  10.383  0.3298 -1.4594  0.1797
   24SAPC   H2S 3143   4.545   4.915  10.325  0.6105 -0.5062 -0.9824
   24SAPC    C3 3144   4.115   4.772  10.638 -0.2032  0.3169 -0.6230
   24SAPC    HX 3145   4.153   4.867  10.681  2.0592 -1.2749  1.1315
   24SAPC    HY 3146   4.091   4.704  10.723 -0.4893  1.6862  0.4242
   24SAPC   O31 3147   4.001   4.790  10.556 -0.3053  0.4797  0.3312
   24SAPC   C31 3148   3.980   4.905  10.495 -0.0585  0.4145  0.7837
   24SAPC   O32 3149   4.055   5.004  10.494  0.1057 -0.0707 -0.3384
   24SAPC   C32 3150   3.851   4.899  10.403  0.1262 -0.2132 -0.3425
   24SAPC   H2X 3151   3.827   5.001  10.367  0.9793  0.0210 -0.2632
   24SAPC   H2Y 3152   3.765   4.888  10.473 -0.5436  4.2073 -0.2232
   24SAPC   C23 3153   4.400   4.941  10.172  0.0730 -0.0315 -0.3039
   24SAPC   H3R 3154   4.293   4.968  10.158  0.6533  1.9720 -1.3064
   24SAPC   H3S 3155   4.432   4.848  10.121 -0.4811  0.7048 -2.0598
   24SAPC   C24 3156   4.480   5.038  10.089 -0.3879 -0.3713 -0.5624
   24SAPC   H4R 3157   4.450   5.006   9.987  1.3735 -2.1215 -0.5984
   24SAPC   H4S 3158   4.591   5.031  10.092 -0.0395  3.2717 -0.5392
   24SAPC   C25 3159   4.438   5.178  10.137  0.4706 -0.0121  0.1286
   24SAPC   H5R 3160   4.411   5.183  10.244 -2.4439 -0.0521 -0.5096
   24SAPC   C26 3161   4.429   5.288  10.057 -0.2917 -0.3955 -0.1193
   24SAPC   H6R 3162   4.415   5.387  10.102 -0.2726  0.6656 -2.3374
   24SAPC   C27 3163   4.467   5.290   9.910  0.3044 -0.3948 -0.1271
   24SAPC   H7R 3164   4.534   5.205   9.887  2.2449  0.4480  2.0110
   24SAPC   H7S 3165   4.509   5.389   9.879  1.1909 -0.7445 -0.0625
   24SAPC   C28 3166   4.361   5.277   9.805 -0.4604 -0.1530  0.0812
   24SAPC   H8R 3167   4.265   5.257   9.855  0.6642  0.1240  2.4891
   24SAPC   C29 3168   4.377   5.257   9.675  0.5597  0.3360  0.8498
   24SAPC   H9R 3169   4.287   5.251   9.612 -0.1030 -0.0435  1.8102
   24SAPC  C210 3170   4.512   5.252   9.603  0.0292  0.4690 -0.1627
   24SAPC  H10R 3171   4.529   5.145   9.577 -2.2312  0.3428 -1.3688
   24SAPC  H10S 3172   4.599   5.284   9.665  0.4921  0.4720 -0.8038
   24SAPC  C211 3173   4.524   5.333   9.474  0.2765  0.1903  0.0850
   24SAPC  H11R 3174   4.574   5.429   9.492  0.9404  0.0146 -0.7923
   24SAPC  C212 3175   4.490   5.287   9.350 -0.4184  0.7296  0.3568
   24SAPC  H12R 3176   4.499   5.356   9.265 -0.0868 -1.1689 -1.2068
   24SAPC  C213 3177   4.437   5.153   9.306  0.0023 -0.9887  0.1813
   24SAPC  H13R 3178   4.362   5.178   9.227  0.3931  0.5828  0.2789
   24SAPC  H13S 3179   4.379   5.094   9.380 -0.4459  0.6812  1.2226
   24SAPC  C214 3180   4.542   5.059   9.258 -0.4428  0.5198 -0.6261
   24SAPC  H14R 3181   4.643   5.073   9.297 -0.8653 -1.1604  1.1896
   24SAPC  C215 3182   4.517   4.946   9.186  0.7521 -0.2970 -0.3959
   24SAPC  H15R 3183   4.596   4.876   9.156  0.9322 -0.5944  0.7174
   24SAPC  C216 3184   4.377   4.902   9.146 -0.0993  0.4470  0.3201
   24SAPC  H16R 3185   4.288   4.952   9.190  0.0761  1.6385 -0.5921
   24SAPC  H16S 3186   4.364   4.795   9.173  2.8999 -0.6263 -1.9150
   24SAPC  C217 3187   4.374   4.893   8.989  0.2293 -0.4996 -0.3911
   24SAPC  H17R 3188   4.468   4.847   8.953  0.8158  0.4787 -0.1307
   24SAPC  H17S 3189   4.380   5.001   8.966 -2.6764 -0.0615  0.5028
   24SAPC  C218 3190   4.251   4.841   8.918  0.5295  1.1638 -0.2396
   24SAPC  H18R 3191   4.234   4.742   8.965  1.6520  0.9452 -0.2692
   24SAPC  H18S 3192   4.269   4.826   8.809 -0.3458 -0.4100 -0.1908
   24SAPC  C219 3193   4.119   4.921   8.959  0.0746 -0.2618  0.1803
   24SAPC  H19R 3194   4.122   4.911   9.070  4.0255 -1.4671  0.1073
   24SAPC  H19S 3195   4.035   4.856   8.927 -0.9434  1.9886 -2.0233
   24SAPC  C220 3196   4.108   5.059   8.909 -0.0971 -0.4854 -0.4824
   24SAPC  H20R 3197   4.130   5.078   8.801 -0.5350  2.1579 -0.1796
   24SAPC  H20S 3198   4.174   5.119   8.974 -1.3337  1.0859 -0.6280
   24SAPC  H20T 3199   4.008   5.105   8.916 -0.2279 -0.0457 -3.6165
   24SAPC   C33 3200   3.865   4.785  10.310  0.0048 -0.0169  0.3280
   24SAPC   H3X 3201   3.771   4.781  10.251 -0.6655 -1.6684  1.4131
   24SAPC   H3Y 3202   3.893   4.688  10.358  0.9278 -0.5359 -1.1831
   24SAPC   C34 3203   3.991   4.799  10.216  0.0884  0.2232  0.2263
   24SAPC   H4X 3204   4.071   4.866  10.254 -1.1047  1.2667  0.9847
   24SAPC   H4Y 3205   3.944   4.849  10.129 -0.5770  0.2382  0.5897
   24SAPC   C35 3206   4.039   4.658  10.179  0.0924  0.4128  0.2082
   24SAPC   H5X 3207   3.954   4.596  10.143 -1.3506  0.0277  3.8936
   24SAPC   H5Y 3208   4.087   4.597  10.258 -0.1879  0.6836  0.5862
   24SAPC   C36 3209   4.148   4.668  10.071 -0.1084  0.7903  0.2599
   24SAPC   H6X 3210   4.219   4.749  10.099 -1.3675  2.9928 -2.4578
   24SAPC   H6Y 3211   4.103   4.704   9.976  0.2968 -0.9935 -0.6633
   24SAPC   C37 3212   4.210   4.534  10.048 -0.0926 -1.2317 -0.7363
   24SAPC   H7X 3213   4.135   4.460  10.013  0.6053 -1.6419 -1.3756
   24SAPC   H7Y 3214   4.261   4.502  10.142 -0.5579 -1.0880 -0.4287
   24SAPC   C38 3215   4.315   4.534   9.936  0.5486  0.2044  0.3094
   24SAPC   H8X 3216   4.389   4.452   9.952 -0.2393 -0.6751 -0.4476
   24SAPC   H8Y 3217   4.371   4.630   9.944  0.4566  0.2223  0.7929
   24SAPC   C39 3218   4.256   4.530   9.792  0.4410  0.3816 -0.6235
   24SAPC   H9X 3219   4.193   4.620   9.774  0.5382  0.5330 -0.2262
   24SAPC   H9Y 3220   4.192   4.440   9.782 -0.1164  0.7185 -0.1627
   24SAPC  C310 3221   4.366   4.523   9.694 -0.1667 -0.0890 -0.0827
   24SAPC  H10X 3222   4.333   4.491   9.593  2.1367  1.2540 -1.3357
   24SAPC  H10Y 3223   4.448   4.452   9.713  0.5243 -0.3602 -3.4543
   24SAPC  C311 3224   4.419   4.666   9.670  0.6984 -0.0399  0.1419
   24SAPC  H11X 3225   4.457   4.700   9.769  1.4414 -2.6680  0.8427
   24SAPC  H11Y 3226   4.346   4.738   9.628 -0.5074  0.1251  2.3967
   24SAPC  C312 3227   4.551   4.662   9.584 -0.4702  0.0586 -0.2745
   24SAPC  H12X 3228   4.616   4.586   9.633 -3.0831 -0.9368  1.8756
   24SAPC  H12Y 3229   4.597   4.763   9.572 -1.0653  0.4285  0.4674
   24SAPC  C313 3230   4.525   4.610   9.442 -0.2032 -0.0873 -0.2617
   24SAPC  H13X 3231   4.446   4.669   9.390  1.8711  1.1015 -2.2308
   24SAPC  H13Y 3232   4.477   4.512   9.462 -1.2027  0.4143 -0.1533
   24SAPC  C314 3233   4.651   4.601   9.357  0.3353 -0.5076 -0.8326
   24SAPC  H14X 3234   4.728   4.534   9.400  0.6302  0.0386 -0.4930
   24SAPC  H14Y 3235   4.684   4.708   9.355  1.2075 -0.7701 -0.7380
   24SAPC  C315 3236   4.619   4.570   9.207 -0.3223  1.0375  0.4506
   24SAPC  H15X 3237   4.542   4.644   9.174 -1.2718 -0.0038  0.2596
   24SAPC  H15Y 3238   4.591   4.463   9.197  1.2138  0.8176 -3.7019
   24SAPC  C316 3239   4.740   4.587   9.118 -0.2467 -0.0717  0.1495
   24SAPC  H16X 3240   4.825   4.543   9.174  1.0537 -0.3998 -2.0041
   24SAPC  H16Y 3241   4.761   4.696   9.117  1.8317 -0.3785  2.0768
   24SAPC  C317 3242   4.723   4.527   8.974  0.4842  0.4153  0.4715
   24SAPC  H17X 3243   4.697   4.419   8.973 -1.7856  0.9216 -1.0145
   24SAPC  H17Y 3244   4.826   4.532   8.932  0.3011  0.1709 -0.0109
   24SAPC  C318 3245   4.630   4.609   8.878 -0.1902  0.2858  0.6193
   24SAPC  H18X 3246   4.527   4.584   8.910 -1.1475  1.0368 -1.6552
   24SAPC  H18Y 3247   4.652   4.568   8.777 -0.6103 -1.7340  1.3046
   24SAPC  H18Z 3248   4.651   4.718   8.883 -0.2017  0.2845  0.7092
   25SAPC     N 3249   6.119   5.822   5.814  0.0688 -0.3328 -0.7958
   25SAPC   C12 3250   6.197   5.712   5.880 -0.5957  0.6418  0.0968
   25SAPC  H12A 3251   6.142   5.620   5.888 -1.2333  0.9433 -0.6106
   25SAPC  H12B 3252   6.209   5.743   5.983 -1.3615 -1.1466  0.7545
   25SAPC   C13 3253   6.199   5.945   5.808  0.3961 -0.4996 -0.2876
   25SAPC  H13A 3254   6.198   5.989   5.906 -0.8541 -1.8231  0.3329
   25SAPC  H13B 3255   6.299   5.920   5.775  1.1527  0.1533  1.4081
   25SAPC  H13C 3256   6.159   6.017   5.739 -2.8702  0.3830  2.2784
   25SAPC   C14 3257   6.067   5.788   5.674 -0.1760 -0.2281  0.2400
   25SAPC  H14A 3258   6.149   5.797   5.605 -0.9773  1.1029 -0.5923
   25SAPC  H14B 3259   6.037   5.685   5.668 -0.8286 -0.1182  1.4623
   25SAPC  H14C 3260   5.993   5.860   5.643  0.2639  1.0874  2.0790
   25SAPC   C15 3261   5.994   5.835   5.895 -0.7954 -1.4982 -0.1584
   25SAPC  H15A 3262   5.921   5.890   5.838  1.0579  0.9451 -0.3261
   25SAPC  H15B 3263   5.947   5.738   5.906 -1.5773 -1.0497  0.5950
   25SAPC  H15C 3264   6.020   5.880   5.990 -1.0056 -0.5917 -0.5193
   25SAPC   C11 3265   6.345   5.679   5.838 -0.3851  0.1103 -0.9287
   25SAPC  H11A 3266   6.347   5.674   5.727 -0.4633  2.8351 -1.1239
   25SAPC  H11B 3267   6.356   5.578   5.882 -1.1354  0.4884  0.1636
   25SAPC     P 3268   6.573   5.719   5.952  0.1203  0.2597 -0.0295
   25SAPC   O13 3269   6.645   5.608   5.880 -0.4000 -0.5847  0.3860
   25SAPC   O14 3270   6.659   5.835   5.974  0.4581 -0.2379  0.8788
   25SAPC   O12 3271   6.444   5.765   5.878 -0.1449  0.0019  0.1081
   25SAPC   O11 3272   6.533   5.662   6.089  0.2146 -0.0328 -0.6155
   25SAPC    C1 3273   6.418   5.695   6.168  0.2143 -0.2266 -0.4072
   25SAPC    HA 3274   6.375   5.790   6.130 -0.8351 -0.6187 -0.2117
   25SAPC    HB 3275   6.347   5.610   6.160  2.6333 -2.3152 -1.5301
   25SAPC    C2 3276   6.462   5.711   6.317 -0.0459  0.1836  0.6283
   25SAPC    HS 3277   6.544   5.786   6.319  0.8109 -0.6433 -1.2442
   25SAPC   O21 3278   6.508   5.577   6.356  0.9377  1.1159 -0.2607
   25SAPC   C21 3279   6.597   5.582   6.451  0.6595  0.4203 -0.1852
   25SAPC   O22 3280   6.682   5.668   6.467  0.4047 -0.1287  0.2529
   25SAPC   C22 3281   6.571   5.464   6.543 -0.4687  0.3467  0.1797
   25SAPC   H2R 3282   6.472   5.481   6.591 -1.9485 -0.1801 -2.4960
   25SAPC   H2S 3283   6.564   5.381   6.470  1.3361  1.5646 -1.4919
   25SAPC    C3 3284   6.347   5.764   6.408  0.0072 -0.0773 -0.5288
   25SAPC    HX 3285   6.265   5.704   6.364  1.3646 -0.9543 -2.0120
   25SAPC    HY 3286   6.337   5.871   6.384  0.5318  0.4893  1.5678
   25SAPC   O31 3287   6.373   5.738   6.548 -0.4522  0.3983  0.2821
   25SAPC   C31 3288   6.424   5.839   6.620 -0.5770 -0.0709 -0.3259
   25SAPC   O32 3289   6.482   5.936   6.583  0.5929 -0.1505 -0.1671
   25SAPC   C32 3290   6.390   5.809   6.771 -0.1765  0.6328 -0.0013
   25SAPC   H2X 3291   6.433   5.708   6.788 -1.4599 -0.4114 -2.3787
   25SAPC   H2Y 3292   6.279   5.802   6.776 -0.4580  1.7983 -2.6420
   25SAPC   C23 3293   6.689   5.443   6.640 -0.2549 -0.3774  0.5412
   25SAPC   H3R 3294   6.698   5.538   6.698 -0.9717  0.0153  0.0301
   25SAPC   H3S 3295   6.778   5.427   6.577 -1.3379  1.7317 -1.7022
   25SAPC   C24 3296   6.665   5.322   6.725 -0.2810  0.3673  0.3340
   25SAPC   H4R 3297   6.760   5.294   6.775 -0.1330  1.3614  0.6323
   25SAPC   H4S 3298   6.628   5.235   6.667 -1.6583  0.2911  1.2815
   25SAPC   C25 3299   6.567   5.357   6.829 -0.1126  0.2332  0.5148
   25SAPC   H5R 3300   6.462   5.352   6.799  0.2245 -1.1227 -0.5189
   25SAPC   C26 3301   6.589   5.399   6.960 -0.5360  0.4527 -0.2428
   25SAPC   H6R 3302   6.509   5.399   7.036 -0.6602  0.7925 -0.3710
   25SAPC   C27 3303   6.728   5.416   7.028 -0.5521  0.3987  0.9282
   25SAPC   H7R 3304   6.811   5.421   6.954 -0.0437 -0.2669  1.4403
   25SAPC   H7S 3305   6.750   5.334   7.099  0.7270  0.0696  0.1904
   25SAPC   C28 3306   6.738   5.544   7.100 -0.4997 -0.1823  0.5361
   25SAPC   H8R 3307   6.788   5.627   7.048 -1.2163 -0.9453 -1.4391
   25SAPC   C29 3308   6.710   5.567   7.226  0.5865 -0.5675  0.0490
   25SAPC   H9R 3309   6.723   5.670   7.263 -0.4058  0.1519 -1.5327
   25SAPC  C210 3310   6.652   5.456   7.317  0.4779  0.2580 -0.0953
   25SAPC  H10R 3311   6.594   5.381   7.260 -0.4669 -0.1772  1.3909
   25SAPC  H10S 3312   6.590   5.506   7.395  1.6681 -1.6338  2.1736
   25SAPC  C211 3313   6.756   5.374   7.392  0.3497 -0.3938 -0.1978
   25SAPC  H11R 3314   6.808   5.317   7.314  1.6923  1.8651 -1.0300
   25SAPC  C212 3315   6.808   5.380   7.518 -0.1909  0.2457 -0.2359
   25SAPC  H12R 3316   6.878   5.302   7.551  0.2902  0.0916 -1.5470
   25SAPC  C213 3317   6.765   5.474   7.628  0.4250 -0.3787  0.0597
   25SAPC  H13R 3318   6.713   5.563   7.586  2.4375  0.5236 -0.6334
   25SAPC  H13S 3319   6.858   5.515   7.673  0.4516  1.8740 -1.8583
   25SAPC  C214 3320   6.677   5.407   7.723  0.2448  0.1234 -0.3302
   25SAPC  H14R 3321   6.575   5.395   7.685  0.2468 -1.2010  0.0295
   25SAPC  C215 3322   6.714   5.364   7.842  0.1934  0.0966 -0.2708
   25SAPC  H15R 3323   6.639   5.321   7.910  0.0219 -0.0179 -0.5309
   25SAPC  C216 3324   6.850   5.376   7.914  0.9389  0.5326  0.2984
   25SAPC  H16R 3325   6.935   5.360   7.844  1.7013 -2.5889  1.7603
   25SAPC  H16S 3326   6.862   5.292   7.985 -0.9239  1.0187  1.2417
   25SAPC  C217 3327   6.889   5.506   7.988 -0.4843 -0.4429  0.2476
   25SAPC  H17R 3328   6.827   5.504   8.080 -2.6266 -0.4186 -1.1261
   25SAPC  H17S 3329   6.857   5.593   7.927 -1.0611 -1.0216 -0.2956
   25SAPC  C218 3330   7.039   5.515   8.019  0.1056  0.6351  0.4535
   25SAPC  H18R 3331   7.081   5.522   7.916 -0.8618 -1.2566 -0.1128
   25SAPC  H18S 3332   7.085   5.429   8.072 -0.9572 -0.3085 -0.1131
   25SAPC  C219 3333   7.068   5.642   8.101  0.1092 -0.2777  0.0943
   25SAPC  H19R 3334   7.032   5.728   8.041 -0.4193  1.0923  2.2863
   25SAPC  H19S 3335   7.178   5.649   8.114  0.0493 -1.3913  1.3556
   25SAPC  C220 3336   7.018   5.641   8.246 -0.2453 -0.7362  0.1336
   25SAPC  H20R 3337   7.076   5.721   8.299 -0.1551  1.5858 -3.1437
   25SAPC  H20S 3338   7.038   5.543   8.293  0.8814 -1.0781 -0.9967
   25SAPC  H20T 3339   6.909   5.662   8.253 -0.3259 -1.5807  2.3881
   25SAPC   C33 3340   6.459   5.900   6.864  0.0881 -0.2354  0.2759
   25SAPC   H3X 3341   6.407   5.998   6.871 -1.1369 -0.9115  1.1242
   25SAPC   H3Y 3342   6.567   5.909   6.838  1.0145  0.4231  3.8216
   25SAPC   C34 3343   6.461   5.846   7.009  0.0785  0.4136 -0.6078
   25SAPC   H4X 3344   6.525   5.919   7.063  2.5380 -0.4548 -2.1483
   25SAPC   H4Y 3345   6.528   5.758   7.019  0.6975  1.0524  1.3588
   25SAPC   C35 3346   6.320   5.826   7.072 -0.7344  0.3793 -0.1802
   25SAPC   H5X 3347   6.250   5.773   7.004  1.2261 -2.0963 -0.3978
   25SAPC   H5Y 3348   6.275   5.927   7.087 -2.8278 -0.1211 -2.4214
   25SAPC   C36 3349   6.326   5.752   7.202  0.9833 -0.7292 -0.8885
   25SAPC   H6X 3350   6.383   5.657   7.196 -0.0894 -2.2856  5.7313
   25SAPC   H6Y 3351   6.221   5.723   7.224  0.7133 -2.5430 -3.9970
   25SAPC   C37 3352   6.399   5.822   7.321 -0.4902  0.0895  0.1328
   25SAPC   H7X 3353   6.378   5.929   7.343 -0.5379 -0.2184  1.6978
   25SAPC   H7Y 3354   6.509   5.816   7.313 -0.2613  1.1041  1.9246
   25SAPC   C38 3355   6.364   5.754   7.447  0.0497  0.0190  0.1070
   25SAPC   H8X 3356   6.402   5.649   7.444 -0.9408 -0.3415 -0.1204
   25SAPC   H8Y 3357   6.254   5.745   7.454 -0.0188  0.2896 -0.5794
   25SAPC   C39 3358   6.421   5.820   7.571  0.3739 -0.0412 -0.4286
   25SAPC   H9X 3359   6.396   5.927   7.580 -1.4830 -0.4814  0.2368
   25SAPC   H9Y 3360   6.531   5.805   7.575  0.6653  2.1653  1.2464
   25SAPC  C310 3361   6.364   5.763   7.699 -0.1806 -0.2298 -0.4312
   25SAPC  H10X 3362   6.365   5.653   7.708  0.8371 -0.2758 -0.9476
   25SAPC  H10Y 3363   6.254   5.776   7.706 -0.4159 -2.3431  0.7455
   25SAPC  C311 3364   6.427   5.821   7.835  0.6069 -0.6588 -0.0944
   25SAPC  H11X 3365   6.452   5.928   7.817 -0.8052 -0.4846 -1.2160
   25SAPC  H11Y 3366   6.523   5.770   7.858  0.6343 -0.1169  1.1131
   25SAPC  C312 3367   6.335   5.801   7.960 -0.2051 -0.1581 -0.3170
   25SAPC  H12X 3368   6.234   5.764   7.934  1.1169 -2.6276 -2.4318
   25SAPC  H12Y 3369   6.322   5.894   8.018  0.4605 -1.0198  1.3039
   25SAPC  C313 3370   6.406   5.706   8.065 -0.0316  0.0001  0.3692
   25SAPC  H13X 3371   6.502   5.757   8.086 -0.4164  0.4408  1.1452
   25SAPC  H13Y 3372   6.423   5.605   8.022 -1.2497  0.2913 -0.8774
   25SAPC  C314 3373   6.323   5.685   8.189  0.8998 -0.4619  0.2296
   25SAPC  H14X 3374   6.242   5.612   8.167  0.4932 -0.1441  0.6545
   25SAPC  H14Y 3375   6.270   5.781   8.208  1.7254 -0.2876  1.8626
   25SAPC  C315 3376   6.404   5.652   8.309  0.3412 -0.6842 -1.3415
   25SAPC  H15X 3377   6.481   5.577   8.280  2.6984  1.6286 -1.5012
   25SAPC  H15Y 3378   6.346   5.612   8.395  1.1673  1.0957  0.1041
   25SAPC  C316 3379   6.482   5.773   8.366  0.7879  0.4267  0.4053
   25SAPC  H16X 3380   6.410   5.858   8.361 -1.1006 -1.1809 -3.1238
   25SAPC  H16Y 3381   6.567   5.800   8.301 -0.2796  0.5856 -0.9612
   25SAPC  C317 3382   6.522   5.743   8.512 -0.4127  0.4682  0.0443
   25SAPC  H17X 3383   6.571   5.647   8.538 -1.4308 -0.2432 -0.5828
   25SAPC  H17Y 3384   6.423   5.736   8.562 -0.2512 -0.3683  0.2679
   25SAPC  C318 3385   6.610   5.861   8.565 -0.5344 -0.1275  0.0449
   25SAPC  H18X 3386   6.709   5.851   8.515  0.1386 -0.6258  1.4425
   25SAPC  H18Y 3387   6.619   5.856   8.675 -1.0771  0.7080  0.1371
   25SAPC  H18Z 3388   6.562   5.954   8.527 -0.6463 -0.0100  0.4740
   26SAPC     N 3389   2.442   2.722   6.617  0.3940  0.0534  0.8636
   26SAPC   C12 3390   2.551   2.828   6.661  0.6221 -0.6799  0.5988
   26SAPC  H12A 3391   2.604   2.804   6.752 -0.5871 -0.3388  1.4204
   26SAPC  H12B 3392   2.498   2.920   6.682 -1.1815 -1.5150 -0.0213
   26SAPC   C13 3393   2.336   2.727   6.721  0.1966  0.2746  0.5965
   26SAPC  H13A 3394   2.264   2.649   6.701  2.5634 -1.7723 -0.3956
   26SAPC  H13B 3395   2.375   2.702   6.818  3.9924  4.2172  0.4318
   26SAPC  H13C 3396   2.296   2.826   6.739 -0.6932 -0.0979  0.7223
   26SAPC   C14 3397   2.386   2.750   6.488  0.2307 -0.0588  0.2632
   26SAPC  H14A 3398   2.467   2.758   6.417 -1.2355 -0.7575 -1.5593
   26SAPC  H14B 3399   2.322   2.674   6.447 -0.8592  0.8613  0.1989
   26SAPC  H14C 3400   2.332   2.843   6.474 -0.2404 -0.6422 -2.3705
   26SAPC   C15 3401   2.500   2.587   6.613  0.1115  0.4321  0.6373
   26SAPC  H15A 3402   2.432   2.518   6.565 -0.3196 -0.1766  2.0608
   26SAPC  H15B 3403   2.592   2.584   6.557 -1.2824  0.2362 -1.8110
   26SAPC  H15C 3404   2.532   2.551   6.710 -4.3605 -0.7958  1.9024
   26SAPC   C11 3405   2.663   2.856   6.561 -0.4151  0.8232  0.5352
   26SAPC  H11A 3406   2.716   2.949   6.593  2.6100 -0.8924  0.9012
   26SAPC  H11B 3407   2.624   2.869   6.458 -1.1844 -0.6190  0.6255
   26SAPC     P 3408   2.802   2.669   6.446  0.0356 -0.0511 -0.1175
   26SAPC   O13 3409   2.709   2.557   6.429  0.4292  0.2574 -0.5555
   26SAPC   O14 3410   2.820   2.763   6.330 -0.1575 -0.5416 -0.3298
   26SAPC   O12 3411   2.755   2.751   6.569 -0.0066  0.2722 -0.1035
   26SAPC   O11 3412   2.947   2.617   6.487 -0.7410  0.6975  0.2834
   26SAPC    C1 3413   2.963   2.526   6.597  0.2886 -1.1294 -0.2124
   26SAPC    HA 3414   2.912   2.429   6.575 -1.5209 -0.4950  0.9796
   26SAPC    HB 3415   3.072   2.506   6.609  0.6662  0.0213 -1.4703
   26SAPC    C2 3416   2.930   2.576   6.740 -0.5182 -0.8196  0.0200
   26SAPC    HS 3417   2.819   2.568   6.745 -0.4596 -1.9452 -0.2176
   26SAPC   O21 3418   2.971   2.713   6.758 -0.0867  0.7458  0.1419
   26SAPC   C21 3419   2.895   2.789   6.823  0.8177  0.5954  0.0117
   26SAPC   O22 3420   2.792   2.760   6.882 -0.0250 -0.0858 -0.3243
   26SAPC   C22 3421   2.948   2.927   6.799  0.5202 -0.0478  1.0227
   26SAPC   H2R 3422   3.051   2.928   6.758 -0.2208 -2.1138 -1.1342
   26SAPC   H2S 3423   2.883   2.981   6.728 -1.2734 -0.1289  2.5085
   26SAPC    C3 3424   2.991   2.480   6.843  0.4571 -0.2143 -0.7471
   26SAPC    HX 3425   3.100   2.483   6.821  0.4068 -0.5272 -1.0578
   26SAPC    HY 3426   2.951   2.379   6.820 -0.1532 -0.2771  0.4964
   26SAPC   O31 3427   2.972   2.515   6.984  0.1416 -0.2963 -0.1481
   26SAPC   C31 3428   2.864   2.474   7.046  0.0485 -0.1700  0.0923
   26SAPC   O32 3429   2.781   2.399   6.998  0.0741 -0.1669 -0.3759
   26SAPC   C32 3430   2.863   2.545   7.181 -0.1963 -0.1595 -0.2713
   26SAPC   H2X 3431   2.854   2.654   7.164 -0.2250  0.6219  3.8554
   26SAPC   H2Y 3432   2.964   2.528   7.225  0.8884  3.0041 -1.3067
   26SAPC   C23 3433   2.941   3.016   6.930 -0.1873  0.8894  0.1411
   26SAPC   H3R 3434   2.847   2.992   6.983  0.5540  0.9025  1.5070
   26SAPC   H3S 3435   2.932   3.120   6.891 -0.1473 -0.1789 -2.9851
   26SAPC   C24 3436   3.070   3.012   7.015 -0.5475  0.0859  0.0025
   26SAPC   H4R 3437   3.051   3.060   7.113 -1.7596  1.7063 -0.9832
   26SAPC   H4S 3438   3.151   3.066   6.962 -1.3191  0.3295 -0.9509
   26SAPC   C25 3439   3.109   2.870   7.056 -0.0693 -0.2232  0.0934
   26SAPC   H5R 3440   3.132   2.801   6.974 -1.7588 -1.7574  0.8386
   26SAPC   C26 3441   3.112   2.815   7.180  0.0857  0.4962  1.0496
   26SAPC   H6R 3442   3.144   2.710   7.183 -0.5703  0.2072 -0.8483
   26SAPC   C27 3443   3.084   2.882   7.312  0.6934  0.2150 -0.3721
   26SAPC   H7R 3444   3.134   2.981   7.319 -0.3138  0.6363  1.7400
   26SAPC   H7S 3445   3.124   2.812   7.389  1.1900  0.2245 -0.6166
   26SAPC   C28 3446   2.939   2.914   7.342  0.4415 -0.1630  0.2989
   26SAPC   H8R 3447   2.880   2.957   7.260 -0.1969 -2.5070 -0.5458
   26SAPC   C29 3448   2.867   2.899   7.455  0.1175  0.3953  0.1557
   26SAPC   H9R 3449   2.761   2.927   7.453 -0.0417 -0.2489 -1.0155
   26SAPC  C210 3450   2.910   2.833   7.587  0.4624 -0.3290  0.2333
   26SAPC  H10R 3451   3.010   2.788   7.571  0.4442  0.0228 -0.9454
   26SAPC  H10S 3452   2.846   2.745   7.611  0.0444  0.0580  0.5628
   26SAPC  C211 3453   2.908   2.933   7.705 -0.3872  1.0325  0.3595
   26SAPC  H11R 3454   2.855   3.029   7.694  0.0457  1.2915  0.4842
   26SAPC  C212 3455   2.957   2.898   7.827 -0.7982  0.2826 -0.0860
   26SAPC  H12R 3456   2.951   2.972   7.908  0.4750  0.7832 -0.4351
   26SAPC  C213 3457   3.023   2.765   7.855 -0.0727  1.0064 -0.6593
   26SAPC  H13R 3458   3.007   2.687   7.778  0.4604  0.1424  0.0762
   26SAPC  H13S 3459   2.976   2.729   7.949 -0.6320  4.1212  0.3836
   26SAPC  C214 3460   3.171   2.782   7.873  0.0517  0.2312 -0.2252
   26SAPC  H14R 3461   3.218   2.803   7.776  0.5531  0.4350  0.0580
   26SAPC  C215 3462   3.250   2.772   7.980 -0.4340 -0.4074  0.3358
   26SAPC  H15R 3463   3.357   2.791   7.961  0.1513 -0.8950  2.8333
   26SAPC  C216 3464   3.216   2.736   8.124  0.1224  0.0127  0.0102
   26SAPC  H16R 3465   3.303   2.679   8.162  0.8581  1.0336 -0.1168
   26SAPC  H16S 3466   3.132   2.663   8.126 -1.3894  1.5009 -2.4018
   26SAPC  C217 3467   3.179   2.853   8.221  0.5169  0.1431 -0.0322
   26SAPC  H17R 3468   3.107   2.917   8.165  1.6018  1.1887 -0.2728
   26SAPC  H17S 3469   3.272   2.909   8.245  1.4777 -0.7970 -1.3921
   26SAPC  C218 3470   3.128   2.802   8.357  0.3930  0.1557  0.6268
   26SAPC  H18R 3471   3.174   2.867   8.434 -1.2093  0.0161  1.7560
   26SAPC  H18S 3472   3.165   2.700   8.379 -1.3624 -0.4655  0.8414
   26SAPC  C219 3473   2.972   2.813   8.358 -0.8515 -0.0411 -0.0905
   26SAPC  H19R 3474   2.941   2.767   8.454 -1.3275  0.1392 -0.1572
   26SAPC  H19S 3475   2.924   2.763   8.271  0.9135 -0.1070 -1.0687
   26SAPC  C220 3476   2.919   2.950   8.374  0.7988 -0.3049 -0.8994
   26SAPC  H20R 3477   2.963   3.014   8.453  2.2260 -0.5932 -1.4230
   26SAPC  H20S 3478   2.810   2.944   8.393  0.9353  0.9943  0.4671
   26SAPC  H20T 3479   2.923   3.017   8.285  1.0812 -0.8724 -1.3231
   26SAPC   C33 3480   2.755   2.493   7.274  0.2148 -1.2076  0.4440
   26SAPC   H3X 3481   2.753   2.386   7.248 -0.7278 -1.0481 -0.1806
   26SAPC   H3Y 3482   2.661   2.544   7.243  0.5946  0.4998  1.8593
   26SAPC   C34 3483   2.781   2.515   7.422 -0.1793  0.2558 -0.0557
   26SAPC   H4X 3484   2.772   2.624   7.440  0.5386  0.5498 -1.3573
   26SAPC   H4Y 3485   2.879   2.476   7.457  0.2991  0.8457 -0.7227
   26SAPC   C35 3486   2.674   2.452   7.516  0.8913  0.6494  0.6284
   26SAPC   H5X 3487   2.688   2.341   7.513  1.7662  0.7637 -1.3073
   26SAPC   H5Y 3488   2.573   2.466   7.473  0.4923  1.3943  1.7762
   26SAPC   C36 3489   2.673   2.504   7.661 -0.7252 -0.4434 -0.8869
   26SAPC   H6X 3490   2.780   2.522   7.682 -1.0194 -0.6232  0.9500
   26SAPC   H6Y 3491   2.640   2.416   7.720  2.9459 -1.4469 -0.0978
   26SAPC   C37 3492   2.575   2.619   7.699 -0.6644 -0.1867 -0.1258
   26SAPC   H7X 3493   2.470   2.584   7.690 -1.1100  1.0827 -0.0902
   26SAPC   H7Y 3494   2.599   2.705   7.633  0.5538 -0.0766  0.4201
   26SAPC   C38 3495   2.585   2.659   7.847  0.7858 -0.9449 -0.4405
   26SAPC   H8X 3496   2.682   2.705   7.874 -0.3330  1.3394 -0.0445
   26SAPC   H8Y 3497   2.563   2.576   7.917 -1.7850  1.0477  1.3472
   26SAPC   C39 3498   2.472   2.759   7.889 -0.8658  0.0963 -0.3087
   26SAPC   H9X 3499   2.368   2.719   7.887 -1.0743  0.5512 -3.3058
   26SAPC   H9Y 3500   2.471   2.848   7.823 -2.4398 -0.4597 -1.0905
   26SAPC  C310 3501   2.522   2.814   8.022 -0.4126  0.3641 -0.3148
   26SAPC  H10X 3502   2.628   2.845   8.011 -0.4701  1.7468  2.2421
   26SAPC  H10Y 3503   2.515   2.731   8.095 -0.2104 -1.7042 -2.5069
   26SAPC  C311 3504   2.451   2.929   8.084 -0.5074  0.5699  0.1540
   26SAPC  H11X 3505   2.346   2.907   8.113 -0.9687 -0.3102 -1.9791
   26SAPC  H11Y 3506   2.437   3.006   8.005  1.8108 -0.5789 -1.4879
   26SAPC  C312 3507   2.509   2.995   8.212  0.0298  0.3760  0.3577
   26SAPC  H12X 3508   2.469   3.098   8.222 -0.7539  0.0145  1.0436
   26SAPC  H12Y 3509   2.620   3.000   8.202  0.1306  0.1598  1.3086
   26SAPC  C313 3510   2.488   2.916   8.342 -0.5897 -0.1495 -0.1060
   26SAPC  H13X 3511   2.543   2.820   8.340 -1.5130 -0.6947 -2.2565
   26SAPC  H13Y 3512   2.382   2.889   8.359 -1.0003  0.3063 -1.7254
   26SAPC  C314 3513   2.531   2.995   8.467 -0.2562  0.0266  0.3534
   26SAPC  H14X 3514   2.468   3.080   8.498  2.4634  2.1993  0.2844
   26SAPC  H14Y 3515   2.628   3.044   8.445 -0.3250  0.4041  0.8580
   26SAPC  C315 3516   2.543   2.897   8.585 -0.3659  0.4709  0.1987
   26SAPC  H15X 3517   2.624   2.823   8.567  2.1578  3.2542 -0.5577
   26SAPC  H15Y 3518   2.445   2.844   8.588  0.2884 -0.8068 -0.1176
   26SAPC  C316 3519   2.556   2.953   8.722  0.3319 -0.0066 -0.1896
   26SAPC  H16X 3520   2.483   3.036   8.731  2.7618  2.0552  3.0786
   26SAPC  H16Y 3521   2.655   3.002   8.737 -0.0849  0.5390  0.9054
   26SAPC  C317 3522   2.521   2.856   8.839 -0.2955  0.2033  0.3627
   26SAPC  H17X 3523   2.412   2.838   8.831 -0.5170  2.0361 -1.4619
   26SAPC  H17Y 3524   2.532   2.920   8.929 -2.3497  0.6447  0.3583
   26SAPC  C318 3525   2.612   2.735   8.860 -0.4765 -0.2326 -0.0123
   26SAPC  H18X 3526   2.604   2.696   8.964 -0.3628 -1.6768 -0.5285
   26SAPC  H18Y 3527   2.718   2.764   8.841 -0.3527  0.1806  1.2303
   26SAPC  H18Z 3528   2.589   2.654   8.787  1.8731 -0.2884 -0.7857
   27SAPC     N 3529   0.510   0.179   6.639  0.2528  0.3835 -0.6813
   27SAPC   C12 3530   0.612   0.232   6.738  0.7338  0.4016 -0.1205
   27SAPC  H12A 3531   0.671   0.151   6.777  0.9673 -0.0233 -1.3175
   27SAPC  H12B 3532   0.556   0.274   6.821  1.1265 -2.5643  1.8008
   27SAPC   C13 3533   0.421   0.089   6.719  0.0458  0.0167 -0.0739
   27SAPC  H13A 3534   0.482   0.010   6.761 -0.5028 -0.3954 -0.0449
   27SAPC  H13B 3535   0.372   0.144   6.798 -2.1201 -0.5672 -0.9466
   27SAPC  H13C 3536   0.351   0.040   6.652 -0.3644 -0.7537  0.8921
   27SAPC   C14 3537   0.424   0.285   6.585  0.6123  0.0394  0.4453
   27SAPC  H14A 3538   0.340   0.248   6.528 -0.3628  0.7684  1.3498
   27SAPC  H14B 3539   0.388   0.351   6.662  0.4365 -0.6521  0.9636
   27SAPC  H14C 3540   0.477   0.356   6.523  1.9064  0.0750  1.5615
   27SAPC   C15 3541   0.569   0.106   6.528 -0.5732  0.3972  0.4446
   27SAPC  H15A 3542   0.652   0.051   6.569  1.0451  0.7143 -2.1725
   27SAPC  H15B 3543   0.498   0.049   6.470  0.7284 -0.3765 -0.4228
   27SAPC  H15C 3544   0.616   0.181   6.466 -1.3580  0.2606 -0.3327
   27SAPC   C11 3545   0.718   0.333   6.685  0.2408 -0.3629  0.2900
   27SAPC  H11A 3546   0.788   0.366   6.765  0.3124 -0.8025  0.4073
   27SAPC  H11B 3547   0.652   0.417   6.653 -1.0341 -1.8526 -1.1460
   27SAPC     P 3548   0.906   0.181   6.586 -0.1478 -0.0106 -0.2575
   27SAPC   O13 3549   0.857   0.049   6.603  0.9605  0.4004 -0.8388
   27SAPC   O14 3550   0.993   0.220   6.473 -0.6259 -0.2355 -0.1712
   27SAPC   O12 3551   0.790   0.282   6.575 -0.0097 -0.5096  0.2203
   27SAPC   O11 3552   0.994   0.219   6.714 -0.1362  0.4408 -0.1793
   27SAPC    C1 3553   1.072   0.339   6.712  0.2723  0.6881  0.3487
   27SAPC    HA 3554   1.172   0.321   6.667 -0.8704 -3.6166 -1.0270
   27SAPC    HB 3555   1.020   0.424   6.665 -1.2408  0.5338  1.6380
   27SAPC    C2 3556   1.101   0.384   6.855 -0.1962  0.4683 -0.0672
   27SAPC    HS 3557   1.151   0.300   6.907  0.3172  2.3797  2.7526
   27SAPC   O21 3558   0.979   0.428   6.910  0.0298 -0.5019 -0.5390
   27SAPC   C21 3559   0.928   0.343   6.998 -0.4795  0.6080  0.8314
   27SAPC   O22 3560   0.970   0.228   7.015  0.0296  0.8027  0.3584
   27SAPC   C22 3561   0.822   0.429   7.066 -0.0550  0.0383  0.8067
   27SAPC   H2R 3562   0.883   0.512   7.110  0.5845 -0.7270  1.3919
   27SAPC   H2S 3563   0.749   0.471   6.994 -0.7645  0.3434  1.6804
   27SAPC    C3 3564   1.199   0.504   6.867 -0.0007  0.0862  0.6536
   27SAPC    HX 3565   1.128   0.588   6.851  1.3569  0.9447 -1.1643
   27SAPC    HY 3566   1.276   0.504   6.787 -1.4993  2.5637 -0.9009
   27SAPC   O31 3567   1.261   0.489   6.992  0.5941 -0.1798 -0.5299
   27SAPC   C31 3568   1.292   0.602   7.053 -0.3216  0.3558 -0.5117
   27SAPC   O32 3569   1.275   0.711   7.002  0.0853 -0.8426  0.3116
   27SAPC   C32 3570   1.338   0.573   7.199  0.4872 -0.5601 -0.6032
   27SAPC   H2X 3571   1.399   0.480   7.192  1.1263 -0.0889 -1.7201
   27SAPC   H2Y 3572   1.255   0.554   7.269  0.6536 -1.5166 -0.6545
   27SAPC   C23 3573   0.737   0.359   7.176 -0.0618 -0.0039 -0.1664
   27SAPC   H3R 3574   0.700   0.270   7.122  0.4747  1.2741 -2.7894
   27SAPC   H3S 3575   0.648   0.424   7.197 -0.9509 -0.5973 -1.9498
   27SAPC   C24 3576   0.817   0.335   7.301 -0.5659 -0.9176 -0.0453
   27SAPC   H4R 3577   0.857   0.428   7.344 -0.4796 -0.8317 -0.3098
   27SAPC   H4S 3578   0.909   0.277   7.276  0.4121  1.1402 -1.4917
   27SAPC   C25 3579   0.736   0.269   7.401 -0.4074  0.4444  0.0616
   27SAPC   H5R 3580   0.693   0.172   7.371  0.0033  0.1778  0.3133
   27SAPC   C26 3581   0.704   0.302   7.523 -0.6090 -0.6150  0.5694
   27SAPC   H6R 3582   0.656   0.222   7.581 -0.0696 -1.0813  0.3874
   27SAPC   C27 3583   0.749   0.429   7.591 -0.0837 -1.1667 -0.4145
   27SAPC   H7R 3584   0.743   0.517   7.524  4.1084 -0.5783 -0.2848
   27SAPC   H7S 3585   0.857   0.422   7.615 -0.3821 -0.5055  1.2822
   27SAPC   C28 3586   0.686   0.456   7.729 -0.7550  0.2455 -0.5422
   27SAPC   H8R 3587   0.631   0.551   7.738 -0.6890  0.1543  0.9385
   27SAPC   C29 3588   0.696   0.376   7.842  0.1132 -0.0562  0.4860
   27SAPC   H9R 3589   0.649   0.422   7.931 -0.8915  0.1351 -0.1325
   27SAPC  C210 3590   0.756   0.242   7.863 -1.0640 -0.6510 -0.0746
   27SAPC  H10R 3591   0.860   0.244   7.823 -0.2262 -0.9551  1.9581
   27SAPC  H10S 3592   0.701   0.160   7.813  0.5793 -1.0729 -1.2915
   27SAPC  C211 3593   0.768   0.206   8.007  0.6264 -0.6332 -0.6393
   27SAPC  H11R 3594   0.705   0.118   8.031 -1.9402  1.3658  0.4886
   27SAPC  C212 3595   0.842   0.251   8.111  0.4593  0.2415  0.0543
   27SAPC  H12R 3596   0.835   0.211   8.213  0.4772  0.2112  0.0439
   27SAPC  C213 3597   0.937   0.369   8.085  0.1147 -0.3061 -0.6719
   27SAPC  H13R 3598   0.913   0.465   8.136  2.5881 -0.0648  0.1844
   27SAPC  H13S 3599   0.942   0.400   7.978 -0.4237 -0.1591 -0.6561
   27SAPC  C214 3600   1.070   0.315   8.138  0.0438  0.2995 -0.1660
   27SAPC  H14R 3601   1.059   0.253   8.228  1.1226 -2.4709 -1.8339
   27SAPC  C215 3602   1.191   0.334   8.080  0.3571 -0.1844  0.0374
   27SAPC  H15R 3603   1.281   0.282   8.115  0.5995  1.5664  2.2587
   27SAPC  C216 3604   1.208   0.412   7.956 -0.1034 -0.1103 -0.0208
   27SAPC  H16R 3605   1.300   0.472   7.973 -0.7059  0.7518  0.2672
   27SAPC  H16S 3606   1.130   0.485   7.926  0.6736 -0.0700 -2.1489
   27SAPC  C217 3607   1.219   0.320   7.840  0.0031  0.4144  0.7578
   27SAPC  H17R 3608   1.117   0.276   7.836 -0.3934  1.3090  0.7937
   27SAPC  H17S 3609   1.282   0.232   7.864 -3.8600 -2.3390  1.7440
   27SAPC  C218 3610   1.259   0.373   7.706  0.0252  0.6170 -0.0254
   27SAPC  H18R 3611   1.368   0.393   7.708  0.3493 -1.0467  2.0885
   27SAPC  H18S 3612   1.202   0.466   7.681  2.7663  2.0959 -1.1589
   27SAPC  C219 3613   1.241   0.270   7.592  0.2231 -0.5487 -0.0804
   27SAPC  H19R 3614   1.264   0.173   7.642 -4.0532 -1.8184 -0.1852
   27SAPC  H19S 3615   1.306   0.296   7.505 -0.3797  0.6792 -0.1707
   27SAPC  C220 3616   1.095   0.260   7.549 -0.7578 -0.2535  0.5693
   27SAPC  H20R 3617   1.021   0.254   7.632  0.9449  0.4629  2.2215
   27SAPC  H20S 3618   1.084   0.176   7.477 -1.4575  1.2131 -1.1046
   27SAPC  H20T 3619   1.065   0.341   7.479  3.2276 -0.8426 -2.1210
   27SAPC   C33 3620   1.431   0.691   7.257  0.1850  0.6156  0.9220
   27SAPC   H3X 3621   1.373   0.776   7.300 -0.3494  0.4617  0.5080
   27SAPC   H3Y 3622   1.480   0.735   7.167 -0.4073  0.8610  0.7145
   27SAPC   C34 3623   1.538   0.644   7.354  0.1639  0.4325 -0.4461
   27SAPC   H4X 3624   1.606   0.731   7.369 -0.2080  1.0221 -2.0198
   27SAPC   H4Y 3625   1.585   0.554   7.308 -0.5357 -0.6556  0.8922
   27SAPC   C35 3626   1.503   0.616   7.505  0.0956 -0.2683  0.5337
   27SAPC   H5X 3627   1.599   0.587   7.552 -0.6434 -0.8415  1.7582
   27SAPC   H5Y 3628   1.428   0.535   7.512 -2.9332  2.2208 -0.6604
   27SAPC   C36 3629   1.456   0.755   7.573 -0.6002 -0.0626 -0.3609
   27SAPC   H6X 3630   1.383   0.807   7.507 -1.4253 -1.7602 -0.8497
   27SAPC   H6Y 3631   1.546   0.820   7.582 -1.8269  1.9615 -1.8620
   27SAPC   C37 3632   1.387   0.741   7.711 -1.0044 -0.1523 -0.6554
   27SAPC   H7X 3633   1.304   0.668   7.695 -1.8796  0.3052  1.4690
   27SAPC   H7Y 3634   1.343   0.842   7.725 -0.7750  0.0907 -1.6138
   27SAPC   C38 3635   1.481   0.696   7.820 -0.8757  0.4755  1.3271
   27SAPC   H8X 3636   1.573   0.651   7.775 -0.2203  1.0483  2.0570
   27SAPC   H8Y 3637   1.429   0.611   7.868  1.2646 -2.0640 -0.5685
   27SAPC   C39 3638   1.538   0.806   7.917  0.1662 -0.4012 -0.1213
   27SAPC   H9X 3639   1.450   0.864   7.951  1.4581  2.1123 -0.7915
   27SAPC   H9Y 3640   1.587   0.879   7.849  1.7131 -2.1143 -0.9507
   27SAPC  C310 3641   1.637   0.757   8.027 -0.0865  0.2702  0.3864
   27SAPC  H10X 3642   1.723   0.699   7.986  0.0603  1.0729 -0.4637
   27SAPC  H10Y 3643   1.582   0.689   8.095 -0.9305  0.8364  0.2852
   27SAPC  C311 3644   1.683   0.875   8.114 -0.3064  0.1877  0.3287
   27SAPC  H11X 3645   1.589   0.917   8.157 -0.3180 -0.3548  0.8414
   27SAPC  H11Y 3646   1.729   0.955   8.052  0.7793 -0.5856  0.1111
   27SAPC  C312 3647   1.787   0.838   8.221 -0.5624  0.0414 -0.0994
   27SAPC  H12X 3648   1.821   0.922   8.285 -0.6165 -0.7709  1.0252
   27SAPC  H12Y 3649   1.876   0.793   8.174 -0.8801 -2.3881  1.4835
   27SAPC  C313 3650   1.744   0.735   8.328  0.6207 -0.0698 -0.3151
   27SAPC  H13X 3651   1.701   0.642   8.284  0.7160 -0.9240  1.3046
   27SAPC  H13Y 3652   1.663   0.779   8.390  0.9974  0.0901  0.0680
   27SAPC  C314 3653   1.853   0.686   8.420 -0.5340 -0.1699 -0.0614
   27SAPC  H14X 3654   1.941   0.662   8.357 -1.9889  0.4353 -2.4672
   27SAPC  H14Y 3655   1.821   0.599   8.480 -3.5601  0.8341  0.0046
   27SAPC  C315 3656   1.881   0.795   8.522  0.5080 -0.0615  0.5740
   27SAPC  H15X 3657   1.800   0.870   8.512 -0.2255 -1.1350 -2.8075
   27SAPC  H15Y 3658   1.973   0.852   8.497 -0.1438  1.9981  2.4937
   27SAPC  C316 3659   1.900   0.739   8.664  0.0020  0.2870  0.2690
   27SAPC  H16X 3660   1.977   0.659   8.674  0.9013  1.0361 -0.4910
   27SAPC  H16Y 3661   1.809   0.702   8.716 -0.0260 -0.6309 -0.4162
   27SAPC  C317 3662   1.951   0.857   8.762 -0.0896  0.5732 -0.1533
   27SAPC  H17X 3663   2.038   0.904   8.713 -1.6617  2.1161 -1.5961
   27SAPC  H17Y 3664   1.976   0.807   8.858  1.6705  0.4206 -0.6636
   27SAPC  C318 3665   1.843   0.961   8.786  0.4444  0.3564  0.4973
   27SAPC  H18X 3666   1.887   1.062   8.803  0.4971  0.6165 -1.0699
   27SAPC  H18Y 3667   1.781   0.933   8.873  1.0268 -0.6480  0.5978
   27SAPC  H18Z 3668   1.773   0.963   8.700 -0.0561 -0.2860  0.8864
   28SAPC     N 3669   2.162   6.169   5.932 -0.1776 -0.2750 -0.3750
   28SAPC   C12 3670   2.184   6.303   5.992  0.4990  0.1446 -1.1425
   28SAPC  H12A 3671   2.224   6.367   5.915 -0.6030  0.9938 -1.0327
   28SAPC  H12B 3672   2.267   6.299   6.062  1.0837  0.8110 -1.7727
   28SAPC   C13 3673   2.286   6.123   5.863  0.2766  0.2557 -0.1160
   28SAPC  H13A 3674   2.309   6.191   5.782 -0.9530  0.7354 -0.0826
   28SAPC  H13B 3675   2.373   6.122   5.927  1.1867  0.1228 -1.3114
   28SAPC  H13C 3676   2.265   6.024   5.823 -1.9402  1.5217 -2.3853
   28SAPC   C14 3677   2.129   6.063   6.037  0.7324 -0.5049 -0.5078
   28SAPC  H14A 3678   2.109   5.967   5.990  0.7334  0.4314 -2.5247
   28SAPC  H14B 3679   2.204   6.039   6.112  0.2412  1.7290  0.7737
   28SAPC  H14C 3680   2.042   6.094   6.092  0.6936 -2.4278  0.6346
   28SAPC   C15 3681   2.049   6.180   5.836  0.0411  0.1520 -0.5236
   28SAPC  H15A 3682   1.954   6.200   5.884  0.1672 -2.8402  1.2567
   28SAPC  H15B 3683   2.061   6.253   5.758 -1.7734  0.5300 -0.4784
   28SAPC  H15C 3684   2.040   6.082   5.792  1.5629 -0.4597  0.4220
   28SAPC   C11 3685   2.059   6.372   6.056 -0.8131  0.4384 -0.3331
   28SAPC  H11A 3686   1.992   6.409   5.975  1.0182  1.2662 -1.5292
   28SAPC  H11B 3687   2.090   6.474   6.086 -0.5174  0.8549 -1.9785
   28SAPC     P 3688   1.982   6.310   6.299  0.4364  0.2471  0.0308
   28SAPC   O13 3689   1.859   6.252   6.351  0.1871  0.1821 -0.3494
   28SAPC   O14 3690   2.112   6.254   6.353 -0.2798  0.3035  0.7314
   28SAPC   O12 3691   1.984   6.296   6.145 -0.1963  0.7526 -0.5968
   28SAPC   O11 3692   1.984   6.469   6.315  0.2256 -0.1416 -0.2558
   28SAPC    C1 3693   2.068   6.528   6.411  0.7848  0.7591 -0.7510
   28SAPC    HA 3694   2.172   6.488   6.413  0.5101  0.0305  1.2852
   28SAPC    HB 3695   2.067   6.635   6.382 -0.2024  0.9439 -0.0426
   28SAPC    C2 3696   2.006   6.530   6.555 -0.0546 -0.2919  0.1635
   28SAPC    HS 3697   2.065   6.596   6.621  0.0391  0.4045 -0.6092
   28SAPC   O21 3698   2.009   6.391   6.605 -0.0187 -0.3785 -0.0098
   28SAPC   C21 3699   2.119   6.328   6.645 -0.2114  0.7312 -0.2575
   28SAPC   O22 3700   2.232   6.376   6.654 -0.2141 -0.0428 -0.8125
   28SAPC   C22 3701   2.086   6.183   6.686  0.3956 -0.0169 -0.4383
   28SAPC   H2R 3702   2.077   6.126   6.591 -0.5846 -2.7819  1.1864
   28SAPC   H2S 3703   2.167   6.146   6.752  0.5163 -0.1126 -0.6424
   28SAPC    C3 3704   1.863   6.588   6.543  0.4270 -0.2795 -0.1711
   28SAPC    HX 3705   1.812   6.538   6.458 -0.4012  2.5660 -1.4772
   28SAPC    HY 3706   1.862   6.695   6.511  0.9868 -1.1169 -3.3470
   28SAPC   O31 3707   1.804   6.565   6.671  0.1747 -0.3989 -0.2827
   28SAPC   C31 3708   1.825   6.648   6.764  0.1776  0.1584 -0.1740
   28SAPC   O32 3709   1.882   6.752   6.744 -0.2356 -0.4494  0.6006
   28SAPC   C32 3710   1.761   6.603   6.900  0.1811 -0.1258  0.4615
   28SAPC   H2X 3711   1.768   6.493   6.912  1.3376 -0.0315  0.8051
   28SAPC   H2Y 3712   1.657   6.642   6.904  0.6001  1.0883 -0.2408
   28SAPC   C23 3713   1.947   6.165   6.749  0.0813 -0.4302 -1.4547
   28SAPC   H3R 3714   1.911   6.060   6.755 -1.4218  0.1497  1.7193
   28SAPC   H3S 3715   1.872   6.231   6.702 -0.2587  0.8799  0.7773
   28SAPC   C24 3716   1.949   6.213   6.898 -1.1782  0.3721  0.7079
   28SAPC   H4R 3717   2.015   6.140   6.950 -1.0758  0.5188  0.7803
   28SAPC   H4S 3718   1.989   6.316   6.900 -1.5350  0.6972 -2.7444
   28SAPC   C25 3719   1.813   6.214   6.967  0.6488 -0.3472  0.5241
   28SAPC   H5R 3720   1.744   6.265   6.897 -0.1169 -2.1127 -0.0710
   28SAPC   C26 3721   1.764   6.165   7.081  0.3376 -0.2049 -0.2196
   28SAPC   H6R 3722   1.658   6.156   7.110  0.0795 -1.0323 -1.3786
   28SAPC   C27 3723   1.856   6.091   7.176  0.2236  0.1835 -0.5592
   28SAPC   H7R 3724   1.943   6.045   7.125  0.5891 -1.3817  1.3402
   28SAPC   H7S 3725   1.799   6.006   7.220  3.3104 -1.3080  0.8734
   28SAPC   C28 3726   1.912   6.199   7.276  0.7024  0.6670 -0.3346
   28SAPC   H8R 3727   1.962   6.286   7.232  0.2454  0.7222 -0.7483
   28SAPC   C29 3728   1.887   6.186   7.412  0.0751 -1.0902  0.3377
   28SAPC   H9R 3729   1.926   6.271   7.470  1.5359 -0.0993 -1.9838
   28SAPC  C210 3730   1.823   6.072   7.492 -0.4400  0.1155  0.3430
   28SAPC  H10R 3731   1.901   6.010   7.542  2.2175  0.9694 -2.4239
   28SAPC  H10S 3732   1.777   5.996   7.426 -0.8642 -0.2828  1.0800
   28SAPC  C211 3733   1.716   6.113   7.581  0.0337 -0.0262 -0.3020
   28SAPC  H11R 3734   1.628   6.154   7.529  0.4823 -0.6097 -1.5400
   28SAPC  C212 3735   1.711   6.101   7.713  0.0393  0.0511 -0.3114
   28SAPC  H12R 3736   1.634   6.155   7.771  1.7699  0.9256  1.3198
   28SAPC  C213 3737   1.811   6.047   7.809 -0.0972  0.2933  0.0329
   28SAPC  H13R 3738   1.894   5.995   7.756  0.3451 -0.5058  1.4349
   28SAPC  H13S 3739   1.759   5.967   7.866  0.1530 -0.0543 -0.2233
   28SAPC  C214 3740   1.867   6.157   7.897 -0.2148 -0.4171  0.0148
   28SAPC  H14R 3741   1.951   6.210   7.850 -0.7151 -0.8179 -1.3626
   28SAPC  C215 3742   1.828   6.185   8.024  0.0457  0.2825 -0.2883
   28SAPC  H15R 3743   1.872   6.273   8.072 -2.0652  1.9246 -1.2182
   28SAPC  C216 3744   1.731   6.110   8.109 -0.3077  0.3527 -0.2006
   28SAPC  H16R 3745   1.649   6.070   8.044 -1.7138  0.2881  1.5240
   28SAPC  H16S 3746   1.697   6.193   8.175  1.3623  1.2347 -0.3953
   28SAPC  C217 3747   1.787   5.976   8.175 -0.4959  0.0558 -0.4156
   28SAPC  H17R 3748   1.825   5.906   8.098 -1.1401  2.2254 -2.8710
   28SAPC  H17S 3749   1.696   5.936   8.225 -1.9018  0.8654 -2.1946
   28SAPC  C218 3750   1.891   6.002   8.287 -0.2009  0.3137 -0.1285
   28SAPC  H18R 3751   1.892   6.098   8.343  2.1347 -0.4802  1.3415
   28SAPC  H18S 3752   1.991   5.989   8.241  0.1935  0.3683  0.6858
   28SAPC  C219 3753   1.881   5.898   8.402 -0.4282 -0.7121  0.0262
   28SAPC  H19R 3754   1.847   5.808   8.347 -2.9138  0.1374  0.0159
   28SAPC  H19S 3755   1.803   5.935   8.473  0.1656 -0.6291  0.6424
   28SAPC  C220 3756   2.013   5.884   8.474 -0.4557  0.6980 -0.3924
   28SAPC  H20R 3757   2.087   5.851   8.399  0.8484 -0.1992  1.2310
   28SAPC  H20S 3758   2.009   5.814   8.560 -0.1237  0.8615 -0.2431
   28SAPC  H20T 3759   2.039   5.985   8.511  1.3812  0.7760 -1.7857
   28SAPC   C33 3760   1.834   6.677   7.016 -0.2328 -0.8714  0.6004
   28SAPC   H3X 3761   1.806   6.785   7.022  3.9819  0.4603 -0.5634
   28SAPC   H3Y 3762   1.942   6.675   6.995 -0.2511 -1.6679  0.5854
   28SAPC   C34 3763   1.802   6.603   7.142 -0.1860 -0.7316 -0.9455
   28SAPC   H4X 3764   1.819   6.493   7.146  0.1501 -0.6537  0.4062
   28SAPC   H4Y 3765   1.694   6.610   7.167 -0.1344 -1.1442 -0.5893
   28SAPC   C35 3766   1.871   6.672   7.263  0.5821  0.0696 -0.3407
   28SAPC   H5X 3767   1.831   6.775   7.277  2.1762  0.4289  2.2975
   28SAPC   H5Y 3768   1.980   6.679   7.242  0.7661 -3.0587 -0.9530
   28SAPC   C36 3769   1.876   6.587   7.392  0.1799  0.2574  0.1156
   28SAPC   H6X 3770   1.925   6.652   7.468 -0.8578 -0.1205  1.1396
   28SAPC   H6Y 3771   1.935   6.501   7.354 -1.0539 -0.5557 -0.0093
   28SAPC   C37 3772   1.741   6.541   7.441 -0.2122  0.9648 -0.0151
   28SAPC   H7X 3773   1.702   6.460   7.376 -0.2023  1.9892 -1.3475
   28SAPC   H7Y 3774   1.671   6.628   7.434  0.1295  1.1638 -1.0311
   28SAPC   C38 3775   1.737   6.487   7.585 -0.1009  0.1226  0.0920
   28SAPC   H8X 3776   1.834   6.432   7.596 -0.1081  0.0022 -0.4508
   28SAPC   H8Y 3777   1.652   6.417   7.600  0.6294 -0.3913  2.3247
   28SAPC   C39 3778   1.726   6.593   7.698 -1.0804  0.5632  0.6672
   28SAPC   H9X 3779   1.638   6.657   7.675 -2.3105 -0.2772  2.7607
   28SAPC   H9Y 3780   1.815   6.659   7.690  0.0342 -0.7723  1.5946
   28SAPC  C310 3781   1.730   6.528   7.835 -0.6118 -0.3824  0.7021
   28SAPC  H10X 3782   1.813   6.456   7.852  0.4393  0.2489 -1.4371
   28SAPC  H10Y 3783   1.641   6.464   7.850 -1.2575  0.3117 -0.1397
   28SAPC  C311 3784   1.749   6.633   7.943  0.5942 -0.2020 -0.1462
   28SAPC  H11X 3785   1.669   6.710   7.942  0.6457 -0.1605 -0.8912
   28SAPC  H11Y 3786   1.844   6.687   7.921 -0.1181  1.2936  0.3767
   28SAPC  C312 3787   1.742   6.563   8.081 -0.1315  0.0475 -0.0780
   28SAPC  H12X 3788   1.839   6.510   8.097 -0.9837 -1.0472  1.9621
   28SAPC  H12Y 3789   1.671   6.478   8.081  0.8632 -1.0112 -4.2937
   28SAPC  C313 3790   1.707   6.665   8.193 -0.4707  0.2619 -0.1380
   28SAPC  H13X 3791   1.606   6.702   8.164 -0.9466 -1.7698 -1.2995
   28SAPC  H13Y 3792   1.784   6.745   8.189 -0.5986  0.4399  0.7198
   28SAPC  C314 3793   1.698   6.605   8.332 -0.0024 -0.3212 -0.5335
   28SAPC  H14X 3794   1.797   6.575   8.372 -0.8255 -1.6028  0.6125
   28SAPC  H14Y 3795   1.629   6.518   8.337 -1.8823  1.1086 -0.3114
   28SAPC  C315 3796   1.662   6.704   8.449 -0.0787  0.5147 -0.2809
   28SAPC  H15X 3797   1.553   6.724   8.438 -0.5472 -1.3465  0.5988
   28SAPC  H15Y 3798   1.715   6.801   8.439 -1.1073  0.9645 -1.6657
   28SAPC  C316 3799   1.701   6.653   8.594  0.2480  0.8046 -0.2763
   28SAPC  H16X 3800   1.793   6.590   8.591 -0.2064  0.0909  0.4691
   28SAPC  H16Y 3801   1.612   6.593   8.620 -0.7208  1.6406 -1.5330
   28SAPC  C317 3802   1.703   6.773   8.687  0.3630 -0.3333 -0.6642
   28SAPC  H17X 3803   1.603   6.820   8.681  0.1535 -0.8308 -1.1574
   28SAPC  H17Y 3804   1.791   6.835   8.660  0.2946  0.4353  0.7671
   28SAPC  C318 3805   1.716   6.736   8.836  0.7844  0.0822 -0.4248
   28SAPC  H18X 3806   1.796   6.662   8.861 -0.5668 -0.5933  2.3274
   28SAPC  H18Y 3807   1.625   6.677   8.860  1.3572 -0.5868  0.1785
   28SAPC  H18Z 3808   1.725   6.815   8.914 -0.7997 -1.9584  2.0177
   29SAPC     N 3809   4.977   3.127   6.098  0.0518 -0.5796 -0.3257
   29SAPC   C12 3810   4.959   3.228   6.210  0.0847  0.5578  0.6658
   29SAPC  H12A 3811   4.904   3.315   6.176 -1.2479 -0.6156 -0.2459
   29SAPC  H12B 3812   5.054   3.268   6.244  0.4308  0.6053 -0.3301
   29SAPC   C13 3813   5.061   3.013   6.150 -0.0852 -0.5318 -0.5496
   29SAPC  H13A 3814   5.005   2.971   6.232 -0.2019  0.1860 -0.2567
   29SAPC  H13B 3815   5.077   2.941   6.071 -0.7208 -0.5658 -0.6557
   29SAPC  H13C 3816   5.159   3.043   6.182 -0.4782  0.0021  0.1669
   29SAPC   C14 3817   4.838   3.082   6.053 -0.3640  0.1083 -0.1886
   29SAPC  H14A 3818   4.848   3.011   5.973 -2.0751  0.3736 -0.6788
   29SAPC  H14B 3819   4.784   3.030   6.131 -0.9353  0.2070 -0.5160
   29SAPC  H14C 3820   4.784   3.172   6.027  0.0966  0.4885  0.1541
   29SAPC   C15 3821   5.057   3.195   5.988  0.6454 -0.1212  0.0405
   29SAPC  H15A 3822   5.001   3.280   5.952  1.3864 -0.0430 -0.9533
   29SAPC  H15B 3823   5.151   3.234   6.025  0.1694  1.8070 -0.6553
   29SAPC  H15C 3824   5.077   3.128   5.907  1.4073  0.0238  0.1008
   29SAPC   C11 3825   4.888   3.177   6.339 -0.1429  0.4907 -0.8117
   29SAPC  H11A 3826   4.894   3.251   6.422  2.4683 -0.5867  0.0743
   29SAPC  H11B 3827   4.940   3.091   6.387 -1.1369 -0.1444 -0.8411
   29SAPC     P 3828   4.680   3.011   6.367 -0.4239  0.1108 -0.5466
   29SAPC   O13 3829   4.613   2.947   6.253  0.7317  0.1870  0.1250
   29SAPC   O14 3830   4.780   2.921   6.434 -1.3013  0.2330  0.5332
   29SAPC   O12 3831   4.751   3.143   6.317  0.2829  0.8482 -0.6764
   29SAPC   O11 3832   4.576   3.058   6.474  0.0743  0.9019  0.4395
   29SAPC    C1 3833   4.535   3.196   6.483  0.2339  0.5478  0.4953
   29SAPC    HA 3834   4.613   3.271   6.458  0.6930  1.0349  3.1200
   29SAPC    HB 3835   4.451   3.227   6.416  1.4533  0.4128 -1.1596
   29SAPC    C2 3836   4.482   3.226   6.630  0.0733  0.2805  0.2286
   29SAPC    HS 3837   4.569   3.269   6.683  0.5297  2.4823 -2.1210
   29SAPC   O21 3838   4.433   3.105   6.690 -0.1330 -0.7112  0.3546
   29SAPC   C21 3839   4.333   3.042   6.634 -0.8097 -0.6225  0.0274
   29SAPC   O22 3840   4.260   3.085   6.547 -0.4861 -0.2848 -0.1353
   29SAPC   C22 3841   4.309   2.910   6.708 -0.4177 -0.8469  0.6884
   29SAPC   H2R 3842   4.378   2.837   6.660 -0.3248  1.2199 -2.6342
   29SAPC   H2S 3843   4.318   2.918   6.819  2.3199 -0.8702  0.5371
   29SAPC    C3 3844   4.379   3.345   6.634  0.2337  0.6046 -0.1594
   29SAPC    HX 3845   4.289   3.315   6.576 -1.4027  0.2881  2.4028
   29SAPC    HY 3846   4.435   3.428   6.585 -1.3601  0.9052 -1.5761
   29SAPC   O31 3847   4.331   3.381   6.765  0.0346  0.0976  0.1340
   29SAPC   C31 3848   4.403   3.473   6.833  0.1234  0.6957  0.3861
   29SAPC   O32 3849   4.489   3.543   6.795 -0.5755 -0.3038  0.7756
   29SAPC   C32 3850   4.356   3.472   6.978 -1.1107 -0.5261 -0.4173
   29SAPC   H2X 3851   4.252   3.510   6.988 -0.6104  0.8802 -0.2427
   29SAPC   H2Y 3852   4.434   3.535   7.026 -0.2275 -2.8914  1.4456
   29SAPC   C23 3853   4.165   2.858   6.691  0.3063  0.7135 -0.1748
   29SAPC   H3R 3854   4.141   2.754   6.724  1.3284  0.5821  0.1988
   29SAPC   H3S 3855   4.125   2.872   6.589  0.0667  0.8015 -0.0704
   29SAPC   C24 3856   4.061   2.935   6.780 -0.6911 -0.4578  0.3808
   29SAPC   H4R 3857   4.066   3.043   6.758  0.4038 -0.9408 -2.1641
   29SAPC   H4S 3858   4.083   2.916   6.887  0.7770  0.0971  0.2006
   29SAPC   C25 3859   3.920   2.895   6.742  0.0778  0.2338  0.0277
   29SAPC   H5R 3860   3.880   2.942   6.651 -2.1409  0.2617  0.9297
   29SAPC   C26 3861   3.847   2.810   6.818  0.5868 -0.1444 -0.0214
   29SAPC   H6R 3862   3.744   2.783   6.793  0.8040 -2.3724  1.2140
   29SAPC   C27 3863   3.902   2.738   6.943 -0.0560 -0.3291 -0.4150
   29SAPC   H7R 3864   3.880   2.810   7.025  0.2175  0.5299 -1.0715
   29SAPC   H7S 3865   4.012   2.726   6.940 -0.1368 -1.1416 -0.1261
   29SAPC   C28 3866   3.842   2.605   6.981  0.1563 -0.5999  0.9534
   29SAPC   H8R 3867   3.735   2.604   7.006 -0.9868  4.3170 -2.3057
   29SAPC   C29 3868   3.903   2.491   6.974 -0.3803 -0.2342  0.3029
   29SAPC   H9R 3869   3.844   2.401   6.999  0.1942 -0.0692  2.3967
   29SAPC  C210 3870   4.048   2.474   6.937  0.2052 -0.4746 -0.2689
   29SAPC  H10R 3871   4.109   2.530   7.011 -1.3372  2.9598 -1.3801
   29SAPC  H10S 3872   4.062   2.538   6.847  0.4419  0.8893  0.7042
   29SAPC  C211 3873   4.077   2.331   6.925 -0.3171  0.1321 -0.0491
   29SAPC  H11R 3874   4.051   2.290   6.826  0.5785  0.6228 -0.5025
   29SAPC  C212 3875   4.143   2.252   7.014 -0.2981 -0.2335 -0.6616
   29SAPC  H12R 3876   4.176   2.150   6.992 -0.7875 -0.8452  1.2905
   29SAPC  C213 3877   4.192   2.300   7.146 -0.6821  0.4575  0.3852
   29SAPC  H13R 3878   4.140   2.395   7.172  2.6363  1.9924  1.8795
   29SAPC  H13S 3879   4.296   2.336   7.136 -0.0062 -1.6005 -0.6801
   29SAPC  C214 3880   4.178   2.184   7.247  0.2873  0.1621  0.3699
   29SAPC  H14R 3881   4.115   2.098   7.221  2.2864 -2.3306  3.0270
   29SAPC  C215 3882   4.246   2.174   7.363  0.7803  0.1339 -0.1342
   29SAPC  H15R 3883   4.224   2.084   7.421  1.7586  0.3999  0.6718
   29SAPC  C216 3884   4.335   2.275   7.418  0.1160 -0.1738 -0.5435
   29SAPC  H16R 3885   4.319   2.372   7.366  0.8465 -0.1222 -0.6825
   29SAPC  H16S 3886   4.440   2.247   7.398 -0.7284 -2.5072 -2.1197
   29SAPC  C217 3887   4.317   2.299   7.568  0.9647 -0.2586  0.6243
   29SAPC  H17R 3888   4.317   2.210   7.634  1.7290 -0.7155  0.0145
   29SAPC  H17S 3889   4.213   2.338   7.579  1.0974  0.2231  0.2186
   29SAPC  C218 3890   4.416   2.410   7.612  0.1165 -0.4479 -0.4343
   29SAPC  H18R 3891   4.422   2.490   7.536  0.6872  1.8521  1.8988
   29SAPC  H18S 3892   4.517   2.370   7.634  0.6363  1.1444  0.1840
   29SAPC  C219 3893   4.361   2.488   7.736 -0.1447  0.0818 -0.9710
   29SAPC  H19R 3894   4.251   2.500   7.723 -0.5184  0.4399  1.7652
   29SAPC  H19S 3895   4.408   2.588   7.745  1.5239 -0.4770 -2.7978
   29SAPC  C220 3896   4.386   2.421   7.875 -0.1421 -0.1389  0.5215
   29SAPC  H20R 3897   4.496   2.411   7.893  0.3489  0.3498 -1.8455
   29SAPC  H20S 3898   4.345   2.318   7.875 -0.2459 -0.1722 -2.2730
   29SAPC  H20T 3899   4.344   2.479   7.960 -1.4870  0.9724 -0.8366
   29SAPC   C33 3900   4.355   3.338   7.049  0.2287  0.3901  0.0164
   29SAPC   H3X 3901   4.337   3.254   6.978  2.4607  1.5808 -2.1190
   29SAPC   H3Y 3902   4.276   3.336   7.127 -0.4592  0.2081 -0.6743
   29SAPC   C34 3903   4.480   3.305   7.125  0.4246  0.0148 -0.6769
   29SAPC   H4X 3904   4.509   3.393   7.187  0.8280 -0.3708 -0.3098
   29SAPC   H4Y 3905   4.558   3.281   7.049  0.1959 -2.7337 -0.1185
   29SAPC   C35 3906   4.480   3.179   7.211  0.5629 -0.5866  0.1661
   29SAPC   H5X 3907   4.418   3.199   7.302  0.8170 -0.1571  0.2490
   29SAPC   H5Y 3908   4.588   3.168   7.236  0.6687  2.0804  1.3369
   29SAPC   C36 3909   4.429   3.055   7.140 -0.0946  0.4893 -0.1578
   29SAPC   H6X 3910   4.480   3.030   7.044  0.8373  1.0793  0.1754
   29SAPC   H6Y 3911   4.320   3.074   7.126 -0.0733 -0.1245 -1.2593
   29SAPC   C37 3912   4.465   2.933   7.223  0.0805  0.4008  0.7323
   29SAPC   H7X 3913   4.416   2.915   7.322  1.8897  0.1472  1.6165
   29SAPC   H7Y 3914   4.572   2.946   7.250  1.0885 -2.2319 -1.5279
   29SAPC   C38 3915   4.438   2.799   7.141  1.2075 -0.2134  0.0524
   29SAPC   H8X 3916   4.467   2.717   7.209  0.7871  0.0754  0.5865
   29SAPC   H8Y 3917   4.502   2.800   7.050  0.5898  3.3755 -0.5132
   29SAPC   C39 3918   4.287   2.771   7.099 -0.0895  0.1750 -0.3777
   29SAPC   H9X 3919   4.295   2.670   7.054  2.4374 -0.3733  1.0824
   29SAPC   H9Y 3920   4.265   2.848   7.022  1.5506  0.9933 -0.0653
   29SAPC  C310 3921   4.181   2.782   7.204 -0.4430 -0.9366 -1.1787
   29SAPC  H10X 3922   4.083   2.774   7.152 -1.7649  1.8700  0.6218
   29SAPC  H10Y 3923   4.184   2.885   7.245 -2.2766 -1.3912  0.2600
   29SAPC  C311 3924   4.185   2.678   7.319  0.4094 -0.0470  0.1036
   29SAPC  H11X 3925   4.279   2.694   7.376  0.9072  0.1812 -0.7531
   29SAPC  H11Y 3926   4.203   2.576   7.279  0.3526  0.0627 -0.2028
   29SAPC  C312 3927   4.056   2.668   7.408 -0.0107 -1.1189 -0.3689
   29SAPC  H12X 3928   3.966   2.629   7.356 -1.3827  0.8202  0.4270
   29SAPC  H12Y 3929   4.015   2.768   7.434 -1.1660 -1.0803 -2.1631
   29SAPC  C313 3930   4.081   2.605   7.548 -0.0878 -0.4380 -0.4549
   29SAPC  H13X 3931   4.164   2.665   7.590 -0.0798  0.0565 -1.1505
   29SAPC  H13Y 3932   4.114   2.500   7.534  0.3157 -0.4508  0.5437
   29SAPC  C314 3933   3.959   2.604   7.639  0.0396  0.0305  0.3064
   29SAPC  H14X 3934   3.879   2.537   7.599  0.4362 -0.6657  0.6501
   29SAPC  H14Y 3935   3.917   2.705   7.655  2.8797  1.3937 -0.1557
   29SAPC  C315 3936   3.989   2.552   7.787  0.1815 -0.0683  0.7864
   29SAPC  H15X 3937   4.039   2.627   7.852  1.0430 -2.7997  3.5532
   29SAPC  H15Y 3938   4.054   2.461   7.784  1.1877  0.6090  1.3711
   29SAPC  C316 3939   3.868   2.512   7.864 -0.0264  0.3159 -0.0620
   29SAPC  H16X 3940   3.836   2.409   7.839 -0.3702  0.4063  0.0013
   29SAPC  H16Y 3941   3.785   2.576   7.826 -0.2456  0.4361  0.6056
   29SAPC  C317 3942   3.887   2.517   8.016  0.4419 -0.2954  0.2297
   29SAPC  H17X 3943   3.914   2.622   8.040  2.8382 -0.4313 -1.5020
   29SAPC  H17Y 3944   3.978   2.465   8.054  0.9260 -0.2750 -0.8485
   29SAPC  C318 3945   3.760   2.480   8.094 -0.7560 -1.0508  0.1505
   29SAPC  H18X 3946   3.766   2.496   8.203  0.5964  0.5950 -0.1152
   29SAPC  H18Y 3947   3.742   2.371   8.085  3.5974 -1.8556 -1.3370
   29SAPC  H18Z 3948   3.671   2.536   8.058 -1.4214 -2.2080 -0.0677
   30SAPC     N 3949   5.266   2.471   5.911  0.0168  0.4789 -1.2225
   30SAPC   C12 3950   5.370   2.472   6.029 -0.3269 -0.6921  0.2110
   30SAPC  H12A 3951   5.394   2.369   6.051 -1.7474 -0.9178  0.7588
   30SAPC  H12B 3952   5.324   2.519   6.115  0.4926 -0.3126  0.4555
   30SAPC   C13 3953   5.336   2.440   5.783  0.5305 -0.1739 -0.0839
   30SAPC  H13A 3954   5.422   2.500   5.756  0.7667 -0.6945 -0.5117
   30SAPC  H13B 3955   5.378   2.341   5.791  1.6597  0.2053 -1.0225
   30SAPC  H13C 3956   5.273   2.435   5.696  1.4029 -1.8588 -0.6672
   30SAPC   C14 3957   5.156   2.374   5.931  0.0600  1.0150  0.3924
   30SAPC  H14A 3958   5.124   2.368   6.033  0.0170 -3.3869  0.3094
   30SAPC  H14B 3959   5.083   2.392   5.853  1.9950 -0.5008 -1.9135
   30SAPC  H14C 3960   5.190   2.276   5.903 -1.6957  0.5053 -0.0860
   30SAPC   C15 3961   5.197   2.596   5.900 -0.7619 -0.3085 -0.6875
   30SAPC  H15A 3962   5.163   2.625   5.998  0.8544  1.6369 -0.6431
   30SAPC  H15B 3963   5.254   2.675   5.854 -0.6140  1.0820  1.7112
   30SAPC  H15C 3964   5.110   2.591   5.836 -0.0588 -0.7212 -1.6244
   30SAPC   C11 3965   5.497   2.555   6.012 -0.4816  0.9789  0.2063
   30SAPC  H11A 3966   5.558   2.512   5.930 -0.8387 -0.0437  0.4607
   30SAPC  H11B 3967   5.563   2.537   6.100  0.1569  1.4219 -0.1721
   30SAPC     P 3968   5.470   2.802   6.085  0.0705  0.0515 -0.1554
   30SAPC   O13 3969   5.613   2.842   6.090  0.2138 -0.6219 -0.6149
   30SAPC   O14 3970   5.363   2.899   6.045 -0.4049  0.7857  0.0744
   30SAPC   O12 3971   5.471   2.688   5.983 -0.6087  0.1049 -0.0193
   30SAPC   O11 3972   5.437   2.740   6.228  0.8659 -0.5177 -0.2967
   30SAPC    C1 3973   5.341   2.807   6.317 -0.1549  0.1524 -0.8878
   30SAPC    HA 3974   5.386   2.903   6.350  1.5218 -1.0184  0.4165
   30SAPC    HB 3975   5.244   2.820   6.264 -1.0293 -1.1035  0.3493
   30SAPC    C2 3976   5.316   2.716   6.440 -0.2616 -0.0404 -0.6634
   30SAPC    HS 3977   5.234   2.750   6.507  0.0309  0.0262 -0.3337
   30SAPC   O21 3978   5.437   2.712   6.521 -0.2456  0.8283 -0.1459
   30SAPC   C21 3979   5.463   2.821   6.597  0.5632  0.5498 -0.1628
   30SAPC   O22 3980   5.386   2.913   6.614  0.1365 -0.4581  0.4984
   30SAPC   C22 3981   5.604   2.815   6.660  0.7213 -0.1235 -2.0230
   30SAPC   H2R 3982   5.628   2.712   6.694  3.0550  0.7314 -0.8789
   30SAPC   H2S 3983   5.677   2.857   6.588  0.5561  2.5068 -0.8045
   30SAPC    C3 3984   5.280   2.569   6.411 -0.3615  0.1155 -0.3336
   30SAPC    HX 3985   5.355   2.522   6.343 -0.2453 -0.6887  0.3283
   30SAPC    HY 3986   5.186   2.569   6.352  0.4700  1.6212 -1.7202
   30SAPC   O31 3987   5.284   2.479   6.527 -0.1484 -0.4785  0.0642
   30SAPC   C31 3988   5.176   2.498   6.605 -0.2914 -0.5564 -0.9343
   30SAPC   O32 3989   5.081   2.571   6.583  0.8972  0.3574 -0.2495
   30SAPC   C32 3990   5.204   2.419   6.733 -0.3862 -0.2679 -0.1152
   30SAPC   H2X 3991   5.290   2.465   6.787 -0.6861  0.2494 -0.0725
   30SAPC   H2Y 3992   5.219   2.314   6.701  1.4655  0.0086 -0.2597
   30SAPC   C23 3993   5.602   2.897   6.800  0.3051 -0.5962  1.5932
   30SAPC   H3R 3994   5.588   3.003   6.769 -1.9685 -1.3916 -0.4104
   30SAPC   H3S 3995   5.702   2.887   6.848  0.7903 -0.5249  0.6227
   30SAPC   C24 3996   5.490   2.853   6.895  0.3563 -0.7632 -0.9508
   30SAPC   H4R 3997   5.487   2.744   6.917  2.8100 -0.3753  1.7969
   30SAPC   H4S 3998   5.391   2.878   6.849 -0.5238 -2.0842  0.1415
   30SAPC   C25 3999   5.488   2.932   7.029 -0.5972  0.1083 -0.4196
   30SAPC   H5R 4000   5.470   3.040   7.018 -0.0454  0.5282  2.1722
   30SAPC   C26 4001   5.520   2.888   7.153  0.5666 -0.2280 -0.4482
   30SAPC   H6R 4002   5.505   2.960   7.235  0.3276  0.4949 -1.1098
   30SAPC   C27 4003   5.559   2.748   7.196 -0.8887  0.3905 -0.4054
   30SAPC   H7R 4004   5.658   2.763   7.245 -0.3728 -0.9088 -1.0144
   30SAPC   H7S 4005   5.584   2.681   7.111  1.0515 -1.5061  1.5286
   30SAPC   C28 4006   5.454   2.684   7.280  0.5159 -0.0292 -0.0026
   30SAPC   H8R 4007   5.380   2.624   7.225 -0.4011 -1.7856  2.9056
   30SAPC   C29 4008   5.456   2.679   7.410 -0.0088 -0.1745  0.2043
   30SAPC   H9R 4009   5.375   2.624   7.461 -1.5943 -0.3671 -2.3717
   30SAPC  C210 4010   5.550   2.748   7.506  0.7515 -0.1424  0.3447
   30SAPC  H10R 4011   5.509   2.755   7.609 -1.2656 -0.2487 -0.3968
   30SAPC  H10S 4012   5.561   2.853   7.473 -1.1223 -1.1056 -4.0451
   30SAPC  C211 4013   5.690   2.694   7.501  0.1159 -0.4406  0.8051
   30SAPC  H11R 4014   5.724   2.645   7.409  0.0125  0.4337  0.2903
   30SAPC  C212 4015   5.775   2.707   7.604 -0.0114  0.1136 -0.4089
   30SAPC  H12R 4016   5.872   2.655   7.602  0.6401  1.2333  0.6933
   30SAPC  C213 4017   5.740   2.775   7.739  0.0988 -0.2126 -0.2959
   30SAPC  H13R 4018   5.666   2.853   7.710 -0.8098 -0.2137  1.8765
   30SAPC  H13S 4019   5.824   2.838   7.776 -1.6478  1.3316  1.2963
   30SAPC  C214 4020   5.668   2.686   7.841  0.1571 -0.1568  0.0336
   30SAPC  H14R 4021   5.568   2.647   7.816  0.8502 -2.2522  0.3678
   30SAPC  C215 4022   5.711   2.654   7.963  0.4575 -0.0173  0.2824
   30SAPC  H15R 4023   5.659   2.576   8.020  1.5969 -0.5675  0.6024
   30SAPC  C216 4024   5.847   2.677   8.021 -0.4049 -0.5000  0.1981
   30SAPC  H16R 4025   5.923   2.707   7.945  0.6878 -1.9119  0.6627
   30SAPC  H16S 4026   5.877   2.579   8.065 -0.3176 -0.3521  0.4724
   30SAPC  C217 4027   5.846   2.787   8.127 -0.2539  0.2150 -0.2178
   30SAPC  H17R 4028   5.815   2.881   8.077  1.1298 -0.0074 -1.5356
   30SAPC  H17S 4029   5.948   2.801   8.169  0.5139 -1.2770 -1.4957
   30SAPC  C218 4030   5.752   2.753   8.245  0.3088 -0.3803  0.5234
   30SAPC  H18R 4031   5.776   2.660   8.301 -2.4682 -1.1832  0.5064
   30SAPC  H18S 4032   5.649   2.762   8.204  0.3638  1.0409  0.6304
   30SAPC  C219 4033   5.757   2.867   8.348 -0.3141  0.6964 -0.5053
   30SAPC  H19R 4034   5.718   2.968   8.321 -1.4144  0.5292  0.3867
   30SAPC  H19S 4035   5.865   2.876   8.369 -0.2453 -1.1995  0.1311
   30SAPC  C220 4036   5.685   2.847   8.481 -0.5101  0.1766  0.2978
   30SAPC  H20R 4037   5.739   2.768   8.537  0.6676 -0.2437 -1.3405
   30SAPC  H20S 4038   5.579   2.824   8.457 -0.9720  4.0620 -2.4247
   30SAPC  H20T 4039   5.689   2.946   8.529 -1.1438  0.8148 -0.9067
   30SAPC   C33 4040   5.086   2.433   6.830  0.7220 -0.7571  0.0531
   30SAPC   H3X 4041   4.996   2.384   6.786  2.1109 -2.0827 -1.4764
   30SAPC   H3Y 4042   5.059   2.538   6.853 -0.1563 -1.2600  1.4619
   30SAPC   C34 4043   5.105   2.360   6.963 -0.6726  0.4966  0.1587
   30SAPC   H4X 4044   5.146   2.257   6.952  1.5613  1.1512  1.5871
   30SAPC   H4Y 4045   5.008   2.342   7.014 -0.5976  1.2395  0.5735
   30SAPC   C35 4046   5.207   2.434   7.061 -0.0566  0.1464 -0.1419
   30SAPC   H5X 4047   5.172   2.537   7.083 -1.0717  0.2888 -2.1216
   30SAPC   H5Y 4048   5.302   2.437   7.004 -0.9849 -0.0092 -1.7893
   30SAPC   C36 4049   5.229   2.369   7.196 -0.0819 -0.5804  0.6250
   30SAPC   H6X 4050   5.286   2.437   7.263  1.4927 -1.0954 -0.1532
   30SAPC   H6Y 4051   5.284   2.277   7.167 -1.8445 -1.0898 -1.3080
   30SAPC   C37 4052   5.101   2.337   7.275 -0.2552 -0.5440 -0.1429
   30SAPC   H7X 4053   5.053   2.241   7.246 -3.7351 -0.3601  4.0508
   30SAPC   H7Y 4054   5.031   2.421   7.258 -0.6498 -0.6897  0.7144
   30SAPC   C38 4055   5.133   2.321   7.426  0.1502 -0.2725  0.4900
   30SAPC   H8X 4056   5.215   2.247   7.434  0.5896  0.1061 -0.3718
   30SAPC   H8Y 4057   5.034   2.285   7.464 -0.5489  1.4594  0.4068
   30SAPC   C39 4058   5.184   2.445   7.504 -0.0492 -0.0082 -0.3461
   30SAPC   H9X 4059   5.131   2.531   7.458 -1.1083 -1.5477 -2.1503
   30SAPC   H9Y 4060   5.295   2.446   7.512 -0.0171 -0.8576 -0.6303
   30SAPC  C310 4061   5.148   2.435   7.650  0.4708  0.2398 -0.3255
   30SAPC  H10X 4062   5.159   2.328   7.676 -0.3770 -0.2541 -1.8655
   30SAPC  H10Y 4063   5.037   2.446   7.651  0.4290  0.1249  2.3563
   30SAPC  C311 4064   5.230   2.526   7.730  0.0706 -0.5991 -0.2121
   30SAPC  H11X 4065   5.223   2.631   7.694  3.2566  0.7260  2.5062
   30SAPC  H11Y 4066   5.338   2.498   7.729  0.7537  1.6394  1.4830
   30SAPC  C312 4067   5.175   2.519   7.878  0.0352  0.0809 -0.0027
   30SAPC  H12X 4068   5.142   2.415   7.897  1.0098  0.1913  2.6366
   30SAPC  H12Y 4069   5.086   2.585   7.890  0.5083  0.9361 -1.0403
   30SAPC  C313 4070   5.285   2.547   7.982  0.6446 -0.2920  0.3474
   30SAPC  H13X 4071   5.330   2.647   7.965  1.3788 -0.6093  0.3908
   30SAPC  H13Y 4072   5.362   2.468   7.983  1.1607  0.2097  0.4220
   30SAPC  C314 4073   5.239   2.549   8.127 -0.1501 -0.0235 -0.3404
   30SAPC  H14X 4074   5.218   2.443   8.152  1.5266 -0.0576  1.1462
   30SAPC  H14Y 4075   5.144   2.606   8.127 -0.2470 -0.1829 -0.8038
   30SAPC  C315 4076   5.351   2.597   8.219  0.2722 -0.4194 -0.3708
   30SAPC  H15X 4077   5.359   2.708   8.224  1.7507 -0.5450  0.6019
   30SAPC  H15Y 4078   5.452   2.558   8.196  0.5829  0.6909 -0.9440
   30SAPC  C316 4079   5.322   2.562   8.369  0.2750  0.5005 -0.7595
   30SAPC  H16X 4080   5.386   2.618   8.440  0.4174  0.0730 -0.5518
   30SAPC  H16Y 4081   5.346   2.454   8.377  2.1618  0.6814 -2.9361
   30SAPC  C317 4082   5.176   2.597   8.408 -0.0078 -0.3047  0.0989
   30SAPC  H17X 4083   5.096   2.542   8.353  0.1379  0.1966 -0.6324
   30SAPC  H17Y 4084   5.159   2.707   8.401  0.8945 -0.0303  1.7893
   30SAPC  C318 4085   5.159   2.579   8.562  0.3564  0.6780 -0.7553
   30SAPC  H18X 4086   5.227   2.649   8.615  1.4745 -0.5142 -0.5636
   30SAPC  H18Y 4087   5.181   2.474   8.591 -1.2591  0.8577  1.4484
   30SAPC  H18Z 4088   5.062   2.608   8.609  1.9573  1.9610  1.9967
   31SAPC     N 4089   4.756   2.327   6.182 -0.3283 -0.4028  0.7177
   31SAPC   C12 4090   4.901   2.367   6.161  0.5357  0.1003  0.0323
   31SAPC  H12A 4091   4.912   2.467   6.122  2.0957  0.1147  0.4339
   31SAPC  H12B 4092   4.933   2.289   6.092 -0.5280 -0.3413  0.0248
   31SAPC   C13 4093   4.688   2.426   6.271 -0.0351  0.1812 -0.3347
   31SAPC  H13A 4094   4.754   2.458   6.350 -0.1935 -1.2817  0.4033
   31SAPC  H13B 4095   4.648   2.507   6.211  0.5788  0.6818 -0.0829
   31SAPC  H13C 4096   4.609   2.377   6.324  2.5074 -0.3850  3.2572
   31SAPC   C14 4097   4.678   2.333   6.054  0.0298 -0.0950  0.3686
   31SAPC  H14A 4098   4.714   2.254   5.989  0.6960  0.7429 -0.3009
   31SAPC  H14B 4099   4.572   2.322   6.068  0.0140 -1.2500 -0.4456
   31SAPC  H14C 4100   4.694   2.424   5.998  2.5651 -0.9401 -0.4615
   31SAPC   C15 4101   4.743   2.190   6.253 -0.1825 -0.4887 -0.3937
   31SAPC  H15A 4102   4.775   2.115   6.182  1.9423 -0.9472  0.9547
   31SAPC  H15B 4103   4.814   2.199   6.334  0.4706  3.1632 -1.1765
   31SAPC  H15C 4104   4.641   2.176   6.284  0.0917 -1.4015  0.1276
   31SAPC   C11 4105   4.988   2.362   6.288  0.1442 -0.5027 -0.6159
   31SAPC  H11A 4106   4.959   2.294   6.371 -0.7362  1.1612  0.4931
   31SAPC  H11B 4107   4.975   2.467   6.322  1.2929 -1.0677  1.7855
   31SAPC     P 4108   5.178   2.196   6.240 -0.2056 -0.1471 -0.2525
   31SAPC   O13 4109   5.123   2.139   6.117 -0.1309 -0.3559  0.3068
   31SAPC   O14 4110   5.326   2.200   6.245  0.2549 -0.5631  0.2342
   31SAPC   O12 4111   5.122   2.345   6.254  0.1849  0.0054  0.0771
   31SAPC   O11 4112   5.123   2.113   6.361 -0.6598 -0.0547 -0.3805
   31SAPC    C1 4113   5.190   2.118   6.486 -0.7365 -0.0795  0.1198
   31SAPC    HA 4114   5.271   2.194   6.484  0.0185 -0.8592  0.1755
   31SAPC    HB 4115   5.125   2.152   6.569  0.8581  0.2277  1.2978
   31SAPC    C2 4116   5.240   1.976   6.525  0.5437 -0.0729 -0.0012
   31SAPC    HS 4117   5.308   1.945   6.443 -0.3741 -1.8648 -0.1214
   31SAPC   O21 4118   5.128   1.886   6.532  0.9270  0.3162 -0.1453
   31SAPC   C21 4119   5.155   1.763   6.555  0.6981 -0.1039 -0.3364
   31SAPC   O22 4120   5.254   1.702   6.512  0.6192  0.3097 -0.0821
   31SAPC   C22 4121   5.033   1.705   6.647 -0.1720 -0.2490 -0.4427
   31SAPC   H2R 4122   5.004   1.781   6.723 -0.7584 -1.3188  0.4196
   31SAPC   H2S 4123   4.951   1.696   6.573 -0.6186  1.7943 -0.2549
   31SAPC    C3 4124   5.320   1.986   6.655 -0.7999  0.3785  0.8662
   31SAPC    HX 4125   5.386   2.075   6.652  2.1008 -1.6613 -0.9705
   31SAPC    HY 4126   5.396   1.906   6.665 -1.1201  0.3190  3.7845
   31SAPC   O31 4127   5.233   1.992   6.765 -0.4399  0.4351 -0.4795
   31SAPC   C31 4128   5.252   1.894   6.859 -0.3541  0.4423 -0.3079
   31SAPC   O32 4129   5.308   1.784   6.846 -0.2369 -0.4161  0.0512
   31SAPC   C32 4130   5.190   1.940   6.993 -0.1194  0.2227  0.5694
   31SAPC   H2X 4131   5.098   1.880   7.010 -0.1175 -0.5571 -1.7750
   31SAPC   H2Y 4132   5.173   2.048   6.975  1.0588  0.1849 -1.0677
   31SAPC   C23 4133   5.067   1.580   6.727 -0.2784  0.4371  0.2127
   31SAPC   H3R 4134   5.168   1.586   6.774 -0.9006  1.9568  1.4536
   31SAPC   H3S 4135   5.057   1.487   6.667  0.4440  0.7031 -0.3282
   31SAPC   C24 4136   4.972   1.587   6.855 -0.7722  0.2935 -0.0471
   31SAPC   H4R 4137   4.876   1.632   6.822  1.0646  1.8527 -3.8065
   31SAPC   H4S 4138   5.025   1.653   6.928  0.3292 -0.1255 -0.4478
   31SAPC   C25 4139   4.945   1.453   6.920  0.0067  0.7752  0.3780
   31SAPC   H5R 4140   4.925   1.373   6.848  0.3785  0.6898  0.3668
   31SAPC   C26 4141   4.961   1.422   7.053 -0.6480 -0.0372  1.0073
   31SAPC   H6R 4142   4.931   1.321   7.085  0.9608 -0.8982 -0.0249
   31SAPC   C27 4143   4.994   1.526   7.162  1.0440  0.2708  0.5201
   31SAPC   H7R 4144   4.942   1.500   7.257  1.6138 -1.1385  0.4588
   31SAPC   H7S 4145   4.948   1.624   7.137  0.4780 -0.0141  0.4160
   31SAPC   C28 4146   5.138   1.554   7.183  0.8985  0.0569  0.5292
   31SAPC   H8R 4147   5.197   1.576   7.093  0.6215 -4.3174 -0.9575
   31SAPC   C29 4148   5.207   1.545   7.294 -0.5626  0.3072 -0.5344
   31SAPC   H9R 4149   5.308   1.589   7.303 -0.4928  0.1533 -0.5662
   31SAPC  C210 4150   5.160   1.486   7.429 -0.1036 -0.1317 -0.0339
   31SAPC  H10R 4151   5.208   1.393   7.466 -0.7676 -0.2265  0.6328
   31SAPC  H10S 4152   5.051   1.464   7.424 -0.7259  2.7478 -0.7188
   31SAPC  C211 4153   5.188   1.581   7.550 -0.2926  0.4968  0.2440
   31SAPC  H11R 4154   5.245   1.673   7.532  2.3285 -0.8122  1.3546
   31SAPC  C212 4155   5.139   1.558   7.670  0.4012 -0.2135 -0.0602
   31SAPC  H12R 4156   5.158   1.620   7.758 -1.6532 -0.0131  0.2930
   31SAPC  C213 4157   5.045   1.439   7.703 -0.3216  0.0845 -0.8212
   31SAPC  H13R 4158   4.975   1.412   7.621 -1.2800  0.5356 -0.1700
   31SAPC  H13S 4159   4.981   1.476   7.786  0.3231 -1.8663  0.6072
   31SAPC  C214 4160   5.125   1.325   7.763 -0.3118 -0.3276 -0.6720
   31SAPC  H14R 4161   5.209   1.351   7.830  0.2689  0.1639 -1.5630
   31SAPC  C215 4162   5.115   1.189   7.736  0.0623 -0.0316 -0.1582
   31SAPC  H15R 4163   5.161   1.116   7.804 -0.9537 -0.5756 -0.0405
   31SAPC  C216 4164   5.027   1.123   7.632  0.0992  0.0230 -0.3782
   31SAPC  H16R 4165   4.939   1.185   7.603  0.6186  0.9848  0.0492
   31SAPC  H16S 4166   4.983   1.034   7.682 -0.3870 -1.0485 -2.5835
   31SAPC  C217 4167   5.090   1.097   7.494 -0.0441 -0.1121 -0.1668
   31SAPC  H17R 4168   5.178   1.032   7.517  1.4586  1.3715 -1.4404
   31SAPC  H17S 4169   5.137   1.193   7.466 -0.6683  0.3426  0.3280
   31SAPC  C218 4170   4.981   1.064   7.382  0.3544  0.6010 -0.3596
   31SAPC  H18R 4171   5.038   1.039   7.290  1.1059  0.8743  0.0193
   31SAPC  H18S 4172   4.933   1.158   7.346 -0.5849 -0.4748 -1.9931
   31SAPC  C219 4173   4.865   0.966   7.403  0.2931 -1.1374 -0.2287
   31SAPC  H19R 4174   4.803   0.967   7.311  1.8454  0.4005 -1.3307
   31SAPC  H19S 4175   4.799   1.018   7.475 -0.5896  0.0256 -1.8096
   31SAPC  C220 4176   4.910   0.816   7.442 -0.0336 -0.4684 -0.1949
   31SAPC  H20R 4177   4.976   0.824   7.531 -0.6653 -1.6196  0.4030
   31SAPC  H20S 4178   4.958   0.761   7.359 -1.4247 -1.1940 -0.5552
   31SAPC  H20T 4179   4.818   0.759   7.467 -1.1997  1.1362 -0.5988
   31SAPC   C33 4180   5.272   1.912   7.118 -0.2409 -0.0091  0.0487
   31SAPC   H3X 4181   5.356   1.985   7.116  0.2450 -0.5820 -1.1587
   31SAPC   H3Y 4182   5.312   1.809   7.115 -0.5488 -0.1175 -0.3421
   31SAPC   C34 4183   5.198   1.945   7.238 -0.3796  0.1206 -0.5856
   31SAPC   H4X 4184   5.127   1.860   7.249 -0.1685  0.0431  0.2542
   31SAPC   H4Y 4185   5.138   2.037   7.227  1.2057  1.3971  0.7985
   31SAPC   C35 4186   5.276   1.939   7.365 -0.0048  0.1815  0.0529
   31SAPC   H5X 4187   5.347   2.024   7.361 -0.2625  0.5458  2.3094
   31SAPC   H5Y 4188   5.324   1.842   7.389 -1.4227 -0.6887 -0.4793
   31SAPC   C36 4189   5.182   1.959   7.484  0.1670  0.5571 -0.2099
   31SAPC   H6X 4190   5.107   1.876   7.484  0.5531  0.1509 -2.2037
   31SAPC   H6Y 4191   5.129   2.056   7.479  0.4647  1.0539  3.5396
   31SAPC   C37 4192   5.254   1.959   7.618 -0.6546  0.1788  0.3097
   31SAPC   H7X 4193   5.341   2.027   7.611 -0.5823  0.0698  0.1489
   31SAPC   H7Y 4194   5.295   1.857   7.637 -2.8051 -0.3380  2.7874
   31SAPC   C38 4195   5.177   2.009   7.745  0.1391 -0.2391 -0.4569
   31SAPC   H8X 4196   5.104   1.930   7.773 -0.6373  0.7940  0.5269
   31SAPC   H8Y 4197   5.118   2.098   7.711  0.9711 -0.6220 -3.1274
   31SAPC   C39 4198   5.254   2.050   7.866  0.2412  0.5156  0.0860
   31SAPC   H9X 4199   5.321   2.138   7.849  1.6250  0.2395  3.4074
   31SAPC   H9Y 4200   5.319   1.964   7.891 -0.0143  0.7070  1.5042
   31SAPC  C310 4201   5.163   2.089   7.987 -0.8907  0.6889  0.0542
   31SAPC  H10X 4202   5.075   2.023   7.979 -0.1078 -0.1452 -3.2837
   31SAPC  H10Y 4203   5.127   2.189   7.954 -1.5128  0.4249 -0.0691
   31SAPC  C311 4204   5.241   2.107   8.121  0.6634  0.1074  0.3758
   31SAPC  H11X 4205   5.330   2.172   8.106  0.9033  0.4490  2.8088
   31SAPC  H11Y 4206   5.278   2.005   8.145  1.2467  0.1478 -0.3245
   31SAPC  C312 4207   5.154   2.154   8.233  0.8074 -0.7811  0.5177
   31SAPC  H12X 4208   5.074   2.080   8.254 -0.2444  0.5960  1.5554
   31SAPC  H12Y 4209   5.112   2.255   8.216  3.1876 -0.2177 -3.0501
   31SAPC  C313 4210   5.233   2.162   8.365 -0.5011  0.1389 -0.3604
   31SAPC  H13X 4211   5.170   2.220   8.436 -1.8879 -2.9430  1.1160
   31SAPC  H13Y 4212   5.330   2.211   8.338  1.1710 -1.4564  2.2758
   31SAPC  C314 4213   5.263   2.023   8.422  0.5609 -0.2223 -0.0806
   31SAPC  H14X 4214   5.316   1.957   8.351  0.6264 -0.0482 -0.1932
   31SAPC  H14Y 4215   5.176   1.968   8.464 -0.7853  1.8298 -0.0308
   31SAPC  C315 4216   5.349   2.023   8.548 -0.0428 -0.1366  0.3606
   31SAPC  H15X 4217   5.350   1.928   8.605 -1.4215  0.3584  1.2762
   31SAPC  H15Y 4218   5.311   2.109   8.608  2.2001  1.1230  0.0576
   31SAPC  C316 4219   5.499   2.053   8.503 -0.0210  0.3118 -0.3802
   31SAPC  H16X 4220   5.507   2.145   8.440  0.8032  0.0679 -0.6434
   31SAPC  H16Y 4221   5.545   1.967   8.451 -0.8714  0.2409 -1.0434
   31SAPC  C317 4222   5.592   2.081   8.627 -0.0368 -0.1716  0.5109
   31SAPC  H17X 4223   5.560   2.174   8.679  2.7100  2.3261 -1.9331
   31SAPC  H17Y 4224   5.692   2.101   8.582 -0.3650  1.0960  0.2890
   31SAPC  C318 4225   5.612   1.967   8.731 -0.0062  0.2359  0.1433
   31SAPC  H18X 4226   5.674   1.999   8.818  0.2385 -2.0398  0.8744
   31SAPC  H18Y 4227   5.664   1.886   8.675  3.2343  2.7310 -0.8182
   31SAPC  H18Z 4228   5.516   1.930   8.772  0.2414 -1.7151 -0.9084
   32SAPC     N 4229   0.664   4.703   5.845 -0.0458  0.0565  0.9474
   32SAPC   C12 4230   0.692   4.681   5.991  0.3111 -0.3758  0.4735
   32SAPC  H12A 4231   0.749   4.590   6.001 -2.0383 -1.7129  3.3339
   32SAPC  H12B 4232   0.602   4.670   6.050 -0.8627  1.6210 -0.8275
   32SAPC   C13 4233   0.580   4.828   5.827  0.0928 -0.3539 -0.4038
   32SAPC  H13A 4234   0.648   4.911   5.824 -1.1984  0.7200 -1.2051
   32SAPC  H13B 4235   0.523   4.819   5.735 -2.1792 -0.2211  0.9038
   32SAPC  H13C 4236   0.511   4.843   5.908  2.4747  0.8613  1.5205
   32SAPC   C14 4237   0.779   4.715   5.754  0.6101  0.0212 -0.0146
   32SAPC  H14A 4238   0.865   4.655   5.779  1.9835  1.1059 -1.8542
   32SAPC  H14B 4239   0.751   4.709   5.650  0.3280 -1.1019  0.1181
   32SAPC  H14C 4240   0.823   4.813   5.764  1.6227 -0.0275 -2.9813
   32SAPC   C15 4241   0.579   4.591   5.801 -0.1207 -0.0736 -0.3313
   32SAPC  H15A 4242   0.637   4.501   5.782  0.2002  0.0264  0.1666
   32SAPC  H15B 4243   0.499   4.577   5.872 -0.1988  1.0855 -0.1691
   32SAPC  H15C 4244   0.539   4.614   5.703 -2.0124  2.0289  0.8390
   32SAPC   C11 4245   0.771   4.800   6.061  0.1618  0.1919 -0.4160
   32SAPC  H11A 4246   0.781   4.774   6.168 -0.1002 -1.7406 -0.8278
   32SAPC  H11B 4247   0.713   4.895   6.055 -1.0933 -0.5042  0.2280
   32SAPC     P 4248   1.015   4.725   6.036  0.3442  0.2107  0.0637
   32SAPC   O13 4249   0.967   4.587   5.995  0.2109 -0.4987 -0.6594
   32SAPC   O14 4250   1.142   4.781   5.984  0.6176 -0.1186  0.3591
   32SAPC   O12 4251   0.898   4.822   6.008 -0.5457 -0.0797 -0.3483
   32SAPC   O11 4252   1.013   4.727   6.193 -0.2278  0.0206  0.0052
   32SAPC    C1 4253   1.115   4.793   6.270  0.5447  0.2550 -0.4057
   32SAPC    HA 4254   1.203   4.726   6.278 -0.4130 -1.1615 -1.3196
   32SAPC    HB 4255   1.146   4.883   6.212  1.7010 -0.0298 -0.2552
   32SAPC    C2 4256   1.073   4.828   6.417  0.6354  0.3380 -0.6025
   32SAPC    HS 4257   1.142   4.891   6.477 -0.9496  1.5206  0.0479
   32SAPC   O21 4258   1.052   4.706   6.495  0.5034 -0.2684  0.6076
   32SAPC   C21 4259   1.156   4.648   6.544 -0.4012  0.1908  0.8187
   32SAPC   O22 4260   1.271   4.687   6.530  0.2438  0.3598  0.4604
   32SAPC   C22 4261   1.107   4.527   6.628 -0.0756 -0.4362  0.0343
   32SAPC   H2R 4262   1.117   4.436   6.566 -1.2909  0.5199 -1.6338
   32SAPC   H2S 4263   1.153   4.516   6.729  2.2571  0.6169 -0.8326
   32SAPC    C3 4264   0.951   4.922   6.409  0.7904  0.3350  0.1702
   32SAPC    HX 4265   0.868   4.873   6.354  1.6784  0.0617 -0.9545
   32SAPC    HY 4266   0.976   5.009   6.345 -0.2567  0.7281  0.2708
   32SAPC   O31 4267   0.912   4.971   6.537 -0.2334 -0.0583 -0.0042
   32SAPC   C31 4268   0.819   4.898   6.598  0.2349  0.1055  0.9702
   32SAPC   O32 4269   0.757   4.803   6.549 -0.0705  0.2877 -0.2407
   32SAPC   C32 4270   0.813   4.949   6.743  1.3560  0.1408 -0.1856
   32SAPC   H2X 4271   0.757   5.045   6.743  4.0965  1.8904 -2.4767
   32SAPC   H2Y 4272   0.914   4.966   6.785  0.3114 -0.4127  2.8360
   32SAPC   C23 4273   0.956   4.533   6.653  0.5271 -0.2904  0.3496
   32SAPC   H3R 4274   0.920   4.519   6.549 -0.0158  3.2232 -0.0422
   32SAPC   H3S 4275   0.926   4.631   6.694 -1.0859 -0.7851  0.4045
   32SAPC   C24 4276   0.903   4.409   6.734 -0.1286  0.7250  0.3353
   32SAPC   H4R 4277   0.966   4.402   6.825 -0.8324 -0.5725  0.7560
   32SAPC   H4S 4278   0.919   4.312   6.683  2.8646 -0.0736  2.5191
   32SAPC   C25 4279   0.761   4.438   6.789  0.0461 -0.7050  0.2428
   32SAPC   H5R 4280   0.695   4.480   6.713  0.4807  1.2749  0.9120
   32SAPC   C26 4281   0.720   4.442   6.918 -0.1344  0.1260  0.0529
   32SAPC   H6R 4282   0.612   4.459   6.929 -0.1553 -0.7433  1.3717
   32SAPC   C27 4283   0.798   4.416   7.042 -0.3144  0.3125 -0.1457
   32SAPC   H7R 4284   0.884   4.485   7.056 -0.2505  0.8312 -2.5694
   32SAPC   H7S 4285   0.841   4.314   7.032 -0.5956  0.2472 -0.7451
   32SAPC   C28 4286   0.727   4.449   7.171  0.1668 -0.5803 -0.6787
   32SAPC   H8R 4287   0.671   4.543   7.162  0.4330 -0.4260 -0.7223
   32SAPC   C29 4288   0.720   4.386   7.291 -0.3359 -0.3928 -0.0300
   32SAPC   H9R 4289   0.657   4.426   7.372 -1.2881 -1.6374 -0.1405
   32SAPC  C210 4290   0.782   4.252   7.318  0.1449  0.1808  0.6158
   32SAPC  H10R 4291   0.833   4.255   7.416  0.7535 -0.3317  0.3190
   32SAPC  H10S 4292   0.851   4.210   7.241  1.9217  0.7181  1.8543
   32SAPC  C211 4293   0.663   4.162   7.333  0.5127  0.7728  0.7747
   32SAPC  H11R 4294   0.606   4.136   7.242  1.4415  0.5028  0.2549
   32SAPC  C212 4295   0.607   4.124   7.445  0.4499  0.0723 -0.0644
   32SAPC  H12R 4296   0.531   4.045   7.446  1.6207 -1.1738 -2.0249
   32SAPC  C213 4297   0.652   4.161   7.586  0.3038  1.0151  0.1836
   32SAPC  H13R 4298   0.682   4.268   7.586 -0.7770  1.3449 -0.9053
   32SAPC  H13S 4299   0.744   4.107   7.617 -0.9786 -0.6006  1.3436
   32SAPC  C214 4300   0.538   4.146   7.690 -0.2195 -0.0446  0.3702
   32SAPC  H14R 4301   0.452   4.209   7.667  0.6186  1.0028  0.0435
   32SAPC  C215 4302   0.534   4.074   7.802 -0.2367 -0.3536  0.4139
   32SAPC  H15R 4303   0.446   4.094   7.864 -1.6329 -1.0409 -1.2610
   32SAPC  C216 4304   0.639   3.982   7.859  0.1604 -0.2033 -0.1666
   32SAPC  H16R 4305   0.661   4.022   7.960 -0.8684  0.4873 -0.1998
   32SAPC  H16S 4306   0.722   3.983   7.785 -1.9535  3.2196 -2.8206
   32SAPC  C217 4307   0.599   3.839   7.886 -0.0823  0.3932 -0.2154
   32SAPC  H17R 4308   0.574   3.786   7.791 -1.1925 -0.0538  0.3134
   32SAPC  H17S 4309   0.507   3.828   7.946  1.3215 -0.6448  1.8585
   32SAPC  C218 4310   0.718   3.767   7.955  0.4066  1.1655  0.5031
   32SAPC  H18R 4311   0.757   3.807   8.050  1.0993  3.0485 -0.5172
   32SAPC  H18S 4312   0.802   3.774   7.883  0.7407  2.5161  0.9938
   32SAPC  C219 4313   0.676   3.618   7.967  0.3312  0.4938  0.1562
   32SAPC  H19R 4314   0.641   3.588   7.866 -1.7974  0.1162  0.9493
   32SAPC  H19S 4315   0.590   3.608   8.037 -0.4629 -0.2792 -0.8991
   32SAPC  C220 4316   0.796   3.534   8.015 -0.1388 -0.1628  0.1403
   32SAPC  H20R 4317   0.775   3.426   7.997 -0.1088 -0.0978 -0.2918
   32SAPC  H20S 4318   0.829   3.548   8.120 -2.8507 -0.5846  1.1073
   32SAPC  H20T 4319   0.870   3.572   7.941 -0.0700 -0.0064  0.2891
   32SAPC   C33 4320   0.747   4.850   6.846 -0.4819 -0.6816  0.0686
   32SAPC   H3X 4321   0.824   4.777   6.879  1.9478  2.2842  1.5190
   32SAPC   H3Y 4322   0.655   4.803   6.807 -3.0234  4.4483 -0.9827
   32SAPC   C34 4323   0.701   4.930   6.971  1.0849 -0.1249  0.4094
   32SAPC   H4X 4324   0.598   4.964   6.947  1.4305  0.8673  0.2599
   32SAPC   H4Y 4325   0.767   5.018   6.988 -0.3540  1.1431 -0.2856
   32SAPC   C35 4326   0.692   4.840   7.097 -0.3554  0.6380 -0.0811
   32SAPC   H5X 4327   0.798   4.810   7.110  0.3553  2.2155 -1.7328
   32SAPC   H5Y 4328   0.630   4.753   7.065  3.1490 -2.3782  0.7270
   32SAPC   C36 4329   0.646   4.895   7.234 -0.3486 -0.0185  0.0593
   32SAPC   H6X 4330   0.536   4.903   7.217 -0.0734 -0.1166 -2.0950
   32SAPC   H6Y 4331   0.679   5.001   7.239 -1.8080  0.4487  0.3249
   32SAPC   C37 4332   0.683   4.816   7.352 -0.4113  0.0662 -0.2169
   32SAPC   H7X 4333   0.792   4.796   7.350 -0.8573 -2.8797 -0.3135
   32SAPC   H7Y 4334   0.643   4.713   7.345 -1.0807  0.1917  1.3105
   32SAPC   C38 4335   0.626   4.874   7.479 -0.2523 -0.0610 -1.1424
   32SAPC   H8X 4336   0.519   4.850   7.464  0.3468 -2.7021 -1.7402
   32SAPC   H8Y 4337   0.638   4.984   7.485 -2.7020  0.2532 -1.1202
   32SAPC   C39 4338   0.665   4.804   7.611 -0.1434  0.0267  0.0090
   32SAPC   H9X 4339   0.774   4.805   7.632 -0.9321  0.5348  5.4393
   32SAPC   H9Y 4340   0.646   4.694   7.610  0.0981 -0.0924  2.5197
   32SAPC  C310 4341   0.610   4.863   7.738 -0.0036  0.0318 -0.3515
   32SAPC  H10X 4342   0.499   4.857   7.735  0.0834 -1.2388 -1.5257
   32SAPC  H10Y 4343   0.619   4.974   7.735 -1.3990  0.1473 -2.1518
   32SAPC  C311 4344   0.655   4.794   7.869 -0.1436 -0.5120 -0.2101
   32SAPC  H11X 4345   0.762   4.775   7.844 -0.3340 -0.2174 -1.3227
   32SAPC  H11Y 4346   0.609   4.693   7.875  0.0654 -0.7101 -1.6150
   32SAPC  C312 4347   0.630   4.879   7.996 -0.0329  0.2972  0.1587
   32SAPC  H12X 4348   0.521   4.894   8.014  0.1719  1.0222  0.8265
   32SAPC  H12Y 4349   0.668   4.983   7.987 -0.8210  0.6597  0.8249
   32SAPC  C313 4350   0.690   4.813   8.123 -0.4507  0.3988  0.3178
   32SAPC  H13X 4351   0.799   4.818   8.107 -0.0895 -2.6156  1.1974
   32SAPC  H13Y 4352   0.658   4.707   8.115  0.4019 -0.2533  4.0897
   32SAPC  C314 4353   0.634   4.871   8.247  0.4231  0.5114 -0.4227
   32SAPC  H14X 4354   0.526   4.851   8.264  0.4391 -1.4157 -2.3100
   32SAPC  H14Y 4355   0.645   4.982   8.250  1.6728  0.4200 -1.1332
   32SAPC  C315 4356   0.708   4.834   8.380 -0.1921 -0.4944 -0.2587
   32SAPC  H15X 4357   0.797   4.899   8.381 -1.5238  1.4813 -2.1445
   32SAPC  H15Y 4358   0.730   4.725   8.377  1.6839 -0.1376 -0.1450
   32SAPC  C316 4359   0.636   4.846   8.506 -0.6677  0.1722  0.1107
   32SAPC  H16X 4360   0.549   4.779   8.492 -0.9291  0.3754  0.6904
   32SAPC  H16Y 4361   0.590   4.946   8.525  0.4828  1.4805 -3.3346
   32SAPC  C317 4362   0.730   4.800   8.616 -0.1843 -0.5763  0.0782
   32SAPC  H17X 4363   0.787   4.709   8.586 -0.3833 -0.3062 -1.1888
   32SAPC  H17Y 4364   0.683   4.787   8.716 -0.3057  1.5142  0.3399
   32SAPC  C318 4365   0.824   4.915   8.649 -0.1782  0.3974 -0.3639
   32SAPC  H18X 4366   0.900   4.916   8.568  0.6813 -2.7780  0.2429
   32SAPC  H18Y 4367   0.873   4.897   8.747 -0.0380 -0.1940 -0.5381
   32SAPC  H18Z 4368   0.784   5.019   8.653  1.7069  1.1824 -0.9108
   33POPC     N 4369   4.672   5.818  10.708 -0.7400 -0.2619 -0.3206
   33POPC   C12 4370   4.798   5.831  10.791 -0.0410 -0.4684 -0.0932
   33POPC  H12A 4371   4.867   5.754  10.758  1.0994  0.8217 -0.8477
   33POPC  H12B 4372   4.778   5.802  10.893 -0.5804 -1.1524 -0.3859
   33POPC   C13 4373   4.693   5.856  10.565 -0.4549  0.1145 -0.1257
   33POPC  H13A 4374   4.608   5.848  10.499 -1.5881  0.2939  1.2527
   33POPC  H13B 4375   4.730   5.957  10.557 -0.9185  0.4343  1.3696
   33POPC  H13C 4376   4.772   5.799  10.518 -0.2050  1.0610 -0.8817
   33POPC   C14 4377   4.636   5.673  10.704 -0.8466  0.4360  0.1093
   33POPC  H14A 4378   4.546   5.657  10.647 -1.9691  0.0328  1.9061
   33POPC  H14B 4379   4.712   5.614  10.656  0.0696  1.1402  0.6651
   33POPC  H14C 4380   4.629   5.632  10.804 -0.2419  0.2708  0.0890
   33POPC   C15 4381   4.554   5.891  10.771 -0.1208  0.1637  0.2194
   33POPC  H15A 4382   4.462   5.870  10.718  0.4706 -1.7966 -0.1063
   33POPC  H15B 4383   4.575   5.997  10.768  0.8071 -0.0207 -1.8937
   33POPC  H15C 4384   4.549   5.854  10.872  0.3414 -1.6633 -0.3956
   33POPC   C11 4385   4.863   5.968  10.803 -0.0251  0.3534 -0.5435
   33POPC  H11A 4386   4.949   5.958  10.872 -0.0786 -1.1300 -0.6664
   33POPC  H11B 4387   4.787   6.027  10.860  0.3387 -0.2486  0.5825
   33POPC     P 4388   5.027   5.989  10.612  0.2195 -0.4084 -0.2160
   33POPC   O13 4389   5.018   5.843  10.570 -0.0070 -0.0500 -0.0708
   33POPC   O14 4390   5.135   6.025  10.708  0.1963 -0.0997  0.3068
   33POPC   O12 4391   4.895   6.038  10.684 -0.6854 -0.1793 -0.1385
   33POPC   O11 4392   5.035   6.081  10.492  0.1430  0.2099 -0.3978
   33POPC    C1 4393   4.944   6.185  10.446 -0.9098  0.3168  0.0059
   33POPC    HA 4394   4.842   6.162  10.484  0.1225 -3.7657  0.7888
   33POPC    HB 4395   4.965   6.290  10.475 -0.8017  0.3935 -0.3449
   33POPC    C2 4396   4.916   6.178  10.288 -1.1911 -0.5586  0.5852
   33POPC    HS 4397   4.925   6.069  10.268 -0.6731 -0.5606  0.8305
   33POPC   O21 4398   5.028   6.258  10.242  0.2639 -0.2908  0.4267
   33POPC   C21 4399   5.080   6.221  10.123  0.3651 -0.8498 -0.0365
   33POPC   O22 4400   5.041   6.130  10.059 -0.0869 -0.0460  0.1343
   33POPC   C22 4401   5.209   6.304  10.088  0.3532 -0.1176  0.1767
   33POPC   H2R 4402   5.289   6.256  10.148  1.1317 -0.7555 -1.3116
   33POPC   H2S 4403   5.193   6.409  10.119 -0.6003 -0.5303  1.1551
   33POPC    C3 4404   4.786   6.251  10.246 -0.6777  0.5929  0.7380
   33POPC    HX 4405   4.766   6.347  10.297 -1.8029  0.5156  0.4726
   33POPC    HY 4406   4.702   6.192  10.289  0.7640 -2.3579 -0.1969
   33POPC   O31 4407   4.761   6.273  10.110 -0.1993 -0.7444  0.5281
   33POPC   C31 4408   4.685   6.191  10.044  0.6408 -0.9107  0.3434
   33POPC   O32 4409   4.640   6.088  10.082  0.3604 -0.0458  0.0426
   33POPC   C32 4410   4.667   6.238   9.907  0.2206 -0.5576 -0.1418
   33POPC   H2X 4411   4.760   6.222   9.849  0.4970  0.5187 -0.0090
   33POPC   H2Y 4412   4.664   6.348   9.919  2.1810 -0.5669  0.6579
   33POPC   C23 4413   5.259   6.310   9.933 -0.1370  0.3696  0.4749
   33POPC   H3R 4414   5.170   6.335   9.872 -0.2081  1.1865  0.9037
   33POPC   H3S 4415   5.291   6.206   9.909  0.6742  0.8693 -0.6605
   33POPC   C24 4416   5.364   6.418   9.895  0.2162  0.4457 -0.5464
   33POPC   H4R 4417   5.450   6.420   9.966  0.5371  0.9690 -0.9387
   33POPC   H4S 4418   5.305   6.511   9.909  0.3100  1.0438 -3.3754
   33POPC   C25 4419   5.416   6.400   9.748 -0.2552 -0.4601 -0.1833
   33POPC   H5R 4420   5.327   6.400   9.682  0.6518  0.2164 -1.4620
   33POPC   H5S 4421   5.479   6.308   9.743  0.4449 -0.2567  2.9286
   33POPC   C26 4422   5.484   6.529   9.697 -0.2840 -0.6602 -0.0644
   33POPC   H6R 4423   5.537   6.582   9.779 -4.3763  1.4493  1.5069
   33POPC   H6S 4424   5.392   6.586   9.672  0.1297  0.5871  1.1427
   33POPC   C27 4425   5.566   6.521   9.570 -1.1784  0.0185 -0.0091
   33POPC   H7R 4426   5.661   6.468   9.595 -1.3055  0.3732  1.2836
   33POPC   H7S 4427   5.604   6.620   9.538  0.2359 -0.1182  1.1401
   33POPC   C28 4428   5.494   6.450   9.452 -1.0322 -0.1060  0.1955
   33POPC   H8R 4429   5.404   6.511   9.429  0.3365  1.3980 -1.5975
   33POPC   H8S 4430   5.456   6.349   9.476 -1.5178 -0.4727 -1.8854
   33POPC   C29 4431   5.583   6.437   9.327  0.4933 -0.5870 -0.4176
   33POPC   H91 4432   5.679   6.389   9.349 -0.0578 -1.8806 -0.7541
   33POPC  C210 4433   5.557   6.487   9.203 -1.1217 -0.1099 -0.9480
   33POPC  H101 4434   5.633   6.475   9.124  0.9675  1.5970  0.6950
   33POPC  C211 4435   5.443   6.555   9.146 -0.5426  0.4249 -0.2290
   33POPC  H11R 4436   5.483   6.657   9.123 -0.3843  1.0235  2.3541
   33POPC  H11S 4437   5.365   6.578   9.221 -1.0319  0.7297 -0.8243
   33POPC  C212 4438   5.374   6.495   9.022  0.7789 -0.9332 -0.1634
   33POPC  H12R 4439   5.305   6.413   9.049  1.3679 -1.4288 -0.1459
   33POPC  H12S 4440   5.441   6.465   8.939  0.1445  0.4011 -1.1892
   33POPC  C213 4441   5.285   6.610   8.966  0.1282 -0.0702 -0.3290
   33POPC  H13R 4442   5.260   6.595   8.858  0.6941 -0.0528 -0.4653
   33POPC  H13S 4443   5.351   6.699   8.974  0.5687 -0.1846 -2.1706
   33POPC  C214 4444   5.159   6.631   9.045 -0.0950  0.6651  0.2120
   33POPC  H14R 4445   5.176   6.634   9.155  1.0955 -1.3503  0.1313
   33POPC  H14S 4446   5.106   6.534   9.033  0.7796  0.4654 -2.6515
   33POPC  C215 4447   5.063   6.740   8.999  0.4468  0.0063  0.1294
   33POPC  H15R 4448   5.047   6.735   8.890 -0.3742  1.3689  0.1737
   33POPC  H15S 4449   5.107   6.841   9.011  0.1627  0.2614 -0.9054
   33POPC  C216 4450   4.927   6.725   9.071 -0.1800 -0.1682  0.5092
   33POPC  H16R 4451   4.937   6.753   9.178  2.1140  1.4107 -0.0574
   33POPC  H16S 4452   4.895   6.619   9.068 -1.2612  0.0829  1.7789
   33POPC  C217 4453   4.811   6.814   9.019  0.8098  0.3837  0.1656
   33POPC  H17R 4454   4.808   6.805   8.908  1.4991  0.7040  0.1147
   33POPC  H17S 4455   4.852   6.917   9.026  0.6338  0.4835 -0.2315
   33POPC  C218 4456   4.682   6.792   9.095 -0.1845 -0.1436 -0.7387
   33POPC  H18R 4457   4.646   6.687   9.088  1.4382 -0.9797  2.0034
   33POPC  H18S 4458   4.599   6.861   9.065 -0.8826 -0.8611 -0.4855
   33POPC  H18T 4459   4.707   6.795   9.203 -1.1057 -0.4068 -0.5035
   33POPC   C33 4460   4.537   6.185   9.842 -0.4604  0.2761  0.2346
   33POPC   H3X 4461   4.447   6.232   9.886 -1.5780 -0.6410 -0.9915
   33POPC   H3Y 4462   4.518   6.075   9.846 -1.6782  0.5070  1.4236
   33POPC   C34 4463   4.520   6.239   9.698  0.1473  0.3099  0.9120
   33POPC   H4X 4464   4.522   6.349   9.711  1.9295  0.3440  0.5182
   33POPC   H4Y 4465   4.421   6.213   9.655  0.7143  2.7390 -2.1538
   33POPC   C35 4466   4.619   6.182   9.594 -0.0947 -0.4473 -0.4117
   33POPC   H5X 4467   4.626   6.073   9.576  0.1881 -0.3930 -0.6449
   33POPC   H5Y 4468   4.718   6.229   9.611 -1.1553  1.8210 -0.0443
   33POPC   C36 4469   4.573   6.213   9.446 -0.1048  0.0541  0.2456
   33POPC   H6X 4470   4.553   6.323   9.444  2.0275  0.5361  1.9542
   33POPC   H6Y 4471   4.481   6.154   9.425  0.7796 -1.1455 -0.3629
   33POPC   C37 4472   4.671   6.200   9.328  0.3110 -0.6330  0.0672
   33POPC   H7X 4473   4.692   6.096   9.295  0.1937  0.6278 -4.6407
   33POPC   H7Y 4474   4.764   6.247   9.366 -0.9733  2.6833 -0.5303
   33POPC   C38 4475   4.626   6.269   9.197 -0.1790  0.1243 -0.3700
   33POPC   H8X 4476   4.620   6.378   9.221  1.3103  0.5342 -1.6873
   33POPC   H8Y 4477   4.520   6.252   9.171 -1.0123 -0.0706  2.7442
   33POPC   C39 4478   4.714   6.251   9.070 -0.0052  0.4184 -0.2424
   33POPC   H9X 4479   4.727   6.148   9.029  1.6617  1.1418 -1.6937
   33POPC   H9Y 4480   4.815   6.289   9.095 -0.0872  1.2016 -1.0568
   33POPC  C310 4481   4.669   6.346   8.963  1.0554  0.5027 -1.0617
   33POPC  H10X 4482   4.638   6.439   9.015 -2.3365 -0.8810 -0.3625
   33POPC  H10Y 4483   4.583   6.315   8.899  1.2871  0.3506 -1.3042
   33POPC  C311 4484   4.778   6.380   8.865 -0.5084 -0.5668 -0.4168
   33POPC  H11X 4485   4.801   6.290   8.803  3.0816  1.3108 -2.1247
   33POPC  H11Y 4486   4.861   6.424   8.924 -0.8708  0.0707 -0.3784
   33POPC  C312 4487   4.721   6.488   8.766 -0.4572  0.3625  1.0833
   33POPC  H12X 4488   4.638   6.548   8.810 -1.2074  0.8329 -0.8838
   33POPC  H12Y 4489   4.671   6.434   8.683 -1.7386  2.5467  0.3637
   33POPC  C313 4490   4.834   6.579   8.712 -0.2172 -0.2798  0.0530
   33POPC  H13X 4491   4.890   6.610   8.803 -2.9652 -0.6862  1.9894
   33POPC  H13Y 4492   4.784   6.659   8.653 -2.3099 -0.9539  0.8175
   33POPC  C314 4493   4.935   6.510   8.629  0.1397 -0.7253  0.2222
   33POPC  H14X 4494   4.907   6.475   8.528  0.8419  0.0888 -0.2633
   33POPC  H14Y 4495   4.966   6.419   8.686  0.7062 -0.8752 -0.3250
   33POPC  C315 4496   5.063   6.588   8.594  0.2568 -0.3076 -0.2230
   33POPC  H15X 4497   5.086   6.648   8.684 -2.8037 -0.3995  0.7426
   33POPC  H15Y 4498   5.040   6.657   8.510 -2.2867  0.4269  0.9745
   33POPC  C316 4499   5.168   6.485   8.555  0.0459  0.5282 -0.3869
   33POPC  H16X 4500   5.259   6.536   8.518  1.0658 -0.1787  1.0761
   33POPC  H16Y 4501   5.132   6.419   8.473  2.0137 -2.5019  1.0094
   33POPC  H16Z 4502   5.194   6.410   8.633  1.1308 -0.4390 -1.6561
   34POPC     N 4503   5.632   0.334  10.538 -0.2026  0.8975 -0.1177
   34POPC   C12 4504   5.517   0.342  10.630  0.0573 -0.3447 -0.2019
   34POPC  H12A 4505   5.462   0.434  10.621  1.6624  0.6871  0.1620
   34POPC  H12B 4506   5.549   0.343  10.733  0.6394 -1.7318 -0.3396
   34POPC   C13 4507   5.722   0.448  10.575 -0.0755 -0.5063  0.3004
   34POPC  H13A 4508   5.745   0.448  10.681 -1.6889  0.1810  0.6758
   34POPC  H13B 4509   5.814   0.449  10.519  0.0661  0.1482  0.5362
   34POPC  H13C 4510   5.661   0.537  10.571 -0.5140 -0.8451 -0.7030
   34POPC   C14 4511   5.697   0.201  10.539 -1.3262  0.2144  0.4614
   34POPC  H14A 4512   5.779   0.188  10.469 -1.4491  0.0644  0.3445
   34POPC  H14B 4513   5.724   0.169  10.639 -2.5127 -1.4253  0.3008
   34POPC  H14C 4514   5.627   0.126  10.506  0.1505 -0.5574 -1.1068
   34POPC   C15 4515   5.583   0.352  10.402 -0.6997  0.0676 -0.2429
   34POPC  H15A 4516   5.667   0.340  10.336  1.7007 -2.9020  2.9833
   34POPC  H15B 4517   5.532   0.447  10.393 -3.9815 -1.2823  1.9122
   34POPC  H15C 4518   5.515   0.272  10.375 -1.9495  0.6714  0.9563
   34POPC   C11 4519   5.415   0.228  10.612 -0.2162 -0.1895  0.1311
   34POPC  H11A 4520   5.472   0.134  10.598  2.8509  1.5447  0.3273
   34POPC  H11B 4521   5.354   0.257  10.524  0.9964  0.3586 -0.5384
   34POPC     P 4522   5.217   0.333  10.759 -0.0680  0.0490 -0.2402
   34POPC   O13 4523   5.267   0.470  10.741  0.3382 -0.0644 -0.4659
   34POPC   O14 4524   5.158   0.303  10.887 -0.8027 -0.7727  0.0496
   34POPC   O12 4525   5.333   0.223  10.729  0.1274 -0.2567  0.5418
   34POPC   O11 4526   5.115   0.304  10.648  0.1473 -0.3396 -0.2176
   34POPC    C1 4527   4.999   0.217  10.670 -0.6150  0.4805  0.5392
   34POPC    HA 4528   4.935   0.258  10.750  1.0158  1.3739  1.4349
   34POPC    HB 4529   5.024   0.117  10.711 -1.4326 -0.3236 -0.8397
   34POPC    C2 4530   4.932   0.182  10.530 -0.2845  0.1397 -0.1620
   34POPC    HS 4531   4.828   0.153  10.557  0.0073 -1.4806 -0.7106
   34POPC   O21 4532   5.012   0.072  10.477 -0.3050 -0.0839  0.2099
   34POPC   C21 4533   4.935  -0.002  10.405 -0.3234  1.0671  0.1223
   34POPC   O22 4534   4.814  -0.007  10.402 -0.5413  0.0123  0.2336
   34POPC   C22 4535   5.033  -0.103  10.336  0.0299 -0.7621  0.6163
   34POPC   H2R 4536   5.074  -0.163  10.420 -1.2531  1.1983  2.7602
   34POPC   H2S 4537   5.121  -0.052  10.291 -0.0335 -1.4305 -0.2843
   34POPC    C3 4538   4.932   0.304  10.436  0.2611 -0.0489  0.5324
   34POPC    HX 4539   5.040   0.332  10.427  0.1201  0.9921  1.7140
   34POPC    HY 4540   4.893   0.391  10.494 -0.8794 -1.0753  1.3520
   34POPC   O31 4541   4.871   0.289  10.305 -0.2062  0.6022  0.2378
   34POPC   C31 4542   4.737   0.274  10.309  0.3558 -0.7260 -0.4379
   34POPC   O32 4543   4.676   0.300  10.416 -0.6110  0.3306  0.8103
   34POPC   C32 4544   4.675   0.230  10.176  0.5196  0.5097  0.0272
   34POPC   H2X 4545   4.607   0.146  10.203  2.3419 -1.2264 -0.5132
   34POPC   H2Y 4546   4.760   0.185  10.120 -0.4992  0.2372 -1.3408
   34POPC   C23 4547   4.961  -0.201  10.229  0.1536 -0.0908 -0.5462
   34POPC   H3R 4548   4.896  -0.280  10.274  0.9550 -1.5327 -1.8036
   34POPC   H3S 4549   5.034  -0.262  10.171 -2.7654 -2.6835 -1.7467
   34POPC   C24 4550   4.888  -0.113  10.121 -0.1638  0.1386 -0.2581
   34POPC   H4R 4551   4.951  -0.022  10.108  0.9269 -0.9090 -3.0446
   34POPC   H4S 4552   4.793  -0.080  10.169 -0.5366 -2.1121  0.6799
   34POPC   C25 4553   4.869  -0.183   9.986  0.2804 -0.7060 -0.1988
   34POPC   H5R 4554   4.801  -0.269  10.006 -0.9901 -0.1830 -2.0003
   34POPC   H5S 4555   4.970  -0.221   9.960 -0.1447 -0.9818 -1.5784
   34POPC   C26 4556   4.825  -0.088   9.878 -0.1235 -0.3343  0.0879
   34POPC   H6R 4557   4.878   0.010   9.868 -2.5818  0.9912 -0.8691
   34POPC   H6S 4558   4.726  -0.047   9.908  0.8497  1.1380  1.4471
   34POPC   C27 4559   4.792  -0.159   9.745 -0.3460  0.6448  0.5332
   34POPC   H7R 4560   4.725  -0.094   9.685  0.0769  1.0550  0.4985
   34POPC   H7S 4561   4.750  -0.260   9.766 -0.4781  0.3537 -1.0058
   34POPC   C28 4562   4.918  -0.195   9.662  0.3432  0.3935 -0.0198
   34POPC   H8R 4563   4.981  -0.261   9.726 -0.8231 -1.7529 -0.9981
   34POPC   H8S 4564   4.968  -0.098   9.637 -0.2061  0.3459 -1.4062
   34POPC   C29 4565   4.876  -0.268   9.535 -0.1679 -0.6295  0.0583
   34POPC   H91 4566   4.776  -0.241   9.497  0.6946  1.7466 -0.6659
   34POPC  C210 4567   4.956  -0.362   9.471  0.4026 -0.5518 -0.2941
   34POPC  H101 4568   4.925  -0.412   9.377  0.6986 -0.1769 -0.5950
   34POPC  C211 4569   5.090  -0.407   9.522 -0.3481 -0.4182 -0.1278
   34POPC  H11R 4570   5.122  -0.372   9.622 -1.0374 -0.3108  0.0588
   34POPC  H11S 4571   5.165  -0.362   9.453  0.2851 -1.4241 -0.1194
   34POPC  C212 4572   5.112  -0.554   9.547  0.1011 -0.2278  0.1139
   34POPC  H12R 4573   5.068  -0.576   9.647  0.5142  0.5254  0.4659
   34POPC  H12S 4574   5.219  -0.583   9.555 -0.3354 -1.5571  1.7936
   34POPC  C213 4575   5.058  -0.639   9.435 -0.3741  1.0894 -0.2026
   34POPC  H13R 4576   4.949  -0.617   9.425 -0.7029 -0.5545 -0.5419
   34POPC  H13S 4577   5.059  -0.744   9.470  1.5518  0.9238 -0.6792
   34POPC  C214 4578   5.126  -0.625   9.301  0.4043 -0.8984 -0.2270
   34POPC  H14R 4579   5.234  -0.650   9.302  1.0015  1.1696  2.8042
   34POPC  H14S 4580   5.117  -0.517   9.273 -0.1311 -0.9937 -0.4293
   34POPC  C215 4581   5.064  -0.705   9.189 -0.0534  0.2314  0.6786
   34POPC  H15R 4582   4.958  -0.680   9.165  0.3265 -0.3683 -1.9719
   34POPC  H15S 4583   5.074  -0.814   9.211 -0.7236 -0.3527 -1.5839
   34POPC  C216 4584   5.125  -0.682   9.051  0.4398  0.1954  0.8091
   34POPC  H16R 4585   5.231  -0.712   9.041  0.1826 -0.1300 -1.6541
   34POPC  H16S 4586   5.117  -0.573   9.032 -1.9611 -0.2867 -1.6068
   34POPC  C217 4587   5.042  -0.742   8.933 -0.5398  0.0208 -0.0993
   34POPC  H17R 4588   4.934  -0.722   8.953 -0.4534 -1.0850  1.6212
   34POPC  H17S 4589   5.058  -0.851   8.941  0.2655  0.1904  0.7867
   34POPC  C218 4590   5.082  -0.685   8.790  0.2698  0.1175  0.9963
   34POPC  H18R 4591   4.997  -0.717   8.725  0.4549  0.5552  0.5321
   34POPC  H18S 4592   5.181  -0.725   8.760 -0.4953 -0.7300 -0.5839
   34POPC  H18T 4593   5.090  -0.574   8.790  0.5581  0.0982  0.8793
   34POPC   C33 4594   4.589   0.342  10.105  0.6479  0.2262  0.3371
   34POPC   H3X 4595   4.653   0.433  10.101  0.7292  0.2935  2.4724
   34POPC   H3Y 4596   4.503   0.368  10.171  1.1904  2.6702  0.2093
   34POPC   C34 4597   4.526   0.294   9.974 -0.4654 -0.0936  0.2919
   34POPC   H4X 4598   4.422   0.260   9.994 -0.2108 -1.3044 -0.3454
   34POPC   H4Y 4599   4.591   0.206   9.951  0.5251  0.6072  0.3521
   34POPC   C35 4600   4.532   0.395   9.859 -0.0768  0.0159  0.5901
   34POPC   H5X 4601   4.634   0.434   9.839  0.6842 -1.6269  1.1121
   34POPC   H5Y 4602   4.457   0.477   9.865 -0.5514 -0.4673  1.5562
   34POPC   C36 4603   4.489   0.333   9.722  0.1394 -0.4858 -1.1262
   34POPC   H6X 4604   4.379   0.321   9.722 -0.3358  2.7719  0.9646
   34POPC   H6Y 4605   4.542   0.235   9.712 -0.5698 -0.9008 -0.8503
   34POPC   C37 4606   4.522   0.425   9.599  0.3576  0.2531  0.0339
   34POPC   H7X 4607   4.618   0.472   9.627  1.0610 -0.9426 -0.2619
   34POPC   H7Y 4608   4.448   0.504   9.575 -0.0582 -0.5314 -1.4083
   34POPC   C38 4609   4.536   0.336   9.473  0.3643 -0.1545  0.5071
   34POPC   H8X 4610   4.450   0.268   9.490 -0.0412  0.6633  1.8139
   34POPC   H8Y 4611   4.633   0.281   9.473  1.1641  0.8095  5.4995
   34POPC   C39 4612   4.507   0.402   9.340  0.2533  0.4677  0.1090
   34POPC   H9X 4613   4.575   0.488   9.323  1.7027 -0.7177 -0.2399
   34POPC   H9Y 4614   4.399   0.431   9.344  0.1584  0.1651 -0.1681
   34POPC  C310 4615   4.521   0.303   9.232 -0.1957 -0.2713  0.5753
   34POPC  H10X 4616   4.481   0.203   9.261  0.8780 -1.7400 -2.5515
   34POPC  H10Y 4617   4.628   0.297   9.205  0.0121  2.4877  0.5652
   34POPC  C311 4618   4.446   0.367   9.110  0.2073  0.2973  0.1919
   34POPC  H11X 4619   4.506   0.459   9.092  2.5545 -0.8440  1.5816
   34POPC  H11Y 4620   4.345   0.388   9.151  0.2960 -0.7565  0.9989
   34POPC  C312 4621   4.447   0.261   8.998  0.1115  0.3050 -0.1964
   34POPC  H12X 4622   4.400   0.170   9.042 -0.9709  1.2435  0.6405
   34POPC  H12Y 4623   4.549   0.237   8.959  1.6759  6.2625 -0.7589
   34POPC  C313 4624   4.379   0.309   8.871 -0.4295 -0.3895 -0.1735
   34POPC  H13X 4625   4.420   0.404   8.830 -1.2654 -0.2096 -0.6154
   34POPC  H13Y 4626   4.270   0.325   8.885 -0.2007  0.1448  1.1300
   34POPC  C314 4627   4.387   0.213   8.753 -0.4948  0.6558 -0.5091
   34POPC  H14X 4628   4.336   0.122   8.792  0.6697  0.0790 -0.2830
   34POPC  H14Y 4629   4.491   0.179   8.738 -1.1559 -1.9794  0.2809
   34POPC  C315 4630   4.327   0.266   8.627 -0.2820 -0.0715 -0.0220
   34POPC  H15X 4631   4.386   0.355   8.598 -0.0721  0.3165  1.5208
   34POPC  H15Y 4632   4.224   0.306   8.641 -0.3482  0.3258 -1.4218
   34POPC  C316 4633   4.331   0.170   8.511  0.6345 -0.4374  0.3440
   34POPC  H16X 4634   4.256   0.088   8.520  0.4384 -0.0928  2.3442
   34POPC  H16Y 4635   4.438   0.139   8.504  0.8963  0.2684  1.0346
   34POPC  H16Z 4636   4.305   0.225   8.418 -1.1562 -1.5058  0.1741
   35POPC     N 4637   3.503   2.174  11.007  1.0202  0.3736 -0.2677
   35POPC   C12 4638   3.573   2.267  10.908  0.5641  0.2522 -0.2756
   35POPC  H12A 4639   3.500   2.342  10.882 -1.2524 -0.9901  0.9513
   35POPC  H12B 4640   3.604   2.218  10.818 -0.5155 -0.1118 -0.4622
   35POPC   C13 4641   3.468   2.250  11.134 -0.4323 -0.0456  0.4305
   35POPC  H13A 4642   3.414   2.341  11.114 -1.0060 -0.5156 -0.1801
   35POPC  H13B 4643   3.424   2.182  11.205  1.2953 -1.1602  0.4909
   35POPC  H13C 4644   3.564   2.284  11.172  0.6630 -0.9100 -1.4437
   35POPC   C14 4645   3.378   2.112  10.956 -0.1839  0.3744 -0.3682
   35POPC  H14A 4646   3.308   2.092  11.035  2.1781 -0.7787  1.5611
   35POPC  H14B 4647   3.338   2.175  10.877 -0.9070  1.2641  0.6758
   35POPC  H14C 4648   3.394   2.014  10.914 -1.0161  0.5820 -1.2122
   35POPC   C15 4649   3.598   2.064  11.048 -0.1713  0.1808 -0.8893
   35POPC  H15A 4650   3.692   2.100  11.087 -0.0433 -0.8475 -0.2164
   35POPC  H15B 4651   3.630   2.004  10.964  2.2450 -1.0526  0.7865
   35POPC  H15C 4652   3.555   2.002  11.125  2.2517  1.4012  1.6129
   35POPC   C11 4653   3.700   2.333  10.963 -0.3176  0.1512  0.6684
   35POPC  H11A 4654   3.688   2.394  11.054  0.9242  1.7735 -0.2088
   35POPC  H11B 4655   3.731   2.417  10.897  0.3042 -0.0581  0.6906
   35POPC     P 4656   3.882   2.165  10.873  0.1720  0.2685 -0.4935
   35POPC   O13 4657   3.782   2.092  10.798  0.3209  0.0089  0.2572
   35POPC   O14 4658   3.985   2.081  10.931  0.0857  0.7273 -0.0124
   35POPC   O12 4659   3.806   2.248  10.983  0.1486  0.2181  0.1136
   35POPC   O11 4660   3.935   2.274  10.779  0.5471  0.5044 -0.6198
   35POPC    C1 4661   4.040   2.362  10.809 -0.0944  0.2914  0.4228
   35POPC    HA 4662   4.118   2.314  10.873 -0.8591 -0.8833  0.5034
   35POPC    HB 4663   3.998   2.450  10.862 -0.9285 -0.8250  1.6820
   35POPC    C2 4664   4.107   2.404  10.676 -0.6634 -0.3566 -0.5293
   35POPC    HS 4665   4.188   2.473  10.709  0.1130 -1.8269  0.7843
   35POPC   O21 4666   4.006   2.452  10.579  0.1244  0.6995  0.7318
   35POPC   C21 4667   3.973   2.578  10.611 -0.1020  0.2810 -0.1708
   35POPC   O22 4668   4.030   2.658  10.683  0.2652  0.0994 -0.8662
   35POPC   C22 4669   3.844   2.609  10.546  0.9357 -0.4747 -0.7097
   35POPC   H2R 4670   3.771   2.638  10.625  1.9730 -0.8291  0.4058
   35POPC   H2S 4671   3.805   2.518  10.495  1.5267 -2.5150  2.2287
   35POPC    C3 4672   4.190   2.279  10.616 -0.7798 -0.4032 -0.7771
   35POPC    HX 4673   4.119   2.194  10.612 -0.1202 -1.1171  1.2959
   35POPC    HY 4674   4.257   2.270  10.704  0.2972  1.8076 -1.2910
   35POPC   O31 4675   4.257   2.304  10.493  0.3518 -0.2872 -0.2583
   35POPC   C31 4676   4.182   2.302  10.387 -0.9337 -0.2940  0.2975
   35POPC   O32 4677   4.062   2.284  10.383  0.1954 -0.1396  1.1484
   35POPC   C32 4678   4.264   2.315  10.260  0.2795 -0.9020  0.1028
   35POPC   H2X 4679   4.250   2.223  10.199  0.8899 -2.0409  1.6005
   35POPC   H2Y 4680   4.371   2.310  10.289  0.2055 -2.1227  0.2331
   35POPC   C23 4681   3.856   2.730  10.455  0.4551 -0.2379  0.7133
   35POPC   H3R 4682   3.910   2.810  10.511  2.8274 -1.9068  0.9309
   35POPC   H3S 4683   3.757   2.779  10.436  0.1927 -1.0663 -0.1379
   35POPC   C24 4684   3.918   2.685  10.319 -0.1606  0.5933 -0.1534
   35POPC   H4R 4685   3.851   2.604  10.284  0.1772  0.4543 -0.4809
   35POPC   H4S 4686   4.022   2.651  10.341 -0.9125 -0.8418  1.3895
   35POPC   C25 4687   3.919   2.801  10.218  0.5495  0.0904 -0.1646
   35POPC   H5R 4688   3.980   2.885  10.256  1.3575  0.0581 -1.3474
   35POPC   H5S 4689   3.813   2.831  10.207  0.6665 -0.1064 -2.0321
   35POPC   C26 4690   3.972   2.761  10.082 -0.2801  0.3022 -0.3574
   35POPC   H6R 4691   3.912   2.674  10.049 -0.9145 -0.0264  1.5128
   35POPC   H6S 4692   4.081   2.740  10.091 -0.3725 -1.5720 -2.6554
   35POPC   C27 4693   3.952   2.869   9.976 -0.2429  0.7825 -0.4269
   35POPC   H7R 4694   3.955   2.964  10.034 -2.2166  0.4750  0.2322
   35POPC   H7S 4695   3.844   2.865   9.951 -0.6768 -2.5459  1.3829
   35POPC   C28 4696   4.054   2.844   9.856 -0.2300  0.6947 -0.0107
   35POPC   H8R 4697   4.158   2.832   9.893 -1.0056 -1.3838  1.6656
   35POPC   H8S 4698   4.058   2.933   9.790 -2.0078 -0.5557 -1.9023
   35POPC   C29 4699   4.015   2.731   9.765  0.4141  0.3437  0.5976
   35POPC   H91 4700   4.008   2.627   9.802  1.8724 -0.2345 -0.6634
   35POPC  C210 4701   3.975   2.746   9.636  0.2310  0.2536  0.0617
   35POPC  H101 4702   3.942   2.658   9.579  1.0365  0.1261 -0.2307
   35POPC  C211 4703   3.986   2.884   9.564 -0.1975 -0.4457  0.1716
   35POPC  H11R 4704   4.089   2.903   9.527 -0.4416 -0.7051 -0.6743
   35POPC  H11S 4705   3.943   2.970   9.620 -0.3309 -0.4622  0.0950
   35POPC  C212 4706   3.904   2.884   9.431  0.3116 -0.1829  0.5844
   35POPC  H12R 4707   3.913   2.986   9.389 -0.4994  0.8745  2.7809
   35POPC  H12S 4708   3.795   2.881   9.455 -0.0136  2.0624 -0.3943
   35POPC  C213 4709   3.954   2.778   9.332 -0.2084 -0.2833  0.4702
   35POPC  H13R 4710   3.921   2.673   9.349 -0.6285 -0.7248 -2.4816
   35POPC  H13S 4711   4.065   2.781   9.337 -0.2556  0.3943  1.4627
   35POPC  C214 4712   3.906   2.817   9.189 -0.2289  0.4679  0.3331
   35POPC  H14R 4713   3.965   2.771   9.107  1.6596  0.0220  1.8720
   35POPC  H14S 4714   3.909   2.926   9.171  3.0129  0.1192 -2.0311
   35POPC  C215 4715   3.762   2.777   9.160 -0.4475  0.1308 -0.0963
   35POPC  H15R 4716   3.699   2.838   9.228  0.6805  0.9311  0.2492
   35POPC  H15S 4717   3.751   2.671   9.193 -1.7777  0.7057  1.4417
   35POPC  C216 4718   3.718   2.790   9.013  0.4137  0.2289  0.4879
   35POPC  H16R 4719   3.788   2.735   8.947 -0.3244  0.6594 -0.6918
   35POPC  H16S 4720   3.715   2.896   8.981 -0.4585  0.1628  0.3150
   35POPC  C217 4721   3.576   2.729   8.994 -0.1867  0.3563  0.3223
   35POPC  H17R 4722   3.498   2.783   9.052 -0.7411 -0.7061  0.5874
   35POPC  H17S 4723   3.578   2.629   9.043  1.7865  0.0130 -0.3779
   35POPC  C218 4724   3.547   2.730   8.843 -0.1148  0.6245 -0.7012
   35POPC  H18R 4725   3.637   2.707   8.783  0.0753 -1.3210  0.2532
   35POPC  H18S 4726   3.514   2.833   8.815  2.5866  1.7766  0.0168
   35POPC  H18T 4727   3.463   2.662   8.817  0.0456  0.2514 -0.2575
   35POPC   C33 4728   4.222   2.433  10.184  0.3345 -0.2626 -0.2208
   35POPC   H3X 4729   4.283   2.521  10.213  1.0852 -1.1147  0.9177
   35POPC   H3Y 4730   4.118   2.463  10.209  0.9473  2.4913 -0.6647
   35POPC   C34 4731   4.232   2.419  10.034  0.2598 -0.3822  0.0288
   35POPC   H4X 4732   4.172   2.504   9.996  1.6860 -0.5409 -2.8478
   35POPC   H4Y 4733   4.168   2.331  10.010 -1.3873  1.0875 -1.3031
   35POPC   C35 4734   4.368   2.426   9.972 -0.1889  0.3857 -0.8996
   35POPC   H5X 4735   4.419   2.333  10.003 -2.3326 -0.8281 -0.8194
   35POPC   H5Y 4736   4.421   2.511  10.020  0.6734  0.2273 -1.5563
   35POPC   C36 4737   4.365   2.451   9.825 -0.1698 -0.5464  0.7870
   35POPC   H6X 4738   4.470   2.466   9.793 -0.1042 -1.9436  0.2989
   35POPC   H6Y 4739   4.307   2.546   9.816  0.0599 -0.4816 -0.0218
   35POPC   C37 4740   4.312   2.342   9.735  0.3519  0.1982 -0.2773
   35POPC   H7X 4741   4.208   2.314   9.763  0.5497 -0.4007 -0.1457
   35POPC   H7Y 4742   4.390   2.263   9.742  1.3362  1.3101  2.5388
   35POPC   C38 4743   4.305   2.397   9.592 -0.1883 -0.0554  0.2405
   35POPC   H8X 4744   4.405   2.437   9.565 -1.0406  2.4488  0.6258
   35POPC   H8Y 4745   4.231   2.479   9.587  0.2686  0.4930  1.9281
   35POPC   C39 4746   4.276   2.291   9.492 -0.1171 -0.0985 -0.8779
   35POPC   H9X 4747   4.184   2.234   9.518 -0.6293  1.6913  1.6788
   35POPC   H9Y 4748   4.366   2.226   9.483 -0.6595 -0.7324 -1.7882
   35POPC  C310 4749   4.262   2.355   9.351 -0.3011  0.0622  0.0723
   35POPC  H10X 4750   4.352   2.414   9.324  0.9100 -1.5129  0.4821
   35POPC  H10Y 4751   4.173   2.421   9.353 -0.6076 -0.3013 -0.8523
   35POPC  C311 4752   4.236   2.238   9.255  0.5064  0.6206 -0.7206
   35POPC  H11X 4753   4.141   2.192   9.291  0.4184  0.5801 -1.0007
   35POPC  H11Y 4754   4.319   2.163   9.259 -2.5912 -3.0760  0.9411
   35POPC  C312 4755   4.211   2.272   9.105 -1.0070 -0.4210 -0.6040
   35POPC  H12X 4756   4.195   2.183   9.041  0.1326  0.1667 -1.7617
   35POPC  H12Y 4757   4.310   2.300   9.064  0.2688 -3.7195 -0.0048
   35POPC  C313 4758   4.095   2.366   9.079 -0.5467 -0.0933 -0.4786
   35POPC  H13X 4759   4.104   2.458   9.141 -1.4994  0.3187 -0.9339
   35POPC  H13Y 4760   3.992   2.324   9.086 -0.8458  0.6442 -0.4187
   35POPC  C314 4761   4.111   2.424   8.943  0.0322  0.6779  0.9928
   35POPC  H14X 4762   4.115   2.344   8.867  0.6909  2.4683 -0.9503
   35POPC  H14Y 4763   4.202   2.488   8.933  0.0067  0.4671 -0.9096
   35POPC  C315 4764   3.998   2.524   8.909  0.5866 -0.3495 -0.2324
   35POPC  H15X 4765   3.979   2.568   9.009 -0.0053 -1.0300 -0.0359
   35POPC  H15Y 4766   3.910   2.469   8.870 -0.9458  2.8303 -1.5135
   35POPC  C316 4767   4.026   2.637   8.805  0.1231  0.1112 -0.1934
   35POPC  H16X 4768   4.112   2.686   8.855 -1.2429  1.1978  1.2290
   35POPC  H16Y 4769   3.938   2.705   8.805  0.3873  0.5176 -2.4808
   35POPC  H16Z 4770   4.031   2.598   8.701 -0.2296  1.0361 -0.5649
   36POPC     N 4771   2.327   0.716  11.221 -0.0622  0.2942  0.5976
   36POPC   C12 4772   2.349   0.684  11.076 -0.8200 -0.0542 -0.1163
   36POPC  H12A 4773   2.431   0.613  11.073 -0.8432 -0.3806  3.5566
   36POPC  H12B 4774   2.396   0.771  11.033  0.6438  0.6698  2.7096
   36POPC   C13 4775   2.215   0.817  11.240  0.2051 -0.0909 -0.9452
   36POPC  H13A 4776   2.123   0.793  11.189 -0.4316 -0.3290  0.2801
   36POPC  H13B 4777   2.198   0.836  11.345  0.0576  1.9889 -1.3037
   36POPC  H13C 4778   2.256   0.907  11.196  0.2285  1.4778  2.0228
   36POPC   C14 4779   2.301   0.596  11.306 -0.7198 -0.5078  0.8987
   36POPC  H14A 4780   2.267   0.624  11.404  1.6344  1.1060  1.3571
   36POPC  H14B 4781   2.222   0.533  11.268 -0.8734 -0.3747  0.9975
   36POPC  H14C 4782   2.390   0.534  11.308 -0.1933 -0.0779 -2.8767
   36POPC   C15 4783   2.447   0.783  11.271  0.2684  0.1655 -0.1227
   36POPC  H15A 4784   2.428   0.833  11.365 -0.2893  0.7372 -0.5346
   36POPC  H15B 4785   2.495   0.855  11.206 -0.7457  0.6694 -0.3318
   36POPC  H15C 4786   2.519   0.702  11.274  0.5726  0.4456  0.2329
   36POPC   C11 4787   2.238   0.632  10.985 -0.0521  0.1661 -0.5174
   36POPC  H11A 4788   2.184   0.546  11.031 -1.0715  1.5650  1.0687
   36POPC  H11B 4789   2.285   0.608  10.887 -0.0752 -0.4992 -0.3695
   36POPC     P 4790   1.994   0.712  10.949 -0.2768  0.3838 -0.3457
   36POPC   O13 4791   1.918   0.831  10.985 -0.2639  0.1249  0.0022
   36POPC   O14 4792   1.954   0.583  11.021  0.5683 -0.1318  0.0741
   36POPC   O12 4793   2.141   0.737  10.966 -0.1789 -0.0785 -0.3900
   36POPC   O11 4794   1.984   0.702  10.791  0.0094 -0.0939  0.1399
   36POPC    C1 4795   2.082   0.759  10.703  0.2790 -0.3027 -0.1092
   36POPC    HA 4796   2.175   0.698  10.706  0.1773 -0.4592 -0.1340
   36POPC    HB 4797   2.108   0.865  10.726  0.7482 -0.6998  1.2947
   36POPC    C2 4798   2.031   0.739  10.559 -0.2164 -0.7705  0.2699
   36POPC    HS 4799   1.936   0.798  10.558  0.9032  1.3048  2.8050
   36POPC   O21 4800   2.005   0.599  10.539 -0.5592 -0.2244  0.1178
   36POPC   C21 4801   1.907   0.568  10.454 -0.4053 -0.1034  0.1262
   36POPC   O22 4802   1.824   0.640  10.404  0.1891 -0.2379  0.0043
   36POPC   C22 4803   1.919   0.413  10.416 -0.7723 -0.0451  0.6248
   36POPC   H2R 4804   1.845   0.391  10.336 -0.1958  3.4544 -1.0747
   36POPC   H2S 4805   1.895   0.356  10.508 -0.3293  1.0926  1.4743
   36POPC    C3 4806   2.137   0.791  10.451  0.0105  0.3165 -0.1917
   36POPC    HX 4807   2.219   0.716  10.449  0.4870  0.8276 -1.7492
   36POPC    HY 4808   2.181   0.888  10.482 -0.0787  0.7081 -1.2319
   36POPC   O31 4809   2.075   0.795  10.326 -0.0453  0.2639 -0.1220
   36POPC   C31 4810   2.004   0.905  10.290 -0.0673 -0.1135  0.8207
   36POPC   O32 4811   1.988   1.008  10.351  0.4259  0.1299  0.3939
   36POPC   C32 4812   1.959   0.874  10.149 -0.3125  0.1527  0.0970
   36POPC   H2X 4813   1.873   0.930  10.107 -1.3496 -3.3520 -3.0045
   36POPC   H2Y 4814   1.923   0.769  10.157 -3.0419  1.0422  0.5929
   36POPC   C23 4815   2.065   0.375  10.367  0.2848  0.1735  1.2129
   36POPC   H3R 4816   2.064   0.266  10.345 -1.6400  0.5701 -1.1067
   36POPC   H3S 4817   2.142   0.411  10.439 -0.2202  0.1205  1.7880
   36POPC   C24 4818   2.092   0.440  10.232  0.3693 -0.0947  0.3133
   36POPC   H4R 4819   2.096   0.551  10.238 -3.5400  0.2045 -0.0100
   36POPC   H4S 4820   1.996   0.429  10.177  0.5021 -0.3994  0.1426
   36POPC   C25 4821   2.208   0.379  10.158 -0.6159 -0.7984 -0.0376
   36POPC   H5R 4822   2.248   0.283  10.197 -1.6755 -1.6778 -1.0344
   36POPC   H5S 4823   2.294   0.448  10.171 -0.6362 -0.6192 -0.7725
   36POPC   C26 4824   2.185   0.360  10.016  0.0443 -0.0844  0.0743
   36POPC   H6R 4825   2.135   0.264   9.990 -0.5057 -0.5132  2.5351
   36POPC   H6S 4826   2.280   0.351   9.959  0.1611 -0.6409  0.3553
   36POPC   C27 4827   2.097   0.469   9.947 -0.4324  0.2579 -1.0421
   36POPC   H7R 4828   2.115   0.569   9.991 -0.7388  0.5042 -1.4684
   36POPC   H7S 4829   1.990   0.445   9.963  0.3870 -3.1183  0.1922
   36POPC   C28 4830   2.113   0.487   9.792 -0.4147  0.2800  0.1101
   36POPC   H8R 4831   2.213   0.534   9.777 -0.4194  0.2320 -0.0636
   36POPC   H8S 4832   2.031   0.552   9.756  0.4884  0.3236 -2.0251
   36POPC   C29 4833   2.104   0.356   9.722 -0.3367 -0.2954 -0.2016
   36POPC   H91 4834   2.197   0.298   9.718  0.3529  0.8406 -1.6585
   36POPC  C210 4835   2.001   0.308   9.653  0.0607 -0.6272 -0.4479
   36POPC  H101 4836   2.012   0.211   9.601 -0.0737 -2.2056  2.3067
   36POPC  C211 4837   1.868   0.376   9.635  0.0271  0.4748  0.2308
   36POPC  H11R 4838   1.863   0.467   9.698 -0.5229  0.2793  0.4777
   36POPC  H11S 4839   1.777   0.321   9.670  3.3219 -3.8365  3.2020
   36POPC  C212 4840   1.845   0.423   9.491  0.4438  0.9109  0.1985
   36POPC  H12R 4841   1.759   0.493   9.493 -1.0823 -0.8744 -0.3669
   36POPC  H12S 4842   1.817   0.329   9.439  1.2583  1.4314 -1.2199
   36POPC  C213 4843   1.962   0.494   9.414 -0.1644 -0.1539 -0.1512
   36POPC  H13R 4844   2.047   0.428   9.385 -0.9721 -1.3003 -0.0111
   36POPC  H13S 4845   2.021   0.564   9.477 -0.6699  0.3023 -0.1794
   36POPC  C214 4846   1.920   0.570   9.280  0.4139 -0.0038  0.0430
   36POPC  H14R 4847   2.010   0.620   9.238 -0.2393  1.8277  0.7186
   36POPC  H14S 4848   1.856   0.652   9.319  0.9211 -0.1554  1.2407
   36POPC  C215 4849   1.866   0.470   9.175  0.7380  0.2218  0.0618
   36POPC  H15R 4850   1.770   0.433   9.218  1.8444  0.2790  2.7772
   36POPC  H15S 4851   1.929   0.380   9.159  0.3477  0.0220 -0.4101
   36POPC  C216 4852   1.864   0.533   9.035  0.4107  0.3354  0.3831
   36POPC  H16R 4853   1.968   0.550   8.999 -0.7410  0.4844 -3.3871
   36POPC  H16S 4854   1.806   0.628   9.035 -0.1344  0.0455 -1.0659
   36POPC  C217 4855   1.802   0.448   8.927  0.3514  0.2343  0.1326
   36POPC  H17R 4856   1.828   0.340   8.934  2.4001  0.3441 -3.1399
   36POPC  H17S 4857   1.849   0.481   8.831 -1.6487  0.3227 -0.8669
   36POPC  C218 4858   1.653   0.467   8.900 -0.2732  0.6914 -0.3032
   36POPC  H18R 4859   1.597   0.469   8.996 -1.7992  1.3003 -1.1599
   36POPC  H18S 4860   1.630   0.380   8.835 -0.9737  1.9898 -1.8721
   36POPC  H18T 4861   1.624   0.546   8.827  1.3848 -0.7649 -2.6922
   36POPC   C33 4862   2.078   0.877  10.048 -0.1818  0.0502 -0.2043
   36POPC   H3X 4863   2.137   0.786  10.072  0.2724  0.0480 -1.2486
   36POPC   H3Y 4864   2.137   0.970  10.062 -0.1760  0.1470 -0.8067
   36POPC   C34 4865   2.029   0.868   9.901 -0.4715 -0.2112 -0.0598
   36POPC   H4X 4866   1.986   0.967   9.876  1.6628  0.1891 -2.6024
   36POPC   H4Y 4867   1.959   0.784   9.881  0.5696 -0.9419 -0.7705
   36POPC   C35 4868   2.140   0.849   9.803 -0.6336 -0.3761  0.4123
   36POPC   H5X 4869   2.188   0.749   9.815 -0.0323 -0.3788 -1.5359
   36POPC   H5Y 4870   2.224   0.920   9.823  0.4776 -0.4879 -3.1716
   36POPC   C36 4871   2.105   0.888   9.655 -0.1127  0.3667  0.3514
   36POPC   H6X 4872   2.065   0.991   9.644  1.0176  0.5875 -2.7858
   36POPC   H6Y 4873   2.028   0.815   9.623 -0.1554  0.1632  0.9130
   36POPC   C37 4874   2.219   0.863   9.552  0.1759  0.1876  0.5211
   36POPC   H7X 4875   2.262   0.761   9.564  0.2172 -0.4951 -3.7695
   36POPC   H7Y 4876   2.299   0.935   9.580 -1.7750  2.1191  1.4482
   36POPC   C38 4877   2.176   0.879   9.408 -0.0812  0.1802 -0.5391
   36POPC   H8X 4878   2.154   0.985   9.386 -1.9034  0.1375  0.8753
   36POPC   H8Y 4879   2.089   0.816   9.379  0.6456 -2.0521  1.6557
   36POPC   C39 4880   2.291   0.829   9.325 -0.0373 -0.1584 -0.4392
   36POPC   H9X 4881   2.339   0.737   9.365  1.6070  0.2299 -1.3910
   36POPC   H9Y 4882   2.370   0.908   9.328 -0.0811 -0.0544 -1.4971
   36POPC  C310 4883   2.260   0.820   9.179 -0.2130 -0.4650 -0.8128
   36POPC  H10X 4884   2.220   0.917   9.141  0.4647  1.1428  2.3078
   36POPC  H10Y 4885   2.179   0.745   9.163 -0.3366 -0.4866 -0.1076
   36POPC  C311 4886   2.386   0.779   9.095 -0.0054  0.3533  0.5772
   36POPC  H11X 4887   2.396   0.670   9.116  0.2522  0.4240  0.8269
   36POPC  H11Y 4888   2.476   0.830   9.135 -0.2548  0.0085  1.6220
   36POPC  C312 4889   2.373   0.791   8.943  0.9390  0.1903  0.2123
   36POPC  H12X 4890   2.474   0.815   8.904  0.0138  3.6900 -0.4157
   36POPC  H12Y 4891   2.295   0.869   8.928  0.4585 -0.2023  0.6747
   36POPC  C313 4892   2.328   0.664   8.870 -0.5642  0.3384  0.4592
   36POPC  H13X 4893   2.229   0.627   8.906 -1.2477 -1.6204 -2.9465
   36POPC  H13Y 4894   2.403   0.582   8.880 -1.2555 -0.3010  0.5422
   36POPC  C314 4895   2.311   0.684   8.721 -0.1903 -0.4583  0.2283
   36POPC  H14X 4896   2.404   0.729   8.682  0.0437  0.3924  1.6855
   36POPC  H14Y 4897   2.226   0.753   8.702  0.2774 -0.4456 -2.0996
   36POPC  C315 4898   2.286   0.556   8.641  0.6242  0.6121  0.0845
   36POPC  H15X 4899   2.196   0.514   8.691  1.2650  0.9496  1.5570
   36POPC  H15Y 4900   2.372   0.487   8.650  0.3323  0.1258 -0.7730
   36POPC  C316 4901   2.259   0.576   8.492 -0.4123  0.9457 -0.7716
   36POPC  H16X 4902   2.245   0.479   8.440 -0.5872 -1.6381  3.5901
   36POPC  H16Y 4903   2.344   0.638   8.455  1.3665 -0.2719  1.0712
   36POPC  H16Z 4904   2.169   0.640   8.481  2.1733  5.3075  0.6807
   37POPC     N 4905   4.239   4.355   6.387 -0.1152 -0.0123  0.2052
   37POPC   C12 4906   4.238   4.363   6.540 -0.3615  0.3304  0.2703
   37POPC  H12A 4907   4.246   4.462   6.582 -1.3150 -0.2986  2.0553
   37POPC  H12B 4908   4.333   4.319   6.568 -1.3093 -0.3136  2.7268
   37POPC   C13 4909   4.355   4.429   6.336  0.5061  0.1063 -0.0470
   37POPC  H13A 4910   4.376   4.397   6.235 -0.3467 -1.3552  0.2070
   37POPC  H13B 4911   4.332   4.534   6.332 -2.3718 -0.4539 -0.8991
   37POPC  H13C 4912   4.442   4.398   6.392  0.6956  1.1820  0.2775
   37POPC   C14 4913   4.241   4.213   6.343  0.0166  0.5222 -0.3044
   37POPC  H14A 4914   4.314   4.153   6.395 -0.8509 -0.2432  0.0599
   37POPC  H14B 4915   4.155   4.158   6.376  1.0796 -1.1045 -0.1154
   37POPC  H14C 4916   4.257   4.207   6.236  0.2424 -0.7583 -0.2087
   37POPC   C15 4917   4.113   4.425   6.337 -0.1745  0.4145 -0.6485
   37POPC  H15A 4918   4.124   4.450   6.232  0.3093 -0.6162 -0.8491
   37POPC  H15B 4919   4.098   4.514   6.397  2.2532  1.3827 -1.3522
   37POPC  H15C 4920   4.028   4.360   6.354  1.7408 -1.8038  0.9810
   37POPC   C11 4921   4.140   4.279   6.616  1.0060  0.3068 -0.3985
   37POPC  H11A 4922   4.165   4.286   6.724  2.0764  1.6978 -0.7046
   37POPC  H11B 4923   4.143   4.171   6.593 -0.1593  0.2201 -0.2134
   37POPC     P 4924   3.945   4.459   6.639 -0.2240 -0.1823  0.5318
   37POPC   O13 4925   3.806   4.462   6.600  0.1368  0.0127 -0.0102
   37POPC   O14 4926   4.034   4.573   6.606 -0.0311  0.1702  0.2313
   37POPC   O12 4927   4.004   4.326   6.586 -0.1508  0.0041  0.0963
   37POPC   O11 4928   3.955   4.424   6.790  0.4015 -0.0225  0.0172
   37POPC    C1 4929   3.844   4.425   6.881  0.1814  0.4032  0.0448
   37POPC    HA 4930   3.862   4.355   6.966  0.2541 -0.5375 -0.7248
   37POPC    HB 4931   3.745   4.399   6.838 -0.1666  0.2626  0.9052
   37POPC    C2 4932   3.828   4.575   6.930 -0.0963  0.3459 -0.3311
   37POPC    HS 4933   3.775   4.628   6.847 -1.6652  0.4428  0.6909
   37POPC   O21 4934   3.956   4.639   6.959 -0.1995 -0.0240  0.2049
   37POPC   C21 4935   3.960   4.774   6.967  0.0563  0.2174 -0.3133
   37POPC   O22 4936   3.873   4.850   6.928  0.1480  0.3737  0.1987
   37POPC   C22 4937   4.090   4.817   7.028 -0.0523  0.5301  0.4947
   37POPC   H2R 4938   4.132   4.889   6.955 -0.3379  0.2527  0.0558
   37POPC   H2S 4939   4.165   4.735   7.019 -1.2552 -0.4100 -1.8392
   37POPC    C3 4940   3.730   4.586   7.055  0.1394  0.2054  0.0210
   37POPC    HX 4941   3.631   4.548   7.024 -0.1050  0.2824  0.6836
   37POPC    HY 4942   3.732   4.697   7.067  1.9314  0.3729 -1.4170
   37POPC   O31 4943   3.785   4.521   7.173  2.0621 -0.1599  0.3174
   37POPC   C31 4944   3.704   4.524   7.273  0.9710 -0.6313 -0.6751
   37POPC   O32 4945   3.597   4.581   7.282  0.2082 -0.4177  0.0048
   37POPC   C32 4946   3.759   4.430   7.383  0.5980 -0.0517  0.1217
   37POPC   H2X 4947   3.842   4.489   7.426  1.6350 -0.1027 -1.6907
   37POPC   H2Y 4948   3.796   4.347   7.319  0.4611  1.6253 -2.2812
   37POPC   C23 4949   4.087   4.881   7.171  0.0069 -0.3438 -0.7614
   37POPC   H3R 4950   4.033   4.821   7.248  1.7234 -2.1859 -0.9061
   37POPC   H3S 4951   4.032   4.977   7.158  0.2954 -0.3536 -2.1634
   37POPC   C24 4952   4.231   4.907   7.213  0.5705 -0.0457  1.3991
   37POPC   H4R 4953   4.290   4.949   7.129 -0.5322  0.4694  0.8649
   37POPC   H4S 4954   4.280   4.810   7.239 -0.5761 -1.3604 -0.9830
   37POPC   C25 4955   4.244   5.004   7.323  0.0607 -0.4144 -0.5055
   37POPC   H5R 4956   4.179   5.094   7.327 -1.3169 -1.4198  1.0547
   37POPC   H5S 4957   4.350   5.038   7.315  0.0490 -0.4192 -0.6817
   37POPC   C26 4958   4.225   4.942   7.463  0.1843  0.1040  0.2249
   37POPC   H6R 4959   4.288   4.853   7.485 -0.0381  0.1343  1.0224
   37POPC   H6S 4960   4.125   4.895   7.476  0.9610 -2.0994 -1.1673
   37POPC   C27 4961   4.244   5.042   7.573  0.5553  0.3711 -0.3464
   37POPC   H7R 4962   4.233   5.140   7.522 -0.1644 -0.5084 -1.9807
   37POPC   H7S 4963   4.353   5.033   7.596  0.4903  2.4451  1.0206
   37POPC   C28 4964   4.149   5.047   7.687  0.4932 -0.7634  0.3701
   37POPC   H8R 4965   4.047   5.057   7.646  0.4312  1.3412  0.9480
   37POPC   H8S 4966   4.162   5.149   7.729 -0.6672 -0.5017  0.1215
   37POPC   C29 4967   4.160   4.933   7.791 -0.2963 -0.2872 -0.2760
   37POPC   H91 4968   4.162   4.828   7.756 -1.0128 -0.6396  0.7165
   37POPC  C210 4969   4.162   4.952   7.928  0.0829  0.3688  0.4369
   37POPC  H101 4970   4.161   4.863   7.993 -1.4567  0.8227  1.0846
   37POPC  C211 4971   4.153   5.084   7.998  0.0131 -0.1486  0.0681
   37POPC  H11R 4972   4.099   5.164   7.943 -0.1749  0.4430  1.0998
   37POPC  H11S 4973   4.257   5.124   8.009 -0.0916  0.0501  0.3363
   37POPC  C212 4974   4.092   5.069   8.135  0.1968 -0.4592  0.4877
   37POPC  H12R 4975   4.156   5.009   8.203  0.7274  0.8408  1.1745
   37POPC  H12S 4976   3.999   5.011   8.114 -0.4567  0.3748  0.9686
   37POPC  C213 4977   4.065   5.201   8.198 -0.6131 -0.6310 -0.1417
   37POPC  H13R 4978   4.012   5.257   8.118  0.1652 -0.7683 -0.7604
   37POPC  H13S 4979   4.166   5.245   8.214  0.4877 -1.7502 -3.2746
   37POPC  C214 4980   3.976   5.201   8.326 -0.6263  0.2110  0.2729
   37POPC  H14R 4981   3.983   5.297   8.382  2.2496  1.0858 -1.3764
   37POPC  H14S 4982   4.031   5.131   8.393  1.6418  1.2108 -0.4182
   37POPC  C215 4983   3.834   5.157   8.298  0.2080 -0.5688  0.1664
   37POPC  H15R 4984   3.834   5.067   8.233 -0.9195 -0.0437 -0.5827
   37POPC  H15S 4985   3.774   5.243   8.260 -2.2163 -0.9621  2.7853
   37POPC  C216 4986   3.766   5.109   8.421  0.7755  0.2868  0.7027
   37POPC  H16R 4987   3.828   5.024   8.454  1.7739 -0.4045 -2.5941
   37POPC  H16S 4988   3.662   5.086   8.389  0.7198  1.8533 -0.3576
   37POPC  C217 4989   3.770   5.206   8.537  0.0241 -0.2763  0.4875
   37POPC  H17R 4990   3.728   5.304   8.506 -0.5711 -1.0723 -1.3741
   37POPC  H17S 4991   3.873   5.228   8.572 -0.4474  1.3923  0.9297
   37POPC  C218 4992   3.670   5.168   8.645 -0.3497  0.5779 -0.0855
   37POPC  H18R 4993   3.687   5.065   8.684  0.7655  1.9721  3.5195
   37POPC  H18S 4994   3.566   5.179   8.607  0.0568  1.7412 -0.9104
   37POPC  H18T 4995   3.689   5.241   8.727 -0.2104 -1.3430  1.6765
   37POPC   C33 4996   3.656   4.378   7.487 -0.1386 -0.2590  0.4817
   37POPC   H3X 4997   3.583   4.312   7.435  0.4230 -0.5159  0.0079
   37POPC   H3Y 4998   3.604   4.459   7.543  0.0037 -1.0814  1.8617
   37POPC   C34 4999   3.726   4.298   7.594  0.2937  0.1040  0.2366
   37POPC   H4X 5000   3.802   4.361   7.645  0.5670  0.5678 -0.7196
   37POPC   H4Y 5001   3.787   4.220   7.545 -0.3868 -0.7989  0.7987
   37POPC   C35 5002   3.622   4.235   7.686  0.5293 -0.1564  0.3046
   37POPC   H5X 5003   3.551   4.165   7.637  0.6980  0.5665 -1.0263
   37POPC   H5Y 5004   3.548   4.312   7.716 -2.3985 -2.6209 -0.0597
   37POPC   C36 5005   3.681   4.170   7.814 -0.6770 -0.0955  1.2784
   37POPC   H6X 5006   3.744   4.244   7.869  0.7965 -0.1576 -0.2221
   37POPC   H6Y 5007   3.745   4.088   7.774  2.4268  3.8283 -2.9192
   37POPC   C37 5008   3.581   4.103   7.906 -0.4955 -0.5867 -0.4323
   37POPC   H7X 5009   3.515   4.042   7.841 -0.7627 -0.3835 -0.3530
   37POPC   H7Y 5010   3.521   4.185   7.950 -0.9807  0.2111 -2.4538
   37POPC   C38 5011   3.638   4.024   8.027 -0.0156 -0.2398  0.3279
   37POPC   H8X 5012   3.682   4.096   8.100  0.1537 -2.6611  2.7365
   37POPC   H8Y 5013   3.722   3.962   7.989  0.3827  0.6945 -0.3640
   37POPC   C39 5014   3.537   3.928   8.087 -0.0816 -0.1228  0.8988
   37POPC   H9X 5015   3.522   3.847   8.013  0.6694  1.4087 -1.0086
   37POPC   H9Y 5016   3.440   3.983   8.090  0.5579  1.1346 -0.3928
   37POPC  C310 5017   3.577   3.874   8.228  0.1759 -0.1780 -1.1585
   37POPC  H10X 5018   3.603   3.956   8.299  3.4608  0.2841 -2.7056
   37POPC  H10Y 5019   3.676   3.825   8.218  0.1941 -0.2438 -0.7028
   37POPC  C311 5020   3.480   3.771   8.289 -0.1995  0.0105 -0.5288
   37POPC  H11X 5021   3.514   3.670   8.260 -0.3516 -0.4184  0.7144
   37POPC  H11Y 5022   3.382   3.792   8.240 -1.5997  1.0360  2.4605
   37POPC  C312 5023   3.473   3.766   8.440 -0.2088 -0.0395 -0.4702
   37POPC  H12X 5024   3.424   3.849   8.494 -2.3399 -0.7831 -1.1503
   37POPC  H12Y 5025   3.581   3.763   8.464  0.2376 -0.2379 -2.3483
   37POPC  C313 5026   3.397   3.645   8.487  0.7903  0.7142  0.0307
   37POPC  H13X 5027   3.446   3.559   8.436  1.8774  2.9019 -2.8899
   37POPC  H13Y 5028   3.293   3.645   8.447  1.8760  0.2119 -3.0986
   37POPC  C314 5029   3.395   3.631   8.642 -0.5678 -0.1786  0.7789
   37POPC  H14X 5030   3.484   3.678   8.688  0.6345 -1.6856  0.0971
   37POPC  H14Y 5031   3.408   3.525   8.673 -2.3542 -0.8919 -0.6882
   37POPC  C315 5032   3.259   3.689   8.706  0.0581  0.5448  0.0740
   37POPC  H15X 5033   3.240   3.782   8.649 -1.7692  0.3044  0.2331
   37POPC  H15Y 5034   3.278   3.713   8.813  2.2549  1.3810 -0.4476
   37POPC  C316 5035   3.155   3.573   8.691  0.3356 -0.2155 -0.5124
   37POPC  H16X 5036   3.063   3.592   8.750 -1.2015 -3.1026 -1.7830
   37POPC  H16Y 5037   3.200   3.480   8.729 -0.2182  0.3474  1.6362
   37POPC  H16Z 5038   3.134   3.560   8.582  0.2189 -0.6067 -0.4413
   38POPC     N 5039   2.952   2.005   5.845 -0.1831 -0.2533  0.6053
   38POPC   C12 5040   2.857   2.066   5.950 -0.3844  0.5242  0.4457
   38POPC  H12A 5041   2.757   2.032   5.929 -0.0462 -0.5724  0.5478
   38POPC  H12B 5042   2.853   2.171   5.922  2.3175  0.2899 -1.1806
   38POPC   C13 5043   2.938   2.087   5.721  0.0889  0.0496  0.2520
   38POPC  H13A 5044   3.015   2.056   5.652 -2.8364 -3.7596 -1.6727
   38POPC  H13B 5045   2.837   2.083   5.683 -0.6489  0.9043  2.0105
   38POPC  H13C 5046   2.959   2.191   5.742 -2.0513  0.8710 -1.3359
   38POPC   C14 5047   3.092   2.018   5.887  0.3428 -0.3515  0.2987
   38POPC  H14A 5048   3.174   1.990   5.822  0.2147  0.5425 -0.2563
   38POPC  H14B 5049   3.123   2.116   5.923  3.0702 -0.5645 -1.1884
   38POPC  H14C 5050   3.109   1.961   5.977  1.5522 -0.9650 -0.2888
   38POPC   C15 5051   2.925   1.864   5.821 -0.3655 -0.0409  0.6600
   38POPC  H15A 5052   2.826   1.854   5.779 -0.5940  3.9920 -0.2212
   38POPC  H15B 5053   2.927   1.824   5.921  0.3988  2.4227  1.7303
   38POPC  H15C 5054   2.991   1.807   5.758 -1.3613  0.8795 -1.3391
   38POPC   C11 5055   2.892   2.052   6.099  0.3945  0.3528  1.2894
   38POPC  H11A 5056   2.812   2.103   6.156 -0.9410  0.5205 -0.6465
   38POPC  H11B 5057   2.982   2.116   6.113  0.3117  0.2628  2.2679
   38POPC     P 5058   2.805   1.819   6.191  0.2902  0.1851  0.0049
   38POPC   O13 5059   2.834   1.678   6.160 -0.0624  0.0621  0.1210
   38POPC   O14 5060   2.675   1.868   6.150  0.0816  0.4328  0.4655
   38POPC   O12 5061   2.920   1.918   6.148 -0.3168  0.1205  0.5655
   38POPC   O11 5062   2.814   1.831   6.354  0.4776  0.3464 -0.4589
   38POPC    C1 5063   2.912   1.762   6.432  0.0107  0.5991 -0.0624
   38POPC    HA 5064   2.929   1.659   6.394  0.1425  0.7126 -0.3115
   38POPC    HB 5065   2.875   1.744   6.536  3.1317 -2.2363  0.7756
   38POPC    C2 5066   3.039   1.849   6.435  0.7103  0.5633  0.3617
   38POPC    HS 5067   3.067   1.858   6.327 -1.6420 -0.3276 -0.3885
   38POPC   O21 5068   3.144   1.793   6.515 -0.0372 -0.0824 -0.7062
   38POPC   C21 5069   3.259   1.853   6.485  0.7621  1.4381  0.2586
   38POPC   O22 5070   3.283   1.929   6.396 -0.0495 -0.9373  0.0720
   38POPC   C22 5071   3.368   1.803   6.576 -0.2435 -0.1571  0.0745
   38POPC   H2R 5072   3.443   1.751   6.513 -0.1152 -0.4361  0.4530
   38POPC   H2S 5073   3.320   1.726   6.640  0.8495 -0.0996  0.9945
   38POPC    C3 5074   3.005   1.991   6.490  0.4796 -0.3600 -0.2466
   38POPC    HX 5075   2.942   2.045   6.415 -0.1941 -0.2257  0.4071
   38POPC    HY 5076   3.092   2.060   6.498 -0.2804  0.4152  1.8241
   38POPC   O31 5077   2.932   2.001   6.611 -0.9961 -0.3209 -0.8685
   38POPC   C31 5078   2.982   2.083   6.709  0.0493  0.0298  0.0006
   38POPC   O32 5079   3.059   2.178   6.696  0.0589  0.2437 -0.0765
   38POPC   C32 5080   2.915   2.053   6.844  0.4479 -1.3606 -0.0986
   38POPC   H2X 5081   2.907   1.943   6.859  1.7135 -1.6046 -1.0294
   38POPC   H2Y 5082   2.812   2.089   6.826  0.2528 -2.4900 -1.4479
   38POPC   C23 5083   3.442   1.898   6.672  0.1958  0.3377  0.2676
   38POPC   H3R 5084   3.501   1.973   6.616 -0.8557  1.3396  0.4918
   38POPC   H3S 5085   3.519   1.839   6.727  1.1496  1.4768  0.1826
   38POPC   C24 5086   3.360   1.967   6.775 -0.3563 -0.1443 -0.0020
   38POPC   H4R 5087   3.277   2.023   6.728 -1.5642 -2.1545 -0.3870
   38POPC   H4S 5088   3.432   2.030   6.832  1.4245 -1.8629 -0.2411
   38POPC   C25 5089   3.297   1.875   6.885 -0.1163 -0.4186 -0.5479
   38POPC   H5R 5090   3.237   1.805   6.823 -0.4282 -0.8161  0.1988
   38POPC   H5S 5091   3.230   1.926   6.958 -0.3703 -0.2764 -0.8750
   38POPC   C26 5092   3.408   1.806   6.968  0.4915 -0.2455  0.0963
   38POPC   H6R 5093   3.463   1.880   7.030  0.5620 -0.3698  0.1822
   38POPC   H6S 5094   3.479   1.738   6.917 -1.1674 -0.7546 -1.6035
   38POPC   C27 5095   3.343   1.718   7.080 -0.5438 -0.6453 -0.0267
   38POPC   H7R 5096   3.420   1.683   7.152  0.2265  3.5374  1.5307
   38POPC   H7S 5097   3.294   1.634   7.028 -2.3435  0.9327 -1.0400
   38POPC   C28 5098   3.241   1.792   7.172 -0.1213 -0.4036 -0.1533
   38POPC   H8R 5099   3.199   1.709   7.232  1.9067 -1.8187 -0.5597
   38POPC   H8S 5100   3.150   1.822   7.117  0.1672  1.8989  0.5395
   38POPC   C29 5101   3.305   1.907   7.253  0.3209 -0.1875  0.3677
   38POPC   H91 5102   3.300   2.005   7.205 -1.0791 -0.0915  0.6571
   38POPC  C210 5103   3.367   1.890   7.375 -0.3994  0.3629  0.5410
   38POPC  H101 5104   3.406   1.981   7.423 -2.0287  2.0910 -1.1922
   38POPC  C211 5105   3.364   1.766   7.458  0.1552  0.6093 -0.0369
   38POPC  H11R 5106   3.467   1.746   7.493  0.0098 -1.2877 -0.5592
   38POPC  H11S 5107   3.337   1.671   7.407  1.3341  0.3569 -0.2123
   38POPC  C212 5108   3.276   1.774   7.587 -0.2307 -0.3207  0.4567
   38POPC  H12R 5109   3.285   1.672   7.632 -0.1339 -0.0051  1.1600
   38POPC  H12S 5110   3.172   1.784   7.549 -0.0262 -1.7482 -0.5624
   38POPC  C213 5111   3.319   1.873   7.691 -0.3882 -0.0686 -0.3133
   38POPC  H13R 5112   3.248   1.872   7.776  0.5790  1.2839  0.5510
   38POPC  H13S 5113   3.305   1.976   7.650 -1.0285  0.3108  0.7998
   38POPC  C214 5114   3.463   1.864   7.746 -0.6669  0.1843 -0.0794
   38POPC  H14R 5115   3.532   1.926   7.685 -0.5288  0.6748  0.5665
   38POPC  H14S 5116   3.495   1.757   7.740 -1.6248 -0.2449  1.6595
   38POPC  C215 5117   3.480   1.901   7.893  0.7731 -0.7644 -0.2922
   38POPC  H15R 5118   3.388   1.866   7.944  1.0146 -0.9538  0.0164
   38POPC  H15S 5119   3.489   2.012   7.895 -0.1792 -0.6778  1.9668
   38POPC  C216 5120   3.602   1.829   7.953  0.5771 -0.0363 -0.2907
   38POPC  H16R 5121   3.690   1.859   7.891  0.7492  0.5837  0.2450
   38POPC  H16S 5122   3.579   1.724   7.926  0.2048  0.3490 -1.5415
   38POPC  C217 5123   3.619   1.845   8.110 -0.3336  0.1308  0.7228
   38POPC  H17R 5124   3.723   1.817   8.136  0.1971  1.4632  0.1270
   38POPC  H17S 5125   3.539   1.793   8.167 -2.9134  1.2930 -1.5985
   38POPC  C218 5126   3.605   1.992   8.149  0.0726 -0.6935 -0.0751
   38POPC  H18R 5127   3.498   2.021   8.160 -0.2545 -1.5892 -0.7105
   38POPC  H18S 5128   3.657   2.058   8.076 -0.3225  0.8508  0.9931
   38POPC  H18T 5129   3.633   2.012   8.254 -4.9294 -2.2698  1.8225
   38POPC   C33 5130   2.986   2.106   6.968 -0.4084 -0.1874  0.5966
   38POPC   H3X 5131   3.028   2.207   6.949 -1.4926 -0.0273 -1.2036
   38POPC   H3Y 5132   3.077   2.042   6.978 -0.1265 -0.1799 -1.4738
   38POPC   C34 5133   2.902   2.102   7.097 -0.5357  0.3530  0.4689
   38POPC   H4X 5134   2.871   1.995   7.107  0.2210 -0.1308 -1.6378
   38POPC   H4Y 5135   2.822   2.178   7.084 -0.3063  0.5149 -0.0456
   38POPC   C35 5136   2.977   2.160   7.218 -0.0488 -0.0548  0.0925
   38POPC   H5X 5137   3.005   2.266   7.203  2.2017 -0.8135 -1.5993
   38POPC   H5Y 5138   3.074   2.108   7.235  1.1926  1.6219 -1.4637
   38POPC   C36 5139   2.907   2.138   7.358 -0.2759 -0.2318  0.0304
   38POPC   H6X 5140   2.871   2.033   7.364  0.2925 -0.3472  2.0920
   38POPC   H6Y 5141   2.815   2.200   7.358 -0.5670 -0.6229 -1.6171
   38POPC   C37 5142   2.998   2.180   7.479  0.4911 -0.2403 -0.5843
   38POPC   H7X 5143   3.038   2.283   7.479  1.5416 -0.6083  0.9818
   38POPC   H7Y 5144   3.091   2.121   7.487  1.5466  1.5796  2.0091
   38POPC   C38 5145   2.917   2.146   7.605  0.8196  0.0518  0.7457
   38POPC   H8X 5146   2.902   2.036   7.605 -2.4921  0.3645  3.2749
   38POPC   H8Y 5147   2.815   2.187   7.585  0.8595 -0.2144 -0.0554
   38POPC   C39 5148   2.974   2.197   7.737 -0.1369  0.9858 -0.6030
   38POPC   H9X 5149   3.023   2.295   7.718 -2.8447  2.3200 -1.2776
   38POPC   H9Y 5150   3.052   2.131   7.781 -1.8914 -0.4143  0.5858
   38POPC  C310 5151   2.862   2.216   7.847  0.0825  0.7869  0.3003
   38POPC  H10X 5152   2.843   2.124   7.907  4.4823 -1.0142 -0.6628
   38POPC  H10Y 5153   2.772   2.256   7.796 -0.5804  0.3031  1.0615
   38POPC  C311 5154   2.914   2.325   7.943  0.0540 -0.0426 -0.5384
   38POPC  H11X 5155   2.954   2.405   7.877  2.6842 -1.7176 -1.1425
   38POPC  H11Y 5156   3.006   2.290   7.996 -1.0805 -0.3982  1.2868
   38POPC  C312 5157   2.803   2.378   8.035  0.9157 -0.4884 -0.0845
   38POPC  H12X 5158   2.779   2.297   8.107  0.1080  1.5336  2.0777
   38POPC  H12Y 5159   2.719   2.384   7.962  2.6081  0.5768 -2.0705
   38POPC  C313 5160   2.819   2.514   8.099  0.7003  0.6990 -0.2711
   38POPC  H13X 5161   2.802   2.578   8.010  0.1884  0.2775 -0.4848
   38POPC  H13Y 5162   2.923   2.518   8.138  1.1041  0.4062 -1.3079
   38POPC  C314 5163   2.712   2.538   8.210 -0.4588 -0.4426 -0.1270
   38POPC  H14X 5164   2.616   2.545   8.155 -2.2457 -0.1206  2.8110
   38POPC  H14Y 5165   2.739   2.639   8.249 -0.9113 -0.6164  0.6630
   38POPC  C315 5166   2.721   2.445   8.334  0.0540  0.1627  0.1288
   38POPC  H15X 5167   2.825   2.421   8.366  0.9911  4.1844  0.6390
   38POPC  H15Y 5168   2.666   2.354   8.302  0.4649 -0.6800  1.7203
   38POPC  C316 5169   2.662   2.503   8.463  0.3504 -0.2100 -0.4654
   38POPC  H16X 5170   2.712   2.589   8.513  0.5600 -1.6874  2.0296
   38POPC  H16Y 5171   2.654   2.427   8.543 -2.3259  0.1679 -0.2957
   38POPC  H16Z 5172   2.567   2.559   8.448  0.5326  1.1815  2.6621
   39POPC     N 5173   2.221   5.087   6.175 -0.2709  0.0897  0.1740
   39POPC   C12 5174   2.173   5.204   6.253 -0.4674  0.3043 -0.3303
   39POPC  H12A 5175   2.095   5.262   6.206  1.0272  3.4450  0.8033
   39POPC  H12B 5176   2.257   5.272   6.251 -0.9000  1.2570  4.0257
   39POPC   C13 5177   2.257   5.133   6.032 -0.1165 -0.2381  0.3479
   39POPC  H13A 5178   2.306   5.058   5.972  0.6553  1.2148 -0.9205
   39POPC  H13B 5179   2.172   5.171   5.977 -0.2477  0.0521  0.7407
   39POPC  H13C 5180   2.335   5.208   6.032 -0.1128 -0.2258 -0.9897
   39POPC   C14 5181   2.345   5.026   6.232  0.2261  0.9672 -0.4896
   39POPC  H14A 5182   2.373   4.935   6.181  0.0949  1.8320 -2.1961
   39POPC  H14B 5183   2.428   5.095   6.219 -0.3468  1.6094 -0.8465
   39POPC  H14C 5184   2.333   5.003   6.336 -0.8683  0.9471 -0.6167
   39POPC   C15 5185   2.111   4.983   6.153  0.2607 -0.2640  0.1970
   39POPC  H15A 5186   2.145   4.890   6.111 -1.1560  0.4681 -2.8084
   39POPC  H15B 5187   2.025   5.026   6.103  0.2297 -0.5645 -0.0084
   39POPC  H15C 5188   2.088   4.947   6.252 -2.5236 -0.0711 -0.2944
   39POPC   C11 5189   2.124   5.181   6.397 -0.8152 -0.1148 -0.4000
   39POPC  H11A 5190   2.122   5.281   6.444  2.7586  0.2409 -0.7004
   39POPC  H11B 5191   2.209   5.129   6.447 -0.0257  0.8491 -0.7018
   39POPC     P 5192   1.869   5.177   6.346 -0.2816  0.6697 -0.1609
   39POPC   O13 5193   1.800   5.077   6.267 -0.2182 -0.5783  0.6314
   39POPC   O14 5194   1.896   5.309   6.291  0.2297  0.0146 -0.2134
   39POPC   O12 5195   1.999   5.115   6.408  0.1800  0.3380 -0.0215
   39POPC   O11 5196   1.778   5.210   6.468 -0.0813  0.2536  0.0226
   39POPC    C1 5197   1.722   5.109   6.550  0.8663  0.3674  0.1565
   39POPC    HA 5198   1.793   5.024   6.557  0.8046  0.1393 -1.7147
   39POPC    HB 5199   1.628   5.075   6.503  0.8658  1.1599 -0.4304
   39POPC    C2 5200   1.708   5.160   6.694 -0.4718  0.3906 -0.5845
   39POPC    HS 5201   1.731   5.082   6.770 -2.1173 -0.5753 -1.0138
   39POPC   O21 5202   1.580   5.220   6.716  1.1047  0.1732  0.1337
   39POPC   C21 5203   1.491   5.120   6.748  0.2173  0.1122 -0.4107
   39POPC   O22 5204   1.513   5.000   6.750  0.1677  0.0965  0.6034
   39POPC   C22 5205   1.352   5.179   6.765  0.0588  0.4778  0.0247
   39POPC   H2R 5206   1.336   5.223   6.664 -0.2488 -1.4257 -0.7992
   39POPC   H2S 5207   1.357   5.262   6.839  0.0534 -0.0355  0.6070
   39POPC    C3 5208   1.827   5.251   6.744  0.0270  0.1873  0.1881
   39POPC    HX 5209   1.834   5.346   6.686 -0.4611  0.4969  0.6311
   39POPC    HY 5210   1.922   5.203   6.710  0.3247  0.4157  0.6887
   39POPC   O31 5211   1.843   5.273   6.888 -0.2108 -0.0351  0.0491
   39POPC   C31 5212   1.758   5.357   6.947  0.4658 -0.0907  0.2888
   39POPC   O32 5213   1.681   5.436   6.893 -0.6968  0.0742 -0.0788
   39POPC   C32 5214   1.758   5.343   7.099  0.4692 -0.6792  0.1591
   39POPC   H2X 5215   1.842   5.403   7.139 -0.6410  0.1781  1.2996
   39POPC   H2Y 5216   1.662   5.390   7.131 -0.5399 -1.3822 -1.6926
   39POPC   C23 5217   1.255   5.064   6.811 -1.1437 -0.2238  0.6681
   39POPC   H3R 5218   1.273   4.975   6.746 -1.7602  1.8744 -2.5772
   39POPC   H3S 5219   1.149   5.093   6.794 -0.7158  0.1311 -1.7798
   39POPC   C24 5220   1.260   5.021   6.953  0.4620  0.2700  0.2865
   39POPC   H4R 5221   1.238   5.117   7.006 -2.7066  0.2072 -0.6849
   39POPC   H4S 5222   1.358   4.985   6.990 -0.0459 -1.4963 -0.0010
   39POPC   C25 5223   1.145   4.925   6.986 -0.2363  0.6137  0.3933
   39POPC   H5R 5224   1.058   4.976   6.941 -0.6201 -0.3225  0.0444
   39POPC   H5S 5225   1.150   4.909   7.096  3.3391  1.2652  0.4586
   39POPC   C26 5226   1.168   4.789   6.935  0.4058  0.7789  0.6059
   39POPC   H6R 5227   1.168   4.795   6.824  2.3556 -1.2620  0.4269
   39POPC   H6S 5228   1.078   4.728   6.958  0.1738 -0.1845 -2.3680
   39POPC   C27 5229   1.299   4.720   6.987  0.9487 -0.4748  0.2329
   39POPC   H7R 5230   1.304   4.732   7.097 -3.4574 -1.9228  0.7924
   39POPC   H7S 5231   1.388   4.767   6.941  0.0809 -0.3933 -1.4615
   39POPC   C28 5232   1.316   4.565   6.959  0.6843  0.1647 -0.5289
   39POPC   H8R 5233   1.414   4.541   7.008  1.1487  1.5049 -0.7571
   39POPC   H8S 5234   1.345   4.545   6.854 -1.9415  1.2753 -1.5398
   39POPC   C29 5235   1.212   4.476   7.019 -0.0290 -0.8883 -0.1216
   39POPC   H91 5236   1.176   4.413   6.937  3.0280 -1.0552 -1.4729
   39POPC  C210 5237   1.175   4.453   7.146 -0.3163 -0.0017  0.3350
   39POPC  H101 5238   1.085   4.395   7.170 -0.0353  0.8206  3.8966
   39POPC  C211 5239   1.237   4.504   7.272 -0.1078  0.3829  0.1615
   39POPC  H11R 5240   1.331   4.561   7.258  1.7128 -2.1251  1.3610
   39POPC  H11S 5241   1.269   4.419   7.335  2.0325  0.0907 -1.2338
   39POPC  C212 5242   1.143   4.591   7.354  0.2340 -0.1288 -0.3425
   39POPC  H12R 5243   1.099   4.670   7.289 -0.4272  0.4299  0.7592
   39POPC  H12S 5244   1.209   4.637   7.431  2.2983 -0.6044 -1.7341
   39POPC  C213 5245   1.045   4.510   7.436  0.3557 -0.6281  0.4918
   39POPC  H13R 5246   1.086   4.419   7.485  0.7087 -0.1330  1.1370
   39POPC  H13S 5247   0.966   4.465   7.372  1.2979  0.2921 -1.4123
   39POPC  C214 5248   0.984   4.581   7.562 -1.1634  0.2305 -0.2573
   39POPC  H14R 5249   0.893   4.525   7.592 -0.3380 -0.6781  0.6202
   39POPC  H14S 5250   0.968   4.687   7.533  0.7194  0.8201  0.6608
   39POPC  C215 5251   1.084   4.572   7.680 -0.1991  0.0982  0.4512
   39POPC  H15R 5252   1.177   4.626   7.651  0.0632 -0.4679  0.2195
   39POPC  H15S 5253   1.106   4.464   7.693 -1.1128 -0.0123  1.1374
   39POPC  C216 5254   1.041   4.621   7.815 -0.1699  0.2296 -0.0449
   39POPC  H16R 5255   0.959   4.557   7.853 -0.2872 -0.0714 -0.8046
   39POPC  H16S 5256   1.001   4.725   7.810  1.8817  1.0492 -0.7167
   39POPC  C217 5257   1.172   4.622   7.902  0.1401  0.3946  0.5894
   39POPC  H17R 5258   1.254   4.678   7.852  1.0520  0.2258  1.8515
   39POPC  H17S 5259   1.215   4.521   7.920  0.2541  0.4250  0.4921
   39POPC  C218 5260   1.153   4.679   8.042  0.1496  0.0739  0.0378
   39POPC  H18R 5261   1.243   4.694   8.105  0.2921 -1.4780  0.2431
   39POPC  H18S 5262   1.084   4.616   8.102 -2.1126  1.6577 -0.7625
   39POPC  H18T 5263   1.099   4.775   8.027  0.2608  0.3861  1.5573
   39POPC   C33 5264   1.782   5.200   7.151  0.5607 -0.0902 -0.2936
   39POPC   H3X 5265   1.800   5.210   7.260  0.3551 -2.3255 -0.0144
   39POPC   H3Y 5266   1.873   5.151   7.111  2.4078  1.8486  1.3386
   39POPC   C34 5267   1.654   5.108   7.128 -0.2760  0.1518  0.1819
   39POPC   H4X 5268   1.639   5.098   7.018 -0.5737  0.6593  0.1694
   39POPC   H4Y 5269   1.565   5.165   7.165 -0.2818  1.8236 -2.1940
   39POPC   C35 5270   1.670   4.970   7.196 -0.2038 -0.8353  0.2622
   39POPC   H5X 5271   1.735   4.980   7.285  0.0707  1.0183 -0.1192
   39POPC   H5Y 5272   1.711   4.899   7.120  2.6331  1.2402 -0.2976
   39POPC   C36 5273   1.536   4.914   7.244  0.3773  0.3056  0.3087
   39POPC   H6X 5274   1.554   4.806   7.264 -1.0076 -0.6819 -3.1193
   39POPC   H6Y 5275   1.468   4.918   7.156  1.6594 -0.2297 -0.7380
   39POPC   C37 5276   1.485   4.984   7.362 -0.3471 -0.1647 -0.2082
   39POPC   H7X 5277   1.441   5.081   7.330 -1.6873 -0.1058  1.6245
   39POPC   H7Y 5278   1.566   5.010   7.435 -0.3757  0.9987 -0.5703
   39POPC   C38 5279   1.381   4.917   7.445 -0.2948  0.1618  0.4764
   39POPC   H8X 5280   1.407   4.809   7.440  1.7313  0.5806  0.8976
   39POPC   H8Y 5281   1.285   4.933   7.391  0.8637  2.4744 -1.0611
   39POPC   C39 5282   1.374   4.956   7.595  0.4250 -0.4500  0.2877
   39POPC   H9X 5283   1.271   4.967   7.635 -0.6631  0.5446 -2.5083
   39POPC   H9Y 5284   1.418   5.058   7.606  2.6362 -1.4081  0.8245
   39POPC  C310 5285   1.458   4.863   7.679 -0.0162 -0.0763 -0.3250
   39POPC  H10X 5286   1.563   4.851   7.643 -0.0079 -1.1013  0.0039
   39POPC  H10Y 5287   1.421   4.758   7.682 -1.1250  0.2998  2.6187
   39POPC  C311 5288   1.463   4.910   7.830 -0.2383  0.0138 -0.5045
   39POPC  H11X 5289   1.357   4.919   7.862 -0.7809  1.3489 -2.4994
   39POPC  H11Y 5290   1.521   5.004   7.840 -1.5520  1.0141 -1.8093
   39POPC  C312 5291   1.537   4.808   7.924  0.5536 -0.0440  0.1389
   39POPC  H12X 5292   1.640   4.791   7.885 -0.0483 -2.0201 -0.6947
   39POPC  H12Y 5293   1.488   4.709   7.915  1.6328 -0.5800 -0.0178
   39POPC  C313 5294   1.540   4.856   8.076  0.7294 -0.5318 -0.0604
   39POPC  H13X 5295   1.440   4.899   8.098  0.9456  0.0758 -0.2225
   39POPC  H13Y 5296   1.609   4.940   8.097  0.6140 -0.6079  0.6425
   39POPC  C314 5297   1.568   4.745   8.177 -0.1912 -0.1522  0.6979
   39POPC  H14X 5298   1.505   4.656   8.157 -1.4871  0.9820 -0.3705
   39POPC  H14Y 5299   1.540   4.785   8.277  0.8610  0.7801  0.6375
   39POPC  C315 5300   1.712   4.713   8.183 -0.1473 -0.2493  0.6534
   39POPC  H15X 5301   1.757   4.809   8.216 -0.7352  0.5628 -0.8321
   39POPC  H15Y 5302   1.751   4.677   8.086 -0.0557  0.4070  0.4470
   39POPC  C316 5303   1.730   4.603   8.284 -0.2245 -0.3979  0.2790
   39POPC  H16X 5304   1.706   4.655   8.379 -2.0976  0.2159 -0.4880
   39POPC  H16Y 5305   1.837   4.574   8.297 -0.0398  0.6832  1.2889
   39POPC  H16Z 5306   1.674   4.509   8.262  1.3183 -0.7345 -2.6384
   40POPC     N 5307   0.873   1.878   6.140 -0.0203  0.5908  0.4301
   40POPC   C12 5308   0.734   1.901   6.200  0.4471 -0.0917 -0.5935
   40POPC  H12A 5309   0.685   1.805   6.197  0.9059 -0.3163 -1.5933
   40POPC  H12B 5310   0.687   1.966   6.128  0.5559 -0.0621 -0.6393
   40POPC   C13 5311   0.958   2.000   6.129  0.0907  0.2026  0.1322
   40POPC  H13A 5312   1.053   1.980   6.082  0.1753 -0.1420  0.4446
   40POPC  H13B 5313   0.908   2.059   6.053  0.2746 -2.0572 -1.8543
   40POPC  H13C 5314   0.966   2.058   6.220 -0.6336  0.5533 -0.0207
   40POPC   C14 5315   0.953   1.787   6.225 -0.3471 -0.2065 -0.2456
   40POPC  H14A 5316   0.899   1.698   6.254 -1.9290  0.8286  0.1057
   40POPC  H14B 5317   1.048   1.765   6.179  0.1990  0.3284  0.6089
   40POPC  H14C 5318   0.981   1.843   6.313  0.2159 -1.9283  0.7319
   40POPC   C15 5319   0.862   1.816   6.005 -0.1144 -0.4754 -0.0257
   40POPC  H15A 5320   0.779   1.854   5.947  0.1522 -0.5101 -0.4341
   40POPC  H15B 5321   0.835   1.713   6.018  0.8754 -1.0144 -1.8688
   40POPC  H15C 5322   0.957   1.829   5.954  2.7852 -1.3594  4.5144
   40POPC   C11 5323   0.718   1.956   6.346  0.1295  0.0351  0.0289
   40POPC  H11A 5324   0.770   1.888   6.417 -0.8228  1.4365  2.1574
   40POPC  H11B 5325   0.609   1.968   6.367  0.1437 -1.4266  1.0885
   40POPC     P 5326   0.697   2.204   6.294  0.3464  0.1523 -0.1760
   40POPC   O13 5327   0.630   2.176   6.163 -0.1853 -0.3215  0.0616
   40POPC   O14 5328   0.788   2.321   6.306  0.3951 -0.6621  0.5912
   40POPC   O12 5329   0.787   2.082   6.344 -0.1935  0.4986 -0.4738
   40POPC   O11 5330   0.583   2.222   6.402 -0.3231  0.3334 -0.1977
   40POPC    C1 5331   0.608   2.263   6.541  0.0153 -0.0233  0.3703
   40POPC    HA 5332   0.600   2.373   6.544 -1.0740  0.0364 -1.9898
   40POPC    HB 5333   0.713   2.249   6.573 -0.5654 -1.2290  1.8755
   40POPC    C2 5334   0.503   2.211   6.647  0.6334 -0.2099  0.4426
   40POPC    HS 5335   0.511   2.262   6.746  1.6226  1.1496 -0.3127
   40POPC   O21 5336   0.523   2.067   6.658  0.1015 -0.3392 -0.2018
   40POPC   C21 5337   0.626   2.028   6.732 -0.7277 -0.0853 -0.0770
   40POPC   O22 5338   0.702   2.101   6.799  0.4658 -0.3274  0.2408
   40POPC   C22 5339   0.633   1.875   6.743 -0.4837 -0.4306  0.4817
   40POPC   H2R 5340   0.693   1.847   6.654 -0.5421 -1.7732  0.8483
   40POPC   H2S 5341   0.535   1.830   6.718 -0.0324 -1.2807  0.2268
   40POPC    C3 5342   0.363   2.232   6.587  0.0339 -0.1431  0.0810
   40POPC    HX 5343   0.335   2.156   6.511  1.4096 -2.2201  1.5660
   40POPC    HY 5344   0.363   2.326   6.527 -0.8686  0.2047  0.5940
   40POPC   O31 5345   0.254   2.233   6.688  0.2892 -0.1032  0.2211
   40POPC   C31 5346   0.227   2.122   6.737  0.7475 -0.0531 -0.0271
   40POPC   O32 5347   0.257   2.006   6.696  0.6563 -0.5478  0.0359
   40POPC   C32 5348   0.143   2.150   6.863  0.1991  0.1999 -0.0958
   40POPC   H2X 5349   0.037   2.163   6.833 -0.3638 -1.0092  1.2369
   40POPC   H2Y 5350   0.199   2.235   6.908  3.7322 -1.5488 -0.8427
   40POPC   C23 5351   0.684   1.823   6.879 -0.5182 -0.6473 -0.7476
   40POPC   H3R 5352   0.784   1.867   6.898 -0.6535 -0.5748 -0.2000
   40POPC   H3S 5353   0.693   1.712   6.873 -0.7614 -0.6717 -0.6735
   40POPC   C24 5354   0.587   1.851   6.998  0.2745 -0.4738  0.3800
   40POPC   H4R 5355   0.481   1.831   6.974  0.4158 -0.5574 -0.2030
   40POPC   H4S 5356   0.602   1.956   7.029  0.4184  1.0338 -4.0497
   40POPC   C25 5357   0.636   1.768   7.116 -0.0734 -0.1796 -0.7068
   40POPC   H5R 5358   0.746   1.775   7.121  0.2260 -3.1781 -1.2184
   40POPC   H5S 5359   0.618   1.659   7.104  3.8074 -1.1217  0.8467
   40POPC   C26 5360   0.564   1.797   7.250 -0.4342 -0.0943 -0.0425
   40POPC   H6R 5361   0.456   1.777   7.235 -0.6293  1.7924 -1.6930
   40POPC   H6S 5362   0.577   1.900   7.290  0.8002 -0.2110 -0.0986
   40POPC   C27 5363   0.610   1.708   7.365 -0.4466 -0.1386 -0.4065
   40POPC   H7R 5364   0.719   1.720   7.382 -1.0014  2.4764  2.2385
   40POPC   H7S 5365   0.584   1.603   7.339  0.1357 -0.6232  0.8631
   40POPC   C28 5366   0.551   1.737   7.506  0.1637  0.8665  0.2301
   40POPC   H8R 5367   0.440   1.726   7.508  0.2434 -0.0387 -0.0483
   40POPC   H8S 5368   0.573   1.846   7.514  1.6865  0.6659 -0.9479
   40POPC   C29 5369   0.629   1.675   7.620  0.7004  0.4840 -0.3301
   40POPC   H91 5370   0.737   1.658   7.615  0.2436 -2.9862 -0.5911
   40POPC  C210 5371   0.573   1.634   7.734 -0.0787 -0.9017  0.5805
   40POPC  H101 5372   0.643   1.596   7.810  0.5463  0.0065  0.4746
   40POPC  C211 5373   0.422   1.628   7.773 -0.8701 -0.2558 -1.2254
   40POPC  H11R 5374   0.374   1.530   7.750  0.8108 -1.0926 -1.3680
   40POPC  H11S 5375   0.363   1.703   7.717 -1.0282  0.2168 -0.4328
   40POPC  C212 5376   0.403   1.655   7.922 -0.4315 -0.3309 -0.0570
   40POPC  H12R 5377   0.297   1.676   7.948 -0.8000 -0.5040 -1.3323
   40POPC  H12S 5378   0.459   1.750   7.938 -0.2180  0.2971 -3.5542
   40POPC  C213 5379   0.463   1.552   8.018 -0.6330 -0.0673 -0.1639
   40POPC  H13R 5380   0.572   1.568   8.016 -0.7984  1.7451  1.9057
   40POPC  H13S 5381   0.431   1.446   8.002  0.6412 -0.5248  0.2084
   40POPC  C214 5382   0.414   1.573   8.164  0.0599  0.5212  0.3144
   40POPC  H14R 5383   0.311   1.534   8.176  0.4510 -0.4162  0.7177
   40POPC  H14S 5384   0.438   1.680   8.183  0.4471  0.6845 -0.9717
   40POPC  C215 5385   0.492   1.480   8.257  0.3774 -1.0347  0.1804
   40POPC  H15R 5386   0.598   1.513   8.247  0.0919 -0.1130  0.0260
   40POPC  H15S 5387   0.486   1.372   8.231  2.0233 -1.0760 -0.1182
   40POPC  C216 5388   0.444   1.496   8.407 -0.2694 -0.3591  0.2194
   40POPC  H16R 5389   0.334   1.483   8.417 -0.3170  0.9308  1.6551
   40POPC  H16S 5390   0.484   1.589   8.454  3.3336 -0.4266 -2.2717
   40POPC  C217 5391   0.512   1.387   8.495 -0.0110 -0.0453 -0.0374
   40POPC  H17R 5392   0.620   1.382   8.469 -0.4669  1.1487 -2.4436
   40POPC  H17S 5393   0.471   1.286   8.475  1.1423 -0.5096 -0.1092
   40POPC  C218 5394   0.499   1.403   8.643  0.2393 -0.0384  0.8032
   40POPC  H18R 5395   0.523   1.302   8.684  4.4300 -0.0979 -1.2578
   40POPC  H18S 5396   0.392   1.417   8.668 -0.6866 -1.0376 -2.1358
   40POPC  H18T 5397   0.560   1.486   8.683 -0.2370  1.0426 -0.6159
   40POPC   C33 5398   0.153   2.031   6.962 -0.2900 -0.0026  0.2539
   40POPC   H3X 5399   0.262   2.032   6.984  0.2470 -0.6427 -2.0464
   40POPC   H3Y 5400   0.139   1.933   6.911  0.1720 -0.4161  0.9065
   40POPC   C34 5401   0.061   2.042   7.084  0.5276  0.0040 -0.7158
   40POPC   H4X 5402  -0.045   2.039   7.051  0.7037  0.9348 -1.4065
   40POPC   H4Y 5403   0.072   2.139   7.137 -1.5907  0.4259 -0.9592
   40POPC   C35 5404   0.080   1.921   7.189  0.3205  0.2942  0.2445
   40POPC   H5X 5405   0.190   1.904   7.196  0.4012  0.8754  0.4536
   40POPC   H5Y 5406   0.021   1.841   7.139  0.2585  0.5435 -0.0773
   40POPC   C36 5407   0.006   1.957   7.321  0.1702 -0.7072 -0.2824
   40POPC   H6X 5408  -0.099   1.969   7.286 -0.7507 -1.4390  2.0545
   40POPC   H6Y 5409   0.040   2.053   7.366  0.2120 -1.9895  2.6476
   40POPC   C37 5410   0.015   1.853   7.430  0.0510  0.6647  0.2901
   40POPC   H7X 5411   0.117   1.844   7.471  0.9705 -2.7249 -2.3191
   40POPC   H7Y 5412  -0.013   1.748   7.406  0.1540  1.0809 -1.7955
   40POPC   C38 5413  -0.080   1.880   7.549 -0.1329  0.0489  0.2475
   40POPC   H8X 5414  -0.186   1.896   7.518 -0.4490 -1.0338  0.7141
   40POPC   H8Y 5415  -0.056   1.971   7.608 -3.0165 -1.1328  3.6439
   40POPC   C39 5416  -0.064   1.768   7.654 -0.1734 -0.2064  0.3249
   40POPC   H9X 5417   0.045   1.752   7.647 -0.0661  1.3525 -3.2995
   40POPC   H9Y 5418  -0.118   1.676   7.622  0.3583 -0.2120 -0.5648
   40POPC  C310 5419  -0.118   1.815   7.788  0.1737 -0.3987  0.5746
   40POPC  H10X 5420  -0.222   1.776   7.791  0.5255 -1.4223 -0.0171
   40POPC  H10Y 5421  -0.128   1.925   7.777 -2.0700 -0.7842 -2.5197
   40POPC  C311 5422  -0.043   1.777   7.916  0.1791 -0.1206 -0.1271
   40POPC  H11X 5423   0.065   1.798   7.903  0.1237  0.0451 -0.3148
   40POPC  H11Y 5424  -0.052   1.669   7.943 -0.6486  0.2003  0.9743
   40POPC  C312 5425  -0.090   1.861   8.039  0.1275  0.1634 -0.3343
   40POPC  H12X 5426  -0.202   1.864   8.041  0.0479 -1.1702 -1.3837
   40POPC  H12Y 5427  -0.062   1.968   8.027 -1.9248  0.8029  0.0537
   40POPC  C313 5428  -0.029   1.815   8.169  0.5122  0.7447 -0.6793
   40POPC  H13X 5429  -0.039   1.881   8.258  1.1203 -0.2353  0.1424
   40POPC  H13Y 5430   0.081   1.807   8.158  0.5899  0.9023 -0.0683
   40POPC  C314 5431  -0.086   1.681   8.226  0.3749  0.0419 -0.0249
   40POPC  H14X 5432  -0.085   1.604   8.146  0.4682  1.8215 -1.7960
   40POPC  H14Y 5433  -0.194   1.698   8.249  0.3126  1.5332 -1.2878
   40POPC  C315 5434  -0.009   1.631   8.344 -0.4076  0.1361  0.5578
   40POPC  H15X 5435  -0.042   1.694   8.429  0.1080  2.0397 -0.5903
   40POPC  H15Y 5436   0.098   1.656   8.325 -0.4675 -1.2272 -2.1757
   40POPC  C316 5437  -0.026   1.483   8.366  0.0070  0.1818 -0.3703
   40POPC  H16X 5438   0.008   1.416   8.284 -0.4751  1.2741 -1.4938
   40POPC  H16Y 5439  -0.135   1.460   8.367  0.0053  0.1799 -0.5766
   40POPC  H16Z 5440   0.020   1.452   8.462 -0.6058  2.7902  0.8666
   41CHL1    C3 5441   3.672   5.791  10.041  0.4030 -0.4156 -0.4925
   41CHL1    H3 5442   3.714   5.861   9.966  1.8600 -0.9855 -0.2549
   41CHL1    O3 5443   3.651   5.846  10.170  0.5512  0.4188 -0.3046
   41CHL1   H3' 5444   3.592   5.786  10.217 -1.6979  1.9727 -0.9937
   41CHL1    C4 5445   3.543   5.742   9.979 -0.1712 -0.7245 -0.0427
   41CHL1   H4A 5446   3.502   5.669  10.052 -1.6809  0.9208  0.8239
   41CHL1   H4B 5447   3.477   5.831   9.972 -1.1018 -1.4889 -1.4267
   41CHL1    C5 5448   3.563   5.673   9.847 -0.4648  0.5374  0.2619
   41CHL1    C6 5449   3.494   5.717   9.739  0.2471  0.7703  0.5393
   41CHL1    H6 5450   3.428   5.805   9.744  0.1035  0.8155 -1.3583
   41CHL1    C7 5451   3.504   5.660   9.605 -0.2866  0.0962  0.7435
   41CHL1   H7A 5452   3.417   5.656   9.536 -0.0278 -1.5191  0.4839
   41CHL1   H7B 5453   3.581   5.719   9.549  0.7711 -0.8790  1.1365
   41CHL1    C8 5454   3.574   5.519   9.597  0.1630  0.7072  0.6269
   41CHL1    H8 5455   3.503   5.447   9.641  0.3202  1.1088  1.5577
   41CHL1   C14 5456   3.613   5.490   9.452 -0.4173 -0.3401  0.3314
   41CHL1   H14 5457   3.683   5.573   9.426  1.3137 -2.2456 -1.4667
   41CHL1   C15 5458   3.505   5.501   9.340  0.2490 -0.1612  0.0934
   41CHL1  H15A 5459   3.420   5.434   9.366 -0.2717  0.9271  1.3137
   41CHL1  H15B 5460   3.483   5.609   9.325  2.4706  0.3791  0.4384
   41CHL1   C16 5461   3.569   5.432   9.217 -0.1195 -0.0518  0.0430
   41CHL1  H16A 5462   3.498   5.364   9.165 -1.3322  0.6496  0.7400
   41CHL1  H16B 5463   3.591   5.507   9.139  2.1116 -0.3214  0.3496
   41CHL1   C17 5464   3.696   5.366   9.278  0.0932 -0.5786  0.1833
   41CHL1   H17 5465   3.773   5.447   9.271  1.5431 -1.6323  2.5935
   41CHL1   C13 5466   3.683   5.353   9.433  0.2724 -0.5758  0.2354
   41CHL1   C18 5467   3.586   5.231   9.477 -0.0705 -0.7084 -0.0149
   41CHL1  H18A 5468   3.488   5.220   9.425 -0.6302  1.7865  0.3674
   41CHL1  H18B 5469   3.640   5.135   9.470  0.4530 -0.6001  2.0104
   41CHL1  H18C 5470   3.554   5.239   9.583 -1.8277 -0.5896 -0.5088
   41CHL1   C12 5471   3.811   5.366   9.524  0.3423  0.9578  0.3023
   41CHL1  H12A 5472   3.862   5.268   9.518  0.4213  0.7867  2.7913
   41CHL1  H12B 5473   3.878   5.448   9.489  0.8295  0.1405 -0.7486
   41CHL1   C11 5474   3.786   5.393   9.668 -0.1355 -0.0354 -0.1200
   41CHL1  H11A 5475   3.735   5.305   9.713  2.3918 -0.7496  1.5650
   41CHL1  H11B 5476   3.885   5.412   9.714 -0.3566 -0.0006  0.3387
   41CHL1    C9 5477   3.695   5.521   9.692 -0.1114  0.2150  1.5707
   41CHL1    H9 5478   3.765   5.596   9.650  1.0427 -1.6254  0.0388
   41CHL1   C10 5479   3.672   5.557   9.839  0.9005 -0.8268  1.1097
   41CHL1   C19 5480   3.625   5.435   9.913  0.2704  0.2096 -0.4803
   41CHL1  H19A 5481   3.539   5.399   9.853  0.8661  1.9812 -2.5436
   41CHL1  H19B 5482   3.696   5.350   9.915 -2.1924 -1.9668 -1.0908
   41CHL1  H19C 5483   3.591   5.453  10.017 -0.9868 -0.1208 -0.8264
   41CHL1    C1 5484   3.799   5.615   9.906  0.4701 -0.3180  0.1998
   41CHL1   H1A 5485   3.879   5.540   9.921  0.3584 -0.6240 -0.6817
   41CHL1   H1B 5486   3.835   5.693   9.836  0.5092 -0.1367  0.4206
   41CHL1    C2 5487   3.768   5.676  10.044  0.9400  0.1861  0.3726
   41CHL1   H2A 5488   3.854   5.714  10.103  2.5617 -2.2677 -0.2566
   41CHL1   H2B 5489   3.734   5.589  10.104  0.0943 -2.0422 -3.0360
   41CHL1   C20 5490   3.742   5.245   9.197 -0.0188  0.0564 -0.1349
   41CHL1   H20 5491   3.659   5.172   9.205  0.3889 -0.4463 -0.4031
   41CHL1   C21 5492   3.876   5.190   9.264 -0.9701  0.3396  0.8378
   41CHL1  H21A 5493   3.910   5.107   9.199  1.7333  2.5157 -0.7174
   41CHL1  H21B 5494   3.838   5.148   9.360 -2.0915  0.4297  0.4534
   41CHL1  H21C 5495   3.964   5.256   9.273  0.0929 -0.9995  0.5946
   41CHL1   C22 5496   3.756   5.276   9.049  0.0180 -0.6115 -0.2957
   41CHL1  H22A 5497   3.787   5.183   8.997  2.4065 -0.3836  0.5804
   41CHL1  H22B 5498   3.660   5.307   9.003 -0.2510 -1.2650 -0.1888
   41CHL1   C23 5499   3.866   5.375   9.004 -0.1451  0.8138 -0.9482
   41CHL1  H23A 5500   3.851   5.463   9.070 -1.7439  0.0301 -0.2259
   41CHL1  H23B 5501   3.967   5.332   9.021 -0.0054 -0.0556 -3.5922
   41CHL1   C24 5502   3.837   5.417   8.857 -0.0557 -0.2546 -0.4338
   41CHL1  H24A 5503   3.863   5.328   8.796 -0.8749 -0.5184 -0.4116
   41CHL1  H24B 5504   3.737   5.456   8.827  0.4936  1.2755 -0.3751
   41CHL1   C25 5505   3.930   5.534   8.807 -0.3353  0.1915 -0.2261
   41CHL1   H25 5506   3.899   5.620   8.870  0.0194  0.6930 -0.7334
   41CHL1   C26 5507   4.079   5.494   8.810  0.1359  0.6150 -0.3259
   41CHL1  H26A 5508   4.098   5.392   8.770 -1.0927  0.0270  0.5268
   41CHL1  H26B 5509   4.144   5.576   8.773  1.7241 -0.6221 -0.3668
   41CHL1  H26C 5510   4.109   5.484   8.917 -0.6670 -3.4409 -0.3200
   41CHL1   C27 5511   3.899   5.564   8.662 -0.0008 -0.2492  0.2372
   41CHL1  H27A 5512   3.910   5.468   8.608 -0.9999 -0.0546 -0.3517
   41CHL1  H27B 5513   3.791   5.589   8.652  0.1253  0.2058 -0.0455
   41CHL1  H27C 5514   3.963   5.647   8.625 -1.3968  1.4235  1.3842
   42CHL1    C3 5515   4.860   5.708  10.060  0.2346 -0.0951 -0.2242
   42CHL1    H3 5516   4.759   5.662  10.058 -0.4486  1.3559 -0.7456
   42CHL1    O3 5517   4.910   5.721  10.194  0.0225  0.0061 -0.3178
   42CHL1   H3' 5518   4.995   5.678  10.193 -0.6606 -1.5794 -3.1719
   42CHL1    C4 5519   4.947   5.605   9.984 -0.8838  0.1851  0.8821
   42CHL1   H4A 5520   5.054   5.621  10.008 -1.2383  2.3291  1.2430
   42CHL1   H4B 5521   4.923   5.507  10.030  0.5097 -0.4136  0.3680
   42CHL1    C5 5522   4.918   5.600   9.833  0.1031 -0.5711 -0.3227
   42CHL1    C6 5523   4.888   5.482   9.776  0.2530 -0.1211  0.1766
   42CHL1    H6 5524   4.885   5.391   9.838 -0.3081 -0.0467  0.2599
   42CHL1    C7 5525   4.867   5.468   9.632  0.0785  1.0289  0.0598
   42CHL1   H7A 5526   4.916   5.376   9.594 -1.1964  0.2834  0.1984
   42CHL1   H7B 5527   4.757   5.465   9.625  0.2088 -0.7371 -2.0916
   42CHL1    C8 5528   4.903   5.593   9.546  0.1255  0.6267 -0.0060
   42CHL1    H8 5529   5.014   5.588   9.541  0.0390 -0.5024 -1.2306
   42CHL1   C14 5530   4.847   5.584   9.405 -0.1155  0.5489  0.3174
   42CHL1   H14 5531   4.737   5.590   9.421 -0.1669 -2.4543  1.7266
   42CHL1   C15 5532   4.870   5.449   9.329  0.5364  0.1608 -0.2207
   42CHL1  H15A 5533   4.976   5.419   9.343  0.0565 -1.5049  0.0799
   42CHL1  H15B 5534   4.816   5.364   9.375  1.0093  0.5683  1.1292
   42CHL1   C16 5535   4.819   5.481   9.190  0.1029 -0.0213  0.1377
   42CHL1  H16A 5536   4.892   5.440   9.117  1.1004  0.4453  0.8624
   42CHL1  H16B 5537   4.717   5.438   9.178 -0.4069 -0.1937  3.9834
   42CHL1   C17 5538   4.808   5.643   9.188  0.8196  0.0326  0.4355
   42CHL1   H17 5539   4.700   5.667   9.204  0.3789 -1.0049 -0.8580
   42CHL1   C13 5540   4.882   5.692   9.314  0.3735  0.0562 -0.3136
   42CHL1   C18 5541   5.034   5.700   9.290  0.4251  0.2468 -0.4373
   42CHL1  H18A 5542   5.059   5.804   9.261  1.1157  0.0062 -0.7307
   42CHL1  H18B 5543   5.093   5.676   9.382 -0.2923  1.3743  0.3456
   42CHL1  H18C 5544   5.064   5.640   9.201 -1.0864  1.4671 -1.8264
   42CHL1   C12 5545   4.831   5.823   9.382  0.5872 -0.6399  0.3910
   42CHL1  H12A 5546   4.857   5.908   9.315  0.7941 -1.1585 -0.1986
   42CHL1  H12B 5547   4.721   5.808   9.380  0.5331 -0.3639 -2.1725
   42CHL1   C11 5548   4.888   5.843   9.528 -0.3072 -0.6131 -0.1239
   42CHL1  H11A 5549   4.993   5.875   9.516 -0.3237 -0.9460 -1.2628
   42CHL1  H11B 5550   4.836   5.930   9.573  0.4810  1.0456 -2.2852
   42CHL1    C9 5551   4.855   5.717   9.617  0.1770 -0.5276 -0.0899
   42CHL1    H9 5552   4.744   5.717   9.615  0.1475 -1.8356  0.4831
   42CHL1   C10 5553   4.909   5.734   9.761 -0.1492 -0.0401 -0.5919
   42CHL1   C19 5554   5.059   5.789   9.751 -0.3275  0.2104  0.2776
   42CHL1  H19A 5555   5.107   5.730   9.670 -3.1702 -0.4301 -1.0622
   42CHL1  H19B 5556   5.058   5.899   9.735  2.2547  0.7724  2.9934
   42CHL1  H19C 5557   5.108   5.754   9.845 -0.1315  0.0793  0.1304
   42CHL1    C1 5558   4.820   5.839   9.838 -0.3352 -0.5987 -0.5703
   42CHL1   H1A 5559   4.845   5.939   9.797  2.7452 -0.7951  0.5803
   42CHL1   H1B 5560   4.712   5.818   9.827 -1.3904  0.7300  4.6886
   42CHL1    C2 5561   4.861   5.848   9.985  0.5815 -0.3077 -0.2398
   42CHL1   H2A 5562   4.802   5.928  10.034  1.8269  1.8285 -2.0302
   42CHL1   H2B 5563   4.968   5.879   9.993  0.5508 -0.0719 -0.7031
   42CHL1   C20 5564   4.843   5.709   9.053  0.2791  0.3639  0.4051
   42CHL1   H20 5565   4.954   5.716   9.050  0.1703  2.1516 -1.1378
   42CHL1   C21 5566   4.795   5.857   9.042 -0.1377  0.2110 -0.7480
   42CHL1  H21A 5567   4.799   5.887   8.935 -0.8360 -1.0376 -1.1568
   42CHL1  H21B 5568   4.860   5.914   9.111 -2.6641  1.1399  1.0276
   42CHL1  H21C 5569   4.694   5.869   9.088  0.2382 -0.0122  0.1653
   42CHL1   C22 5570   4.790   5.629   8.936 -0.7162 -0.0778  0.0661
   42CHL1  H22A 5571   4.822   5.677   8.841 -1.1326 -1.4775 -0.8146
   42CHL1  H22B 5572   4.834   5.527   8.932  2.6414  1.2070  1.2430
   42CHL1   C23 5573   4.639   5.610   8.929 -0.2691  0.2204  0.0066
   42CHL1  H23A 5574   4.603   5.588   9.031  0.8106  1.2426  0.6210
   42CHL1  H23B 5575   4.588   5.704   8.900 -0.0319  0.3593  0.0396
   42CHL1   C24 5576   4.596   5.493   8.836  0.6780 -0.4235  0.2969
   42CHL1  H24A 5577   4.601   5.524   8.729 -3.8409  0.1281  0.0624
   42CHL1  H24B 5578   4.664   5.408   8.858 -1.6624 -2.7348 -0.7872
   42CHL1   C25 5579   4.448   5.456   8.854  0.2795 -0.3406  0.3574
   42CHL1   H25 5580   4.384   5.547   8.849  1.0204  0.1191 -1.2550
   42CHL1   C26 5581   4.397   5.360   8.733  0.6917 -0.1439  0.5447
   42CHL1  H26A 5582   4.455   5.265   8.730 -1.1602 -1.3369  0.6135
   42CHL1  H26B 5583   4.293   5.330   8.759  0.8328  0.2557  1.6369
   42CHL1  H26C 5584   4.404   5.418   8.638  0.1442  0.0861  0.6404
   42CHL1   C27 5585   4.429   5.382   8.993 -0.2928 -0.0764  0.0338
   42CHL1  H27A 5586   4.485   5.287   8.978  0.1117  0.5528 -3.0905
   42CHL1  H27B 5587   4.452   5.440   9.086 -0.9751  0.5250 -0.1663
   42CHL1  H27C 5588   4.325   5.346   9.007  0.4261 -1.7801  1.3905
   43CHL1    C3 5589   4.998   0.633  10.216  0.5495 -0.4270 -0.3959
   43CHL1    H3 5590   4.894   0.605  10.245  1.2139 -1.4514  1.1463
   43CHL1    O3 5591   5.073   0.673  10.331  0.2706 -0.4681 -0.2908
   43CHL1   H3' 5592   5.060   0.768  10.323  1.5953 -0.0796  1.4198
   43CHL1    C4 5593   5.083   0.524  10.139  0.4362  0.2157  0.3055
   43CHL1   H4A 5594   5.189   0.556  10.131 -0.4737  3.0411 -2.4908
   43CHL1   H4B 5595   5.071   0.441  10.212  0.0883  0.6286  0.7177
   43CHL1    C5 5596   5.041   0.487   9.996 -0.9674  0.3724  0.6856
   43CHL1    C6 5597   5.014   0.364   9.955  0.1221 -0.0824  0.1351
   43CHL1    H6 5598   5.038   0.289  10.033  0.1267  1.5402  1.7754
   43CHL1    C7 5599   4.981   0.330   9.811  0.1673 -0.6151  0.5213
   43CHL1   H7A 5600   5.043   0.245   9.775 -1.5455 -1.1406 -1.3815
   43CHL1   H7B 5601   4.873   0.307   9.802 -0.6746  3.0503 -0.1947
   43CHL1    C8 5602   5.012   0.453   9.712 -0.3806 -0.1499  0.3632
   43CHL1    H8 5603   5.123   0.454   9.698 -0.3769 -0.5047  0.3820
   43CHL1   C14 5604   4.948   0.424   9.571  0.4165  0.5276 -0.7020
   43CHL1   H14 5605   4.840   0.440   9.593  0.5755 -1.0578  1.7046
   43CHL1   C15 5606   4.958   0.282   9.512 -0.5692 -0.2362 -0.4665
   43CHL1  H15A 5607   5.057   0.238   9.538  0.2536  1.9979  0.4430
   43CHL1  H15B 5608   4.883   0.214   9.559  0.1169 -0.9797 -0.4344
   43CHL1   C16 5609   4.924   0.294   9.364  0.3557 -0.0370  0.0535
   43CHL1  H16A 5610   5.009   0.270   9.297 -0.3918 -1.0191 -0.5621
   43CHL1  H16B 5611   4.824   0.257   9.333 -0.2414  1.3687  0.2324
   43CHL1   C17 5612   4.907   0.454   9.346  1.2749  0.6810  0.8872
   43CHL1   H17 5613   4.797   0.470   9.351  0.5676 -2.7645 -0.5998
   43CHL1   C13 5614   4.977   0.518   9.462  0.3743 -0.2277 -0.4769
   43CHL1   C18 5615   5.124   0.522   9.420 -0.6390 -0.4546 -0.1341
   43CHL1  H18A 5616   5.160   0.425   9.377  0.2749 -0.6318  0.9865
   43CHL1  H18B 5617   5.140   0.600   9.342  2.1354  0.1797  0.9742
   43CHL1  H18C 5618   5.190   0.547   9.505 -0.6288  1.2912 -0.6289
   43CHL1   C12 5619   4.934   0.658   9.520 -0.3286  0.3388  0.4127
   43CHL1  H12A 5620   4.957   0.731   9.439 -0.3070  2.5355  2.3084
   43CHL1  H12B 5621   4.825   0.644   9.534 -0.1008  0.1974  2.3645
   43CHL1   C11 5622   4.999   0.693   9.656  0.1199 -0.2031  0.2310
   43CHL1  H11A 5623   5.109   0.692   9.642  0.4601 -0.5366  2.5614
   43CHL1  H11B 5624   4.962   0.792   9.689  0.3248  0.9445 -2.6713
   43CHL1    C9 5625   4.973   0.586   9.763  0.0376 -0.0398  0.2006
   43CHL1    H9 5626   4.862   0.582   9.773 -0.0507 -0.3755 -0.7717
   43CHL1   C10 5627   5.036   0.613   9.902  0.3719 -0.2882 -0.4742
   43CHL1   C19 5628   5.178   0.669   9.890  0.1127 -0.4407  0.0347
   43CHL1  H19A 5629   5.237   0.581   9.858  1.0442 -0.8167  2.5819
   43CHL1  H19B 5630   5.181   0.761   9.827  1.1430  0.0865  0.8164
   43CHL1  H19C 5631   5.220   0.701   9.988  0.1876 -0.4482  0.0057
   43CHL1    C1 5632   4.955   0.734   9.982 -0.4143  0.4373 -0.0970
   43CHL1   H1A 5633   4.957   0.827   9.922  0.5434  0.3312 -0.2509
   43CHL1   H1B 5634   4.847   0.710   9.986 -0.6037  0.8779 -1.8066
   43CHL1    C2 5635   4.994   0.761  10.129  0.5622 -0.0195  0.5770
   43CHL1   H2A 5636   4.928   0.838  10.176  2.5953  1.0446  1.8051
   43CHL1   H2B 5637   5.094   0.808  10.126  0.4676  0.1402 -0.4123
   43CHL1   C20 5638   4.933   0.499   9.197  0.1534 -0.6486  0.4330
   43CHL1   H20 5639   5.038   0.481   9.167 -0.2800 -1.5189 -0.6341
   43CHL1   C21 5640   4.914   0.648   9.171 -0.4192 -0.1598  0.6607
   43CHL1  H21A 5641   4.809   0.679   9.185  0.2188  1.6350  1.8821
   43CHL1  H21B 5642   4.938   0.671   9.065 -0.8563  0.2982  0.6603
   43CHL1  H21C 5643   4.984   0.713   9.229  0.3341 -1.1300  0.8776
   43CHL1   C22 5644   4.859   0.415   9.085 -0.3398 -0.4136 -0.3376
   43CHL1  H22A 5645   4.851   0.308   9.113 -1.5254 -0.2105  0.1262
   43CHL1  H22B 5646   4.753   0.447   9.075 -0.7034 -1.3961  0.2691
   43CHL1   C23 5647   4.918   0.435   8.942 -0.0090  0.0329  0.0630
   43CHL1  H23A 5648   4.886   0.532   8.899 -1.1679  0.0560  0.9164
   43CHL1  H23B 5649   5.028   0.445   8.950 -0.1691  4.5484 -0.7371
   43CHL1   C24 5650   4.875   0.326   8.845  0.6215 -0.7216  0.1983
   43CHL1  H24A 5651   4.910   0.227   8.882 -1.8788 -0.9373  2.3226
   43CHL1  H24B 5652   4.764   0.329   8.851  0.6603 -1.6492  2.7186
   43CHL1   C25 5653   4.922   0.368   8.699  0.8173  0.0997 -0.1008
   43CHL1   H25 5654   5.027   0.404   8.707  1.6649 -1.9701 -1.0488
   43CHL1   C26 5655   4.934   0.239   8.612  0.2862 -0.2471  0.5851
   43CHL1  H26A 5656   4.982   0.268   8.516 -1.9028  0.3641 -0.3770
   43CHL1  H26B 5657   4.991   0.151   8.649  2.0576  0.3402 -0.6191
   43CHL1  H26C 5658   4.834   0.201   8.583  0.4327  0.4511 -0.9782
   43CHL1   C27 5659   4.830   0.466   8.628  0.4387  0.7492 -0.1391
   43CHL1  H27A 5660   4.727   0.426   8.647 -0.2172  1.0663 -2.7093
   43CHL1  H27B 5661   4.846   0.572   8.656  1.8052  0.7229 -0.7854
   43CHL1  H27C 5662   4.847   0.451   8.520 -1.6280 -0.6221 -0.3404
   44CHL1    C3 5663   3.600   1.172  10.211 -0.5016 -0.9475 -0.5106
   44CHL1    H3 5664   3.661   1.251  10.163  0.5374 -1.5397 -0.2029
   44CHL1    O3 5665   3.648   1.148  10.343 -0.6179 -0.3668  0.3352
   44CHL1   H3' 5666   3.740   1.124  10.329 -0.8196 -3.0672  2.7808
   44CHL1    C4 5667   3.455   1.226  10.212 -0.4314 -0.5274  0.1194
   44CHL1   H4A 5668   3.405   1.142  10.264 -0.3713 -0.6431 -0.0097
   44CHL1   H4B 5669   3.470   1.317  10.275  1.9451 -0.5012 -0.3814
   44CHL1    C5 5670   3.410   1.245  10.067 -0.1722 -1.1541  0.9301
   44CHL1    C6 5671   3.374   1.367  10.025 -0.3190  0.0831 -0.1245
   44CHL1    H6 5672   3.371   1.450  10.096 -0.3793  0.7676 -0.9134
   44CHL1    C7 5673   3.339   1.401   9.879  0.7107  0.4767  0.1882
   44CHL1   H7A 5674   3.272   1.488   9.864  0.4327  0.0859 -0.9939
   44CHL1   H7B 5675   3.436   1.439   9.839 -0.0573 -0.3163 -2.6636
   44CHL1    C8 5676   3.305   1.273   9.797  0.6458  0.3714 -0.3399
   44CHL1    H8 5677   3.203   1.249   9.834  0.8709  1.9181  1.4291
   44CHL1   C14 5678   3.297   1.306   9.651  0.0779  0.4686 -0.6534
   44CHL1   H14 5679   3.402   1.328   9.621  0.1839  1.3991  0.3390
   44CHL1   C15 5680   3.220   1.430   9.607  0.3681  0.1305 -0.3775
   44CHL1  H15A 5681   3.132   1.425   9.674  1.0031 -0.3323  0.4472
   44CHL1  H15B 5682   3.267   1.529   9.623  0.5718  0.0966 -0.7422
   44CHL1   C16 5683   3.195   1.415   9.458  0.1800 -0.6752  0.6858
   44CHL1  H16A 5684   3.091   1.431   9.423 -0.0400  0.3837  1.7482
   44CHL1  H16B 5685   3.267   1.477   9.399 -0.8371 -0.8301 -0.7699
   44CHL1   C17 5686   3.230   1.270   9.423  0.6052 -0.7876  0.1120
   44CHL1   H17 5687   3.338   1.266   9.396  1.4165  4.0143  1.5851
   44CHL1   C13 5688   3.243   1.195   9.564  0.0124  0.1512 -0.1822
   44CHL1   C18 5689   3.100   1.145   9.613 -0.3181  0.5344 -0.2531
   44CHL1  H18A 5690   3.019   1.216   9.588  0.8920  1.1677 -2.7421
   44CHL1  H18B 5691   3.076   1.056   9.550 -3.4561  2.1899 -1.5856
   44CHL1  H18C 5692   3.103   1.109   9.718 -1.7090 -0.0663 -0.4020
   44CHL1   C12 5693   3.345   1.078   9.579 -0.0218  0.5952 -0.3155
   44CHL1  H12A 5694   3.315   0.985   9.526 -0.5669  0.5392  0.0775
   44CHL1  H12B 5695   3.428   1.125   9.523 -0.8897 -0.8908 -3.0222
   44CHL1   C11 5696   3.375   1.037   9.726  0.1965  0.3839  0.4066
   44CHL1  H11A 5697   3.287   0.982   9.764  1.9072 -0.7002  3.0933
   44CHL1  H11B 5698   3.463   0.970   9.736 -0.9393 -1.4825 -1.3095
   44CHL1    C9 5699   3.397   1.157   9.816  0.6419 -0.8163 -0.2253
   44CHL1    H9 5700   3.493   1.203   9.784  0.2123 -0.3414 -0.8541
   44CHL1   C10 5701   3.430   1.125   9.972  0.9389  0.6782 -0.0826
   44CHL1   C19 5702   3.329   1.013  10.012  0.7830  0.4713 -0.0675
   44CHL1  H19A 5703   3.231   1.062   9.998  1.0219  1.2956  1.0233
   44CHL1  H19B 5704   3.335   0.926   9.943  1.2741  0.0447  0.4942
   44CHL1  H19C 5705   3.347   0.977  10.116 -1.8705 -0.6471  0.0859
   44CHL1    C1 5706   3.580   1.068   9.984 -0.1289  0.0949 -0.3207
   44CHL1   H1A 5707   3.586   0.974   9.926  2.5290  0.7401 -1.2394
   44CHL1   H1B 5708   3.663   1.127   9.939  0.1999  0.0597  0.2333
   44CHL1    C2 5709   3.620   1.047  10.131  0.1240  0.2275  0.5103
   44CHL1   H2A 5710   3.727   1.018  10.127  0.0945  0.2395 -0.6721
   44CHL1   H2B 5711   3.561   0.959  10.166 -2.4932  1.0640 -1.5405
   44CHL1   C20 5712   3.142   1.198   9.311  0.0866 -0.5490 -0.0033
   44CHL1   H20 5713   3.038   1.210   9.349 -0.0416  3.5519 -1.1578
   44CHL1   C21 5714   3.185   1.048   9.288  0.2991  0.4482  0.4115
   44CHL1  H21A 5715   3.280   1.043   9.231  0.5520 -1.0247  0.9193
   44CHL1  H21B 5716   3.109   1.013   9.215  0.6999  0.2692  0.0769
   44CHL1  H21C 5717   3.175   0.989   9.382 -1.6528  1.6942  1.0539
   44CHL1   C22 5718   3.145   1.262   9.172  0.0636 -0.2268 -0.2643
   44CHL1  H22A 5719   3.252   1.283   9.150 -0.4394  1.9680 -0.8295
   44CHL1  H22B 5720   3.105   1.190   9.097  0.6254  0.5285 -1.3256
   44CHL1   C23 5721   3.061   1.399   9.153  0.2780  0.0255  0.3580
   44CHL1  H23A 5722   2.961   1.366   9.188 -0.5782  2.6340  0.6096
   44CHL1  H23B 5723   3.098   1.474   9.226 -0.0557 -0.2967  0.8650
   44CHL1   C24 5724   3.051   1.445   9.010 -0.4971  0.4247  0.7315
   44CHL1  H24A 5725   3.143   1.504   8.991 -0.9911  1.0915  0.3586
   44CHL1  H24B 5726   3.048   1.362   8.935 -3.0809  0.6533  0.4772
   44CHL1   C25 5727   2.937   1.535   8.982 -0.2010  0.1863 -0.7279
   44CHL1   H25 5728   2.849   1.470   9.004  1.2234 -0.8533  2.3231
   44CHL1   C26 5729   2.921   1.648   9.083 -0.0264  0.0546  0.0805
   44CHL1  H26A 5730   2.901   1.621   9.189 -0.4046  2.7734  0.7797
   44CHL1  H26B 5731   3.021   1.696   9.078 -0.0170 -0.0953 -1.3602
   44CHL1  H26C 5732   2.836   1.709   9.047 -1.3828 -1.1475  1.1511
   44CHL1   C27 5733   2.932   1.578   8.839 -0.1002 -0.6475  0.2519
   44CHL1  H27A 5734   3.016   1.649   8.821 -0.1170  0.1724  2.9948
   44CHL1  H27B 5735   2.954   1.504   8.759 -0.3268  2.5056 -3.0054
   44CHL1  H27C 5736   2.834   1.619   8.807  0.4693  0.0902 -0.6040
   45CHL1    C3 5737   3.569   6.223  10.193 -0.2092  0.2252  0.1780
   45CHL1    H3 5738   3.664   6.167  10.183 -0.8893 -0.6509 -1.9242
   45CHL1    O3 5739   3.546   6.257  10.330 -0.0456  0.3153  0.5029
   45CHL1   H3' 5740   3.456   6.293  10.332  0.6178  2.3874 -1.5488
   45CHL1    C4 5741   3.580   6.358  10.124 -0.0842  0.2303  0.3913
   45CHL1   H4A 5742   3.496   6.425  10.151  0.1108  0.8580 -0.5188
   45CHL1   H4B 5743   3.672   6.409  10.161  0.3729  0.2049 -0.6570
   45CHL1    C5 5744   3.575   6.336   9.973  0.2824 -0.0186  0.2684
   45CHL1    C6 5745   3.664   6.392   9.896  0.1897 -0.0521  0.4037
   45CHL1    H6 5746   3.740   6.457   9.942 -0.3637 -0.8831  2.6127
   45CHL1    C7 5747   3.671   6.379   9.740 -0.0749 -0.3900 -0.3983
   45CHL1   H7A 5748   3.692   6.484   9.710  2.4728  0.6039  3.9248
   45CHL1   H7B 5749   3.768   6.330   9.715 -0.7095 -1.3332 -1.0978
   45CHL1    C8 5750   3.560   6.300   9.668 -0.1842 -0.1375 -0.8791
   45CHL1    H8 5751   3.618   6.240   9.595  0.9552 -1.5096  1.0645
   45CHL1   C14 5752   3.443   6.368   9.596 -0.6166 -0.2624  0.3820
   45CHL1   H14 5753   3.370   6.404   9.671  1.8899  2.6524  1.6651
   45CHL1   C15 5754   3.485   6.486   9.507  0.1894  0.3035  0.2856
   45CHL1  H15A 5755   3.453   6.584   9.549 -0.9262  0.1310 -0.1292
   45CHL1  H15B 5756   3.596   6.486   9.498  0.2552  2.2301  0.6831
   45CHL1   C16 5757   3.420   6.459   9.367  0.0006  0.3304 -0.0972
   45CHL1  H16A 5758   3.332   6.526   9.358 -0.6307 -0.1886  1.7734
   45CHL1  H16B 5759   3.481   6.496   9.281 -3.5424  1.6925 -2.2465
   45CHL1   C17 5760   3.406   6.308   9.371 -0.0819  0.1358  0.4037
   45CHL1   H17 5761   3.506   6.263   9.355 -1.2019 -1.9981 -0.9425
   45CHL1   C13 5762   3.364   6.270   9.507 -0.0969  0.4424 -0.3072
   45CHL1   C18 5763   3.214   6.293   9.523  0.1297  0.1198  0.1904
   45CHL1  H18A 5764   3.162   6.200   9.491  0.8678 -0.6183  1.0836
   45CHL1  H18B 5765   3.183   6.322   9.626 -1.4964  1.9108 -0.7165
   45CHL1  H18C 5766   3.173   6.374   9.458 -2.5326 -1.0392  0.2775
   45CHL1   C12 5767   3.396   6.128   9.553 -0.9703 -0.0596  0.2016
   45CHL1  H12A 5768   3.321   6.065   9.500 -0.3705  0.5492 -1.4284
   45CHL1  H12B 5769   3.491   6.099   9.504 -2.3690 -2.6900 -1.1810
   45CHL1   C11 5770   3.399   6.102   9.701  0.3885  0.7604  0.4674
   45CHL1  H11A 5771   3.307   6.135   9.754 -0.9466  0.0394 -1.2915
   45CHL1  H11B 5772   3.418   5.998   9.737 -0.0721 -0.3921 -2.3016
   45CHL1    C9 5773   3.501   6.192   9.766 -0.2435  0.0679 -0.6654
   45CHL1    H9 5774   3.588   6.125   9.779 -0.2637 -0.1210 -1.4351
   45CHL1   C10 5775   3.466   6.243   9.919  0.2095  0.2097 -0.2442
   45CHL1   C19 5776   3.329   6.316   9.939 -0.7271  0.0199  0.2277
   45CHL1  H19A 5777   3.318   6.349  10.044  0.3703 -1.6784  0.9247
   45CHL1  H19B 5778   3.334   6.402   9.869  0.8738 -0.7003 -0.6091
   45CHL1  H19C 5779   3.237   6.255   9.927 -2.0005  1.8736  0.1646
   45CHL1    C1 5780   3.459   6.104  10.003  0.4815  0.2415 -0.4354
   45CHL1   H1A 5781   3.369   6.051   9.964 -1.8380  0.8333  3.5389
   45CHL1   H1B 5782   3.552   6.048   9.981 -0.0320 -0.6299 -0.4270
   45CHL1    C2 5783   3.451   6.128  10.145 -0.0819  0.3973  0.1909
   45CHL1   H2A 5784   3.448   6.033  10.202 -1.4581 -3.1150 -5.0121
   45CHL1   H2B 5785   3.356   6.174  10.178 -0.2143 -1.2359  2.3123
   45CHL1   C20 5786   3.332   6.247   9.253 -0.3567  0.9925 -0.3038
   45CHL1   H20 5787   3.307   6.142   9.278 -0.7886  1.1044 -0.2713
   45CHL1   C21 5788   3.431   6.236   9.133 -0.1956  0.6491 -0.7295
   45CHL1  H21A 5789   3.443   6.336   9.085 -0.7721  1.1594  0.1563
   45CHL1  H21B 5790   3.398   6.171   9.049 -0.1034 -0.1685 -0.1356
   45CHL1  H21C 5791   3.534   6.209   9.166 -0.1812  1.4593 -0.0857
   45CHL1   C22 5792   3.197   6.316   9.209 -0.1563  0.0410  0.2501
   45CHL1  H22A 5793   3.112   6.288   9.275  0.1294 -0.1865  0.5200
   45CHL1  H22B 5794   3.215   6.426   9.212  0.0923  0.0086  0.0519
   45CHL1   C23 5795   3.151   6.291   9.064 -0.2274 -0.4215  0.2528
   45CHL1  H23A 5796   3.186   6.189   9.039  2.0524  0.6870 -1.4007
   45CHL1  H23B 5797   3.041   6.281   9.067 -0.3613  1.0416  0.9607
   45CHL1   C24 5798   3.193   6.396   8.962 -0.3167 -0.5285 -0.1416
   45CHL1  H24A 5799   3.155   6.493   9.000 -1.1454 -0.8363 -0.1672
   45CHL1  H24B 5800   3.304   6.396   8.957 -0.2484 -1.4116  0.9558
   45CHL1   C25 5801   3.123   6.377   8.827  1.0080  0.4327 -0.1689
   45CHL1   H25 5802   3.015   6.382   8.851  0.7400 -3.3235 -0.1068
   45CHL1   C26 5803   3.162   6.479   8.719  0.5952 -0.0834 -0.1603
   45CHL1  H26A 5804   3.116   6.577   8.743  1.8053  0.9224 -1.7645
   45CHL1  H26B 5805   3.268   6.509   8.702  0.2018  0.7694 -1.2397
   45CHL1  H26C 5806   3.116   6.442   8.625  0.4322 -0.0816 -0.0813
   45CHL1   C27 5807   3.139   6.233   8.773  0.1895 -1.2409 -0.6436
   45CHL1  H27A 5808   3.093   6.225   8.672 -3.5504 -1.2565  0.9137
   45CHL1  H27B 5809   3.246   6.208   8.758  0.4870  0.1413 -0.9605
   45CHL1  H27C 5810   3.083   6.158   8.834 -0.4348 -2.1948 -2.3146
   46CHL1    C3 5811   4.068   3.212  10.218 -0.4812 -0.6846  0.5063
   46CHL1    H3 5812   4.092   3.107  10.189 -2.1991 -0.8752 -0.3887
   46CHL1    O3 5813   4.084   3.228  10.356  0.1036 -0.5055  0.5714
   46CHL1   H3' 5814   4.091   3.323  10.366 -1.6657  0.0781 -2.4195
   46CHL1    C4 5815   4.175   3.307  10.150  0.3698 -0.6805  0.0576
   46CHL1   H4A 5816   4.146   3.411  10.177 -1.9194 -1.2334 -0.1223
   46CHL1   H4B 5817   4.275   3.282  10.192 -0.0746 -2.2235  0.2645
   46CHL1    C5 5818   4.160   3.296  10.001 -0.4112 -0.2359  0.1690
   46CHL1    C6 5819   4.260   3.257   9.920  0.4047  0.3652  0.0878
   46CHL1    H6 5820   4.355   3.234   9.968  0.3156  1.3939  0.7989
   46CHL1    C7 5821   4.249   3.235   9.775 -0.6299  0.7493  0.3320
   46CHL1   H7A 5822   4.345   3.260   9.725 -0.4320 -1.5549 -0.5874
   46CHL1   H7B 5823   4.245   3.129   9.740 -0.5540  1.4467 -2.0131
   46CHL1    C8 5824   4.128   3.306   9.706  1.2216 -0.2338 -0.3927
   46CHL1    H8 5825   4.152   3.415   9.705  1.9953 -0.3476  1.6098
   46CHL1   C14 5826   4.102   3.262   9.566 -0.1638 -1.1216 -0.1850
   46CHL1   H14 5827   4.073   3.155   9.571  3.1055 -2.0501  1.2997
   46CHL1   C15 5828   4.219   3.251   9.471  0.6607 -1.0939 -0.7561
   46CHL1  H15A 5829   4.293   3.322   9.513 -1.5648  1.8222 -1.4296
   46CHL1  H15B 5830   4.253   3.145   9.469  1.0760 -0.9578 -1.0158
   46CHL1   C16 5831   4.156   3.283   9.339 -0.4608 -0.1487 -0.0166
   46CHL1  H16A 5832   4.211   3.373   9.304  0.3313 -0.4239  0.4874
   46CHL1  H16B 5833   4.170   3.205   9.260 -0.4783  1.0901 -1.2788
   46CHL1   C17 5834   4.008   3.298   9.357 -0.4203  0.2325  0.1508
   46CHL1   H17 5835   3.959   3.198   9.361 -1.2817  0.6744  0.9103
   46CHL1   C13 5836   3.998   3.355   9.498  0.4146  0.6034  0.2015
   46CHL1   C18 5837   4.031   3.507   9.503  0.5989  0.6186 -0.4145
   46CHL1  H18A 5838   3.942   3.558   9.461 -1.1039 -2.5433 -0.8955
   46CHL1  H18B 5839   4.042   3.538   9.609  0.6382 -1.9808  0.3920
   46CHL1  H18C 5840   4.122   3.535   9.445  0.1827  3.7679  0.2399
   46CHL1   C12 5841   3.870   3.325   9.572 -0.2784 -0.2507 -0.0542
   46CHL1  H12A 5842   3.795   3.378   9.510  3.2275 -1.0622 -5.7318
   46CHL1  H12B 5843   3.845   3.219   9.549  0.6325 -0.6090  0.5553
   46CHL1   C11 5844   3.872   3.362   9.722 -0.7151  0.6405  0.1012
   46CHL1  H11A 5845   3.877   3.473   9.722  2.2578  0.5860  0.6269
   46CHL1  H11B 5846   3.779   3.325   9.770 -0.8938  0.6762 -0.2097
   46CHL1    C9 5847   3.997   3.290   9.793  0.0578  0.0884  0.1620
   46CHL1    H9 5848   3.980   3.180   9.787  1.2938 -0.0511 -1.2984
   46CHL1   C10 5849   4.018   3.325   9.946 -0.3983 -0.4409  0.2890
   46CHL1   C19 5850   4.004   3.471   9.972 -0.1288 -0.1577  0.1967
   46CHL1  H19A 5851   4.009   3.504  10.078  2.6541  0.8994 -0.1609
   46CHL1  H19B 5852   4.085   3.526   9.920 -1.8904  1.4281 -1.0242
   46CHL1  H19C 5853   3.920   3.518   9.916  2.0993  0.8413 -2.5585
   46CHL1    C1 5854   3.902   3.248  10.016 -0.1705 -0.2107 -0.6767
   46CHL1   H1A 5855   3.802   3.297  10.007  0.0642  0.4546  0.1908
   46CHL1   H1B 5856   3.885   3.144   9.980 -0.1338  0.1025 -1.6229
   46CHL1    C2 5857   3.923   3.254  10.167  0.0742  0.5233 -0.2824
   46CHL1   H2A 5858   3.857   3.177  10.213 -1.9731  1.8462 -0.8305
   46CHL1   H2B 5859   3.899   3.360  10.188 -0.6551  0.4536 -0.7162
   46CHL1   C20 5860   3.939   3.378   9.242 -0.4826  0.5474 -0.4398
   46CHL1   H20 5861   3.976   3.483   9.243 -0.6481  0.6626 -2.7755
   46CHL1   C21 5862   3.784   3.370   9.248 -0.2016 -0.7316 -0.3438
   46CHL1  H21A 5863   3.759   3.452   9.318  1.0569 -1.3366  0.8487
   46CHL1  H21B 5864   3.755   3.268   9.281 -1.4325  0.0535  1.1085
   46CHL1  H21C 5865   3.743   3.387   9.146  1.5405 -0.3543 -1.0241
   46CHL1   C22 5866   3.975   3.341   9.090 -0.2031 -0.1448  0.4996
   46CHL1  H22A 5867   3.913   3.402   9.021  0.3054 -0.2064 -0.0201
   46CHL1  H22B 5868   4.083   3.359   9.072 -0.9034  1.1539 -3.2707
   46CHL1   C23 5869   3.958   3.197   9.036  1.2068  0.4169 -0.5371
   46CHL1  H23A 5870   4.037   3.136   9.085  0.6094 -1.1760 -1.4876
   46CHL1  H23B 5871   3.867   3.156   9.084  2.5614 -0.0710  1.7727
   46CHL1   C24 5872   3.972   3.169   8.889  0.6961  0.3593 -0.2057
   46CHL1  H24A 5873   3.927   3.072   8.859 -0.2319  0.6852  0.0747
   46CHL1  H24B 5874   3.914   3.250   8.840 -0.5667 -0.2849  0.1798
   46CHL1   C25 5875   4.115   3.190   8.835 -0.1260 -0.0295 -0.1820
   46CHL1   H25 5876   4.150   3.268   8.906  0.5570  0.0171 -0.5632
   46CHL1   C26 5877   4.193   3.066   8.866  0.0602  0.2381  0.0704
   46CHL1  H26A 5878   4.140   2.979   8.822  3.3253 -1.4169 -0.8729
   46CHL1  H26B 5879   4.292   3.074   8.817 -0.4398  0.7084 -0.8714
   46CHL1  H26C 5880   4.212   3.037   8.972  0.0020 -0.5006 -0.1166
   46CHL1   C27 5881   4.125   3.220   8.683  0.5311  0.0721 -0.5989
   46CHL1  H27A 5882   4.090   3.138   8.617  0.5946 -1.2186  0.9159
   46CHL1  H27B 5883   4.050   3.300   8.661  0.3911  0.9575  2.5611
   46CHL1  H27C 5884   4.225   3.256   8.651 -0.1360  1.7225 -0.9516
   47CHL1    C3 5885   5.815   5.724  10.089 -0.3635 -0.0650 -0.1506
   47CHL1    H3 5886   5.810   5.616  10.117 -0.4439  0.0369  0.2273
   47CHL1    O3 5887   5.824   5.801  10.210  0.7612  0.5410  0.5157
   47CHL1   H3' 5888   5.742   5.785  10.256  1.6787 -0.3974  1.8959
   47CHL1    C4 5889   5.937   5.760  10.007 -0.4697  0.0212 -0.2077
   47CHL1   H4A 5890   5.918   5.869   9.993  1.2045  0.5855  1.4408
   47CHL1   H4B 5891   6.029   5.741  10.067 -0.1338  0.7381 -0.4756
   47CHL1    C5 5892   5.943   5.700   9.873 -0.1622 -0.1021 -0.4954
   47CHL1    C6 5893   6.045   5.618   9.836  0.0969 -0.6306  0.2833
   47CHL1    H6 5894   6.128   5.614   9.908 -0.1483 -2.0179  0.5283
   47CHL1    C7 5895   6.060   5.549   9.698 -0.2787  1.0471 -0.0602
   47CHL1   H7A 5896   6.159   5.566   9.650 -1.6416  0.5507 -3.2820
   47CHL1   H7B 5897   6.044   5.440   9.713  1.5428  0.4301 -2.0337
   47CHL1    C8 5898   5.964   5.596   9.594  0.9957 -0.4314  0.1952
   47CHL1    H8 5899   5.986   5.698   9.556 -0.3942 -0.4784 -0.7954
   47CHL1   C14 5900   5.951   5.493   9.483 -1.3158  0.2934  0.1782
   47CHL1   H14 5901   5.908   5.404   9.532  0.5405 -1.5489 -1.3541
   47CHL1   C15 5902   6.072   5.435   9.420 -0.4208  0.3884  0.4615
   47CHL1  H15A 5903   6.144   5.510   9.382  0.5500  0.2308  1.9157
   47CHL1  H15B 5904   6.114   5.363   9.493  0.0660  2.1827  2.0191
   47CHL1   C16 5905   6.023   5.356   9.300 -0.0757 -0.1362 -0.3137
   47CHL1  H16A 5906   6.087   5.384   9.214 -0.3465 -0.2724 -0.5600
   47CHL1  H16B 5907   6.042   5.247   9.312 -1.9650 -0.5285 -0.6835
   47CHL1   C17 5908   5.870   5.392   9.288 -0.1833  0.0819 -0.7485
   47CHL1   H17 5909   5.801   5.315   9.328 -1.3489  0.5806 -1.7212
   47CHL1   C13 5910   5.847   5.518   9.371  0.1065  0.2309 -0.1885
   47CHL1   C18 5911   5.885   5.645   9.292  0.3277  0.4517  0.5556
   47CHL1  H18A 5912   5.896   5.734   9.358  1.6757  0.4279  0.3925
   47CHL1  H18B 5913   5.987   5.643   9.247 -0.4145  1.2239 -1.2754
   47CHL1  H18C 5914   5.813   5.650   9.207  0.2236 -2.8575  0.3318
   47CHL1   C12 5915   5.710   5.530   9.441 -1.1185  0.5346  0.7365
   47CHL1  H12A 5916   5.626   5.554   9.373 -3.1409  0.7358  3.2109
   47CHL1  H12B 5917   5.690   5.433   9.491 -0.0151  0.4747  1.0977
   47CHL1   C11 5918   5.712   5.634   9.553  0.4177  0.2879  0.5492
   47CHL1  H11A 5919   5.702   5.733   9.504 -3.4995  0.1462  0.7363
   47CHL1  H11B 5920   5.621   5.612   9.613  1.7960  0.5816  2.8587
   47CHL1    C9 5921   5.824   5.616   9.658 -0.5812  0.2594  0.7087
   47CHL1    H9 5922   5.808   5.517   9.708  0.1041 -0.1517  0.1348
   47CHL1   C10 5923   5.821   5.719   9.778  0.7768  0.0591 -0.3236
   47CHL1   C19 5924   5.828   5.861   9.726  0.8723  0.0022  0.6509
   47CHL1  H19A 5925   5.847   5.932   9.809  0.7456  1.4701 -0.5570
   47CHL1  H19B 5926   5.905   5.877   9.648  1.1053  2.5673  1.3174
   47CHL1  H19C 5927   5.742   5.900   9.669  1.2850  0.0304  0.0420
   47CHL1    C1 5928   5.683   5.703   9.863  0.2783 -0.2290  0.2159
   47CHL1   H1A 5929   5.597   5.748   9.810 -1.7645 -0.5632  3.0862
   47CHL1   H1B 5930   5.672   5.593   9.875  0.1687 -0.0338  2.0593
   47CHL1    C2 5931   5.693   5.762  10.010 -0.2062 -0.7608 -0.0166
   47CHL1   H2A 5932   5.594   5.745  10.057  0.3736  0.6354  1.8316
   47CHL1   H2B 5933   5.686   5.872   9.996 -1.3980 -0.4848  2.2861
   47CHL1   C20 5934   5.816   5.397   9.141 -0.1256 -0.4546 -0.2380
   47CHL1   H20 5935   5.865   5.485   9.094  1.2342 -1.1977 -0.2750
   47CHL1   C21 5936   5.668   5.433   9.131 -0.0031  0.4902  0.2231
   47CHL1  H21A 5937   5.630   5.427   9.026  0.1414 -1.1364  0.2462
   47CHL1  H21B 5938   5.647   5.534   9.171 -1.9716  0.0953  0.2886
   47CHL1  H21C 5939   5.598   5.364   9.183  0.2554  2.0793  2.8344
   47CHL1   C22 5940   5.857   5.272   9.062  0.2839  0.2634 -0.8417
   47CHL1  H22A 5941   5.968   5.270   9.064  0.3569 -0.6942 -2.8887
   47CHL1  H22B 5942   5.819   5.184   9.118  2.0297  0.6188  0.9974
   47CHL1   C23 5943   5.802   5.263   8.918 -0.6325 -0.1614  0.2086
   47CHL1  H23A 5944   5.696   5.231   8.925 -0.7784  0.6533  2.8094
   47CHL1  H23B 5945   5.802   5.365   8.874 -2.0728  0.8486  2.3598
   47CHL1   C24 5946   5.891   5.169   8.831  0.4377 -0.2577 -0.9867
   47CHL1  H24A 5947   5.998   5.194   8.845  0.3491 -1.2463  2.5426
   47CHL1  H24B 5948   5.880   5.069   8.878  0.4615 -0.0980 -0.6433
   47CHL1   C25 5949   5.838   5.165   8.687  0.4257 -0.0156  0.7858
   47CHL1   H25 5950   5.811   5.268   8.654  1.7056  0.5638  1.4776
   47CHL1   C26 5951   5.946   5.120   8.590 -0.5151  0.3396  0.1659
   47CHL1  H26A 5952   5.913   5.111   8.484  0.8920 -0.3047 -0.2548
   47CHL1  H26B 5953   5.982   5.016   8.609 -0.2191  0.2928 -0.5913
   47CHL1  H26C 5954   6.033   5.189   8.590 -1.1250  1.1376 -1.1889
   47CHL1   C27 5955   5.709   5.074   8.671 -0.2499 -0.0938 -0.4678
   47CHL1  H27A 5956   5.619   5.116   8.721 -0.3218  2.6667 -2.6876
   47CHL1  H27B 5957   5.693   5.072   8.561  2.8872 -0.4015 -1.0065
   47CHL1  H27C 5958   5.725   4.971   8.710 -0.1936 -0.9819 -2.6812
   48CHL1    C3 5959   5.324   0.177  10.149 -0.0415  0.5375  0.5324
   48CHL1    H3 5960   5.219   0.213  10.149  0.1433  1.1216 -0.3834
   48CHL1    O3 5961   5.364   0.159  10.279  0.1898 -0.4630  0.2674
   48CHL1   H3' 5962   5.338   0.070  10.307 -0.7791  0.4956  2.7310
   48CHL1    C4 5963   5.334   0.041  10.070 -0.3848  0.0591 -0.0129
   48CHL1   H4A 5964   5.431  -0.007  10.094  0.8633  2.5389  0.2651
   48CHL1   H4B 5965   5.250  -0.023  10.106 -0.6974  0.5672  0.1828
   48CHL1    C5 5966   5.317   0.057   9.922  0.8301 -0.5408  0.0262
   48CHL1    C6 5967   5.228  -0.006   9.847 -0.4217  0.7976 -0.3550
   48CHL1    H6 5968   5.151  -0.072   9.888  1.3361 -1.5720 -0.6886
   48CHL1    C7 5969   5.230   0.009   9.699 -0.6822 -0.1471  0.2532
   48CHL1   H7A 5970   5.208  -0.088   9.650  0.0981  1.7792 -4.3895
   48CHL1   H7B 5971   5.142   0.071   9.673  0.0403  1.5997  1.7456
   48CHL1    C8 5972   5.350   0.080   9.633 -0.6465  0.1202 -0.7687
   48CHL1    H8 5973   5.443   0.020   9.629 -0.6443  0.1125 -0.5692
   48CHL1   C14 5974   5.318   0.116   9.492  0.6778 -0.0211  0.0696
   48CHL1   H14 5975   5.244   0.199   9.498  1.7117  0.8659  0.8749
   48CHL1   C15 5976   5.271   0.016   9.384  0.4021  0.1550 -0.2890
   48CHL1  H15A 5977   5.333  -0.076   9.383  1.2108  0.6884 -0.0271
   48CHL1  H15B 5978   5.167  -0.023   9.395  0.2140  0.1594 -1.7618
   48CHL1   C16 5979   5.290   0.086   9.251  0.3409  0.8475  0.0883
   48CHL1  H16A 5980   5.336   0.025   9.171  1.1862  1.9777 -0.3179
   48CHL1  H16B 5981   5.192   0.115   9.206  0.4002 -1.8723 -2.0254
   48CHL1   C17 5982   5.384   0.207   9.279 -0.3215 -0.4158  0.3442
   48CHL1   H17 5983   5.313   0.292   9.292 -0.4772 -0.5142  0.1293
   48CHL1   C13 5984   5.432   0.187   9.420  0.1796  0.1601 -0.7140
   48CHL1   C18 5985   5.562   0.107   9.423 -0.4626  0.4363  0.4020
   48CHL1  H18A 5986   5.600   0.095   9.527 -2.8858 -1.1642  1.1599
   48CHL1  H18B 5987   5.550   0.003   9.389 -1.8195  0.7745 -0.2083
   48CHL1  H18C 5988   5.628   0.165   9.355 -0.8176  1.6648  1.0736
   48CHL1   C12 5989   5.456   0.322   9.494  0.5546  0.2315 -0.3678
   48CHL1  H12A 5990   5.536   0.371   9.435  0.2873 -0.5233 -1.3893
   48CHL1  H12B 5991   5.374   0.397   9.487  1.5749  1.5478  1.0638
   48CHL1   C11 5992   5.493   0.301   9.641  0.4246 -0.8938  0.8806
   48CHL1  H11A 5993   5.596   0.261   9.640  0.8306  0.0488 -1.3447
   48CHL1  H11B 5994   5.490   0.398   9.695  0.3945 -1.1610  1.3651
   48CHL1    C9 5995   5.386   0.211   9.713  0.7232  0.5411  0.1412
   48CHL1    H9 5996   5.293   0.273   9.715 -0.1685 -0.7690  0.9134
   48CHL1   C10 5997   5.418   0.165   9.857 -0.2512  0.5895 -0.1141
   48CHL1   C19 5998   5.555   0.104   9.859 -0.0010 -0.4598  0.7492
   48CHL1  H19A 5999   5.574   0.013   9.798 -0.8398 -0.1157 -0.0631
   48CHL1  H19B 6000   5.630   0.177   9.823  1.6646 -1.3701  2.2464
   48CHL1  H19C 6001   5.576   0.087   9.966 -0.9713  0.1354  1.0502
   48CHL1    C1 6002   5.411   0.294   9.943  0.3879  0.5263 -0.3270
   48CHL1   H1A 6003   5.488   0.364   9.904  0.0973  0.8399 -0.3417
   48CHL1   H1B 6004   5.313   0.346   9.937  0.5831  0.8274 -0.9452
   48CHL1    C2 6005   5.421   0.280  10.097 -0.6463 -0.4011 -0.9396
   48CHL1   H2A 6006   5.412   0.377  10.151  0.1911 -0.3562 -0.8722
   48CHL1   H2B 6007   5.526   0.250  10.117 -1.6299 -2.9160  0.9354
   48CHL1   C20 6008   5.471   0.252   9.161  1.2838  0.1002  0.5054
   48CHL1   H20 6009   5.545   0.319   9.209  1.3617 -0.3167  0.9760
   48CHL1   C21 6010   5.376   0.322   9.066  0.3062 -0.0380 -0.4737
   48CHL1  H21A 6011   5.427   0.381   8.988  1.4461 -1.3733 -0.7794
   48CHL1  H21B 6012   5.297   0.386   9.110 -1.2849 -1.7237 -0.7566
   48CHL1  H21C 6013   5.317   0.251   9.004  2.0490 -1.4508 -0.6035
   48CHL1   C22 6014   5.553   0.142   9.087  0.0520 -0.6367  0.2393
   48CHL1  H22A 6015   5.605   0.079   9.163  1.0240  1.8072  1.7028
   48CHL1  H22B 6016   5.488   0.072   9.030 -2.3723  1.0249  0.8271
   48CHL1   C23 6017   5.646   0.198   8.988  0.7787 -0.1390 -0.0680
   48CHL1  H23A 6018   5.588   0.243   8.904 -0.8359  1.5106  1.8131
   48CHL1  H23B 6019   5.710   0.279   9.030 -0.7814  1.2932 -0.3346
   48CHL1   C24 6020   5.747   0.100   8.918  0.0445 -0.5566  0.3370
   48CHL1  H24A 6021   5.796   0.060   9.009  0.4298  2.1617  1.4102
   48CHL1  H24B 6022   5.688   0.016   8.874 -2.0308 -0.1780  2.1883
   48CHL1   C25 6023   5.848   0.176   8.830 -0.3403 -0.2825 -0.5015
   48CHL1   H25 6024   5.795   0.252   8.769  1.0742  0.9646 -0.2617
   48CHL1   C26 6025   5.951   0.245   8.922  0.1539  0.1264 -0.5905
   48CHL1  H26A 6026   6.020   0.316   8.872  0.5317  0.8419  0.8740
   48CHL1  H26B 6027   5.899   0.299   9.004  1.8630 -0.4945  0.9805
   48CHL1  H26C 6028   6.009   0.164   8.971  0.0976  0.4161 -0.0270
   48CHL1   C27 6029   5.903   0.079   8.730 -0.4194  0.0878 -0.0789
   48CHL1  H27A 6030   5.820   0.038   8.669  1.5067 -4.0131 -0.2472
   48CHL1  H27B 6031   5.976   0.128   8.662 -0.6396 -1.0605 -1.1709
   48CHL1  H27C 6032   5.929  -0.015   8.784 -4.3062 -2.4764 -2.2520
   49CHL1    C3 6033   6.596   2.794  10.125 -0.0614  0.0979 -0.4164
   49CHL1    H3 6034   6.625   2.896  10.090 -0.4382  1.4889  2.9790
   49CHL1    O3 6035   6.593   2.783  10.268  0.2293  0.2932 -0.2779
   49CHL1   H3' 6036   6.685   2.799  10.291  0.8182 -1.4662 -1.2129
   49CHL1    C4 6037   6.451   2.766  10.070 -0.3129 -0.3276 -0.9415
   49CHL1   H4A 6038   6.426   2.668  10.117 -0.3435 -0.3356 -0.9746
   49CHL1   H4B 6039   6.384   2.848  10.102  0.1253  0.0493 -0.9722
   49CHL1    C5 6040   6.443   2.741   9.922  0.2148  0.8419 -0.1328
   49CHL1    C6 6041   6.354   2.803   9.844  0.1458 -1.2017 -0.2141
   49CHL1    H6 6042   6.270   2.847   9.900  0.8748 -3.1635  2.6665
   49CHL1    C7 6043   6.333   2.787   9.697 -0.1192  0.3807  0.0247
   49CHL1   H7A 6044   6.233   2.754   9.663  0.1645 -1.3528  0.7723
   49CHL1   H7B 6045   6.354   2.879   9.638  2.7967  0.0384  0.3634
   49CHL1    C8 6046   6.437   2.687   9.636  0.5744  0.3719 -1.0767
   49CHL1    H8 6047   6.396   2.585   9.655  1.7074 -0.0219 -0.6919
   49CHL1   C14 6048   6.451   2.711   9.493  0.2820 -0.6182 -0.1408
   49CHL1   H14 6049   6.500   2.809   9.479 -1.9552  0.7181  0.7032
   49CHL1   C15 6050   6.321   2.718   9.408 -0.4382 -0.0073  0.3215
   49CHL1  H15A 6051   6.265   2.626   9.435 -0.7570 -0.0934 -0.6171
   49CHL1  H15B 6052   6.266   2.812   9.433 -2.1124  0.0233 -2.9441
   49CHL1   C16 6053   6.371   2.714   9.267  0.5118 -0.5360  0.6067
   49CHL1  H16A 6054   6.296   2.648   9.217  0.2237 -1.2706  1.9482
   49CHL1  H16B 6055   6.359   2.809   9.212 -1.1550 -0.5610  0.8658
   49CHL1   C17 6056   6.516   2.669   9.271 -0.3810  0.7091  0.6269
   49CHL1   H17 6057   6.585   2.756   9.268  3.4273 -1.7799  4.3497
   49CHL1   C13 6058   6.534   2.615   9.413 -0.6345  0.1489 -0.3336
   49CHL1   C18 6059   6.468   2.474   9.414  0.0787  0.6126 -0.3312
   49CHL1  H18A 6060   6.387   2.471   9.338  1.1225  0.9147 -1.4827
   49CHL1  H18B 6061   6.532   2.389   9.382  2.2297  2.1992 -0.4312
   49CHL1  H18C 6062   6.417   2.445   9.508  1.0074 -0.6587 -0.1885
   49CHL1   C12 6063   6.677   2.610   9.481  0.1669 -0.1128 -0.1627
   49CHL1  H12A 6064   6.743   2.528   9.447  1.3204  0.2391  1.1158
   49CHL1  H12B 6065   6.722   2.711   9.467 -0.4893  0.2089  0.0062
   49CHL1   C11 6066   6.665   2.586   9.632 -0.1231 -0.0443 -0.4081
   49CHL1  H11A 6067   6.619   2.485   9.639 -1.9700  0.8016  0.4234
   49CHL1  H11B 6068   6.766   2.586   9.679 -0.4826 -1.3788  0.4117
   49CHL1    C9 6069   6.567   2.684   9.705  0.0652  0.2564 -0.3164
   49CHL1    H9 6070   6.620   2.779   9.683  2.0236 -1.0172 -1.3385
   49CHL1   C10 6071   6.555   2.659   9.861 -0.0887 -0.1588  0.0601
   49CHL1   C19 6072   6.530   2.510   9.893  0.3520 -0.0070 -0.6377
   49CHL1  H19A 6073   6.608   2.447   9.846  0.4880 -0.2433 -0.0980
   49CHL1  H19B 6074   6.539   2.493  10.002  0.0895  0.4934 -0.5334
   49CHL1  H19C 6075   6.432   2.475   9.854 -1.3481  2.5834  0.9466
   49CHL1    C1 6076   6.694   2.692   9.922 -0.0656 -0.6432  0.2844
   49CHL1   H1A 6077   6.770   2.615   9.900  0.0583 -0.7351  0.9921
   49CHL1   H1B 6078   6.732   2.790   9.885  2.9589 -1.5343  0.7585
   49CHL1    C2 6079   6.698   2.693  10.073  0.4187  0.1305 -0.1052
   49CHL1   H2A 6080   6.798   2.721  10.113  0.8606 -0.2491 -0.9188
   49CHL1   H2B 6081   6.669   2.594  10.115  0.4286  0.0110 -0.3789
   49CHL1   C20 6082   6.554   2.592   9.141 -0.0950 -0.7300 -0.7411
   49CHL1   H20 6083   6.488   2.505   9.122  0.7348 -1.6979  0.6417
   49CHL1   C21 6084   6.696   2.544   9.166  0.4698 -0.3864  0.1327
   49CHL1  H21A 6085   6.710   2.492   9.263  1.4919 -0.5948 -0.1221
   49CHL1  H21B 6086   6.774   2.624   9.164  0.3484 -0.1560  2.1922
   49CHL1  H21C 6087   6.734   2.473   9.090 -0.8738 -0.7623 -0.2184
   49CHL1   C22 6088   6.539   2.680   9.011  0.4039  0.5929 -0.2872
   49CHL1  H22A 6089   6.436   2.718   8.997 -0.0161 -0.9606 -1.9305
   49CHL1  H22B 6090   6.605   2.769   9.014  0.7208  0.3403  0.5715
   49CHL1   C23 6091   6.559   2.609   8.879 -0.0390 -1.0053  0.0980
   49CHL1  H23A 6092   6.659   2.560   8.881  0.0196 -0.8957  1.8641
   49CHL1  H23B 6093   6.474   2.542   8.855 -1.3903  0.7458 -0.2293
   49CHL1   C24 6094   6.541   2.702   8.758 -0.2892  0.1702 -0.2173
   49CHL1  H24A 6095   6.440   2.749   8.756 -0.2367  0.2769 -0.4018
   49CHL1  H24B 6096   6.617   2.781   8.776  0.6476 -0.1359 -2.4117
   49CHL1   C25 6097   6.570   2.642   8.623  0.8731  0.3138  0.0623
   49CHL1   H25 6098   6.666   2.588   8.609  0.2457 -0.4068 -1.6620
   49CHL1   C26 6099   6.461   2.548   8.576  0.4409 -0.5118 -0.1829
   49CHL1  H26A 6100   6.366   2.606   8.568  0.9386  0.8116  2.3399
   49CHL1  H26B 6101   6.505   2.518   8.479  2.9752 -0.0620  0.7628
   49CHL1  H26C 6102   6.449   2.454   8.634  3.0920  0.1010  1.5220
   49CHL1   C27 6103   6.577   2.757   8.532 -0.5432  0.7271  0.2675
   49CHL1  H27A 6104   6.652   2.829   8.570  0.3980 -0.7786  1.3495
   49CHL1  H27B 6105   6.606   2.717   8.432 -1.7760 -0.3430  0.3225
   49CHL1  H27C 6106   6.486   2.820   8.525  0.1283  1.8192  1.0685
   50CHL1    C3 6107   1.167   4.489  10.145 -0.1975  0.5182  0.2859
   50CHL1    H3 6108   1.266   4.440  10.145 -0.4591 -0.0578 -0.6415
   50CHL1    O3 6109   1.104   4.453  10.269 -0.1179  0.6372  0.5910
   50CHL1   H3' 6110   1.163   4.481  10.339 -1.5266  1.1027  1.6364
   50CHL1    C4 6111   1.182   4.638  10.137  0.4012 -0.1955 -0.0155
   50CHL1   H4A 6112   1.082   4.687  10.144  1.0290  2.1742 -4.2657
   50CHL1   H4B 6113   1.242   4.673  10.224  1.6444 -1.3001 -0.3968
   50CHL1    C5 6114   1.243   4.690  10.006 -0.4679  0.9902 -0.3249
   50CHL1    C6 6115   1.357   4.761  10.014  0.2610  0.9701 -0.2277
   50CHL1    H6 6116   1.391   4.789  10.115 -0.5189  2.9483 -0.4567
   50CHL1    C7 6117   1.419   4.827   9.897  0.0296  0.4389  1.0506
   50CHL1   H7A 6118   1.440   4.932   9.928  0.4188  0.5720  0.3555
   50CHL1   H7B 6119   1.514   4.773   9.876 -0.0510  0.7774 -0.2394
   50CHL1    C8 6120   1.328   4.810   9.766  0.8884  0.4377 -0.3579
   50CHL1    H8 6121   1.243   4.879   9.784 -0.4487 -1.2816  0.1969
   50CHL1   C14 6122   1.400   4.832   9.642 -0.7722  0.2464  0.4931
   50CHL1   H14 6123   1.477   4.752   9.644 -1.1306 -0.1397 -0.7634
   50CHL1   C15 6124   1.487   4.961   9.631  0.6069  0.4084  0.6232
   50CHL1  H15A 6125   1.421   5.047   9.654 -0.9596 -0.9747  1.5706
   50CHL1  H15B 6126   1.567   4.971   9.707 -0.8686  2.0789  2.0428
   50CHL1   C16 6127   1.526   4.957   9.480 -0.0893 -0.3285 -0.0182
   50CHL1  H16A 6128   1.502   5.057   9.440  2.4627  0.4749  0.2766
   50CHL1  H16B 6129   1.633   4.932   9.462 -0.2434 -0.7422 -0.4002
   50CHL1   C17 6130   1.445   4.847   9.408 -0.1323 -0.1117 -0.2335
   50CHL1   H17 6131   1.503   4.753   9.424 -2.4575 -1.4770  0.8101
   50CHL1   C13 6132   1.330   4.813   9.507 -0.0086  0.6501  0.0453
   50CHL1   C18 6133   1.207   4.908   9.497 -0.3313 -0.5903  0.0601
   50CHL1  H18A 6134   1.131   4.875   9.571  0.3934  1.2498  1.7307
   50CHL1  H18B 6135   1.242   5.014   9.502 -1.5557  0.1132 -3.5945
   50CHL1  H18C 6136   1.161   4.890   9.398 -1.8754 -0.5259  0.7350
   50CHL1   C12 6137   1.289   4.666   9.499 -0.1479 -0.1998  0.0325
   50CHL1  H12A 6138   1.227   4.659   9.407  1.3438  0.1528 -1.0411
   50CHL1  H12B 6139   1.372   4.593   9.485 -1.4475 -1.5947 -0.6719
   50CHL1   C11 6140   1.206   4.625   9.619 -0.7794 -0.5293 -0.3802
   50CHL1  H11A 6141   1.108   4.678   9.617 -0.8529 -0.6863 -1.4779
   50CHL1  H11B 6142   1.186   4.515   9.620 -0.8584 -0.5152  0.6353
   50CHL1    C9 6143   1.270   4.665   9.765  0.1525 -0.0859  0.2508
   50CHL1    H9 6144   1.354   4.593   9.774  0.2495  0.0892  0.7945
   50CHL1   C10 6145   1.175   4.633   9.882 -0.3750 -1.2168  0.9902
   50CHL1   C19 6146   1.034   4.704   9.852 -0.3496 -0.0074 -0.5507
   50CHL1  H19A 6147   0.984   4.648   9.770 -0.5124 -0.0704 -0.4089
   50CHL1  H19B 6148   0.965   4.715   9.939 -1.2001 -1.3587 -1.0282
   50CHL1  H19C 6149   1.055   4.802   9.804 -0.3864 -0.7676 -2.1586
   50CHL1    C1 6150   1.153   4.484   9.893 -0.8027  0.5433 -0.0067
   50CHL1   H1A 6151   1.085   4.467   9.807 -0.3332  0.7513 -0.4203
   50CHL1   H1B 6152   1.245   4.425   9.875 -0.9763  0.4710 -0.6991
   50CHL1    C2 6153   1.084   4.439  10.024 -0.9367 -0.0071  0.0543
   50CHL1   H2A 6154   1.079   4.328  10.013 -2.8741  0.2558 -2.5191
   50CHL1   H2B 6155   0.987   4.492  10.022  1.1740  4.2716  0.5582
   50CHL1   C20 6156   1.414   4.856   9.262 -0.3897  0.7893  0.7635
   50CHL1   H20 6157   1.312   4.814   9.252 -1.2282  3.1213 -1.6456
   50CHL1   C21 6158   1.531   4.779   9.186 -0.3553  0.1454  0.0863
   50CHL1  H21A 6159   1.533   4.796   9.076  1.6937  2.4121  0.3766
   50CHL1  H21B 6160   1.525   4.672   9.212  0.4827  0.2437  0.7386
   50CHL1  H21C 6161   1.628   4.819   9.224  0.4052  0.0807 -1.6551
   50CHL1   C22 6162   1.399   5.003   9.209  0.3053  0.1356 -0.1422
   50CHL1  H22A 6163   1.352   5.063   9.289  1.2610  0.2953  0.3089
   50CHL1  H22B 6164   1.502   5.044   9.203  0.1522  1.0169  2.1691
   50CHL1   C23 6165   1.318   5.009   9.076 -0.0838  0.3684 -0.0105
   50CHL1  H23A 6166   1.367   4.966   8.987  0.6908  1.5876 -0.1919
   50CHL1  H23B 6167   1.211   4.979   9.080  0.4084 -1.7059 -1.3107
   50CHL1   C24 6168   1.306   5.151   9.032 -0.6809  0.5373  0.0286
   50CHL1  H24A 6169   1.222   5.202   9.082 -1.4446 -0.4826 -0.1698
   50CHL1  H24B 6170   1.399   5.212   9.037  0.0215 -0.3035 -1.7571
   50CHL1   C25 6171   1.269   5.160   8.881  0.1327 -0.4061  0.3402
   50CHL1   H25 6172   1.349   5.110   8.822 -1.8443  0.1482 -3.0545
   50CHL1   C26 6173   1.141   5.079   8.843  0.0653 -0.4796  0.2051
   50CHL1  H26A 6174   1.114   5.064   8.736 -1.2887  0.1214  0.4537
   50CHL1  H26B 6175   1.134   4.985   8.900  0.7311  1.3942  3.6526
   50CHL1  H26C 6176   1.055   5.135   8.884 -1.4375 -0.2625 -2.9815
   50CHL1   C27 6177   1.263   5.306   8.830 -0.5387 -0.0725 -0.6894
   50CHL1  H27A 6178   1.273   5.310   8.720  1.5840  0.2659 -0.5285
   50CHL1  H27B 6179   1.166   5.357   8.844 -0.2563  0.5479 -0.9758
   50CHL1  H27C 6180   1.340   5.371   8.877 -0.5705  0.1225 -0.9100
   51CHL1    C3 6181   3.142   5.596  10.217  0.7286 -0.0483 -0.4924
   51CHL1    H3 6182   3.127   5.699  10.176  0.1754 -0.2422 -0.7930
   51CHL1    O3 6183   3.158   5.617  10.359 -0.0938  0.1608  0.1461
   51CHL1   H3' 6184   3.117   5.534  10.387  1.2205 -0.7496 -0.5455
   51CHL1    C4 6185   3.012   5.518  10.181 -0.2971 -0.1098  0.5138
   51CHL1   H4A 6186   3.022   5.425  10.241  1.9585 -0.7022 -0.6350
   51CHL1   H4B 6187   2.929   5.577  10.224  0.1348 -0.7225  2.2956
   51CHL1    C5 6188   3.003   5.491  10.031 -0.2713  0.1315  0.3663
   51CHL1    C6 6189   2.896   5.529   9.956 -0.6936  0.0214  0.1461
   51CHL1    H6 6190   2.815   5.576  10.012  0.2309 -0.6063  2.0847
   51CHL1    C7 6191   2.875   5.492   9.811 -0.4532 -0.4637  0.1835
   51CHL1   H7A 6192   2.769   5.463   9.797  0.4270 -2.7634 -2.6214
   51CHL1   H7B 6193   2.899   5.581   9.748  0.1645  0.2898  1.4448
   51CHL1    C8 6194   2.978   5.393   9.760  1.3739 -0.1947 -0.6936
   51CHL1    H8 6195   2.930   5.298   9.792 -1.9126  1.5653  0.0432
   51CHL1   C14 6196   2.988   5.406   9.613  0.3236 -0.8921  0.3471
   51CHL1   H14 6197   3.036   5.504   9.591  0.5973 -1.1939 -0.4213
   51CHL1   C15 6198   2.856   5.399   9.534 -0.0192 -0.1362  0.0807
   51CHL1  H15A 6199   2.778   5.330   9.574 -0.0479 -0.4815 -0.5612
   51CHL1  H15B 6200   2.809   5.500   9.532 -0.5091 -0.3713 -0.7620
   51CHL1   C16 6201   2.900   5.360   9.386 -0.1604 -0.5436  0.5665
   51CHL1  H16A 6202   2.852   5.261   9.372  0.8347 -0.9875  0.1998
   51CHL1  H16B 6203   2.881   5.432   9.304  3.3192  0.7798  0.7511
   51CHL1   C17 6204   3.052   5.321   9.387 -0.0464  0.4080 -0.3584
   51CHL1   H17 6205   3.108   5.409   9.349  1.2287 -0.3339 -0.2769
   51CHL1   C13 6206   3.069   5.290   9.540 -0.3126 -0.4203 -0.0326
   51CHL1   C18 6207   3.018   5.148   9.563 -0.5244  1.0323 -0.4869
   51CHL1  H18A 6208   3.019   5.133   9.673  0.1557 -0.9208 -0.7260
   51CHL1  H18B 6209   2.913   5.136   9.529 -1.3197  1.6050  1.5950
   51CHL1  H18C 6210   3.078   5.073   9.508  0.7060  2.0403 -0.5726
   51CHL1   C12 6211   3.216   5.322   9.593  0.3676 -0.0744  0.3143
   51CHL1  H12A 6212   3.295   5.257   9.550 -1.3818 -2.7451  0.8658
   51CHL1  H12B 6213   3.232   5.424   9.551  0.7321  0.0227  0.6851
   51CHL1   C11 6214   3.230   5.316   9.746 -0.0937 -0.0160 -0.5701
   51CHL1  H11A 6215   3.220   5.212   9.784  0.5867 -1.0285 -2.9527
   51CHL1  H11B 6216   3.331   5.353   9.774  1.1545 -2.2158 -1.8312
   51CHL1    C9 6217   3.120   5.399   9.820  0.7723 -1.0866 -0.2163
   51CHL1    H9 6218   3.139   5.503   9.788 -2.3859 -0.1682  0.5240
   51CHL1   C10 6219   3.124   5.406   9.970  0.9315 -0.0754  0.1713
   51CHL1   C19 6220   3.107   5.265  10.036 -0.3311  0.4458  0.5964
   51CHL1  H19A 6221   3.198   5.201  10.028 -1.0379 -0.2662 -3.4065
   51CHL1  H19B 6222   3.084   5.261  10.145 -1.3261 -1.5315  0.3395
   51CHL1  H19C 6223   3.036   5.210   9.972 -0.5548 -0.5269  1.6583
   51CHL1    C1 6224   3.262   5.473  10.024 -0.0490 -0.3469 -0.3251
   51CHL1   H1A 6225   3.333   5.390  10.001 -0.2760 -0.7382  0.3424
   51CHL1   H1B 6226   3.279   5.558   9.955 -0.6183  0.5673  0.6441
   51CHL1    C2 6227   3.270   5.520  10.173  0.3872 -0.3512  0.2932
   51CHL1   H2A 6228   3.367   5.572  10.184  0.3896 -0.2110 -0.3157
   51CHL1   H2B 6229   3.271   5.434  10.243 -0.5724 -0.5138  0.1339
   51CHL1   C20 6230   3.078   5.205   9.288  0.2726 -0.1508  0.3045
   51CHL1   H20 6231   3.017   5.115   9.310 -0.3578 -0.3189 -1.8752
   51CHL1   C21 6232   3.224   5.167   9.298 -0.3290 -0.8827  0.5419
   51CHL1  H21A 6233   3.263   5.110   9.211  1.1376 -0.2599  0.7464
   51CHL1  H21B 6234   3.236   5.108   9.391 -0.8282 -0.6467  0.7560
   51CHL1  H21C 6235   3.300   5.249   9.293 -0.8463 -0.4749 -2.6295
   51CHL1   C22 6236   3.039   5.242   9.138  0.2750 -0.0777  0.0907
   51CHL1  H22A 6237   2.938   5.287   9.140 -0.1619 -1.0282 -0.4363
   51CHL1  H22B 6238   3.112   5.320   9.105  1.5785 -0.2648  2.3359
   51CHL1   C23 6239   3.041   5.129   9.028 -0.3486  0.2747 -0.1140
   51CHL1  H23A 6240   3.138   5.077   9.014 -0.4251  0.1288 -0.1088
   51CHL1  H23B 6241   2.961   5.059   9.061  0.7746 -0.5995  0.8372
   51CHL1   C24 6242   2.992   5.176   8.884  0.2669 -0.5952 -0.1346
   51CHL1  H24A 6243   3.012   5.083   8.826  0.5732 -1.3488  1.1393
   51CHL1  H24B 6244   2.882   5.193   8.894  0.2397 -0.7345 -0.1903
   51CHL1   C25 6245   3.063   5.295   8.819  0.8274  0.6223  0.0784
   51CHL1   H25 6246   3.049   5.383   8.885  1.7030  1.7637 -1.2095
   51CHL1   C26 6247   3.215   5.275   8.797 -0.2468  0.3529  0.4723
   51CHL1  H26A 6248   3.267   5.230   8.884 -0.4657  0.9983  0.9446
   51CHL1  H26B 6249   3.224   5.216   8.703  0.5617 -1.4813  1.6376
   51CHL1  H26C 6250   3.252   5.378   8.775  0.7569  0.9559  4.2489
   51CHL1   C27 6251   2.991   5.337   8.692  0.3391  0.6410 -0.0535
   51CHL1  H27A 6252   3.015   5.443   8.666  0.2022  0.5238 -0.6703
   51CHL1  H27B 6253   3.036   5.270   8.616  0.4529  2.7604 -1.9755
   51CHL1  H27C 6254   2.882   5.319   8.701  0.2882  0.6008 -0.7239
   52CHL1    C3 6255   4.198   5.714  10.018 -0.2674 -0.3638  0.0479
   52CHL1    H3 6256   4.095   5.740   9.986  0.3319  2.2938  0.0786
   52CHL1    O3 6257   4.202   5.683  10.153  0.3103  0.3601  0.0284
   52CHL1   H3' 6258   4.247   5.751  10.204 -1.0461 -0.1663  2.0638
   52CHL1    C4 6259   4.244   5.595   9.941  0.0054  0.6676 -0.6997
   52CHL1   H4A 6260   4.346   5.572   9.978 -0.0153  2.0953  0.3072
   52CHL1   H4B 6261   4.189   5.503   9.970  1.2944  0.7284  2.2726
   52CHL1    C5 6262   4.231   5.622   9.791 -0.1302 -0.5036 -0.0095
   52CHL1    C6 6263   4.155   5.549   9.707  0.4684 -0.3661  0.0768
   52CHL1    H6 6264   4.095   5.467   9.750 -0.2550 -1.3042 -2.5167
   52CHL1    C7 6265   4.136   5.574   9.557 -0.8702 -0.1206  0.3366
   52CHL1   H7A 6266   4.141   5.478   9.502  3.9658  1.1953 -2.0940
   52CHL1   H7B 6267   4.046   5.636   9.538 -1.8073 -2.1243 -2.3298
   52CHL1    C8 6268   4.261   5.655   9.498  0.4695 -0.1680  0.6955
   52CHL1    H8 6269   4.347   5.586   9.490  1.5213  1.0582  0.9699
   52CHL1   C14 6270   4.212   5.697   9.355 -0.2921  0.7721 -0.2777
   52CHL1   H14 6271   4.127   5.766   9.375  0.2201  1.2198  0.4114
   52CHL1   C15 6272   4.158   5.595   9.260 -0.4924  0.5392  0.1716
   52CHL1  H15A 6273   4.222   5.504   9.262  0.1265  0.9776  1.8968
   52CHL1  H15B 6274   4.057   5.551   9.270  0.6353 -2.1856  0.5743
   52CHL1   C16 6275   4.185   5.660   9.121  0.1253 -0.1655  0.6557
   52CHL1  H16A 6276   4.249   5.590   9.064  0.4160  0.5946  0.0214
   52CHL1  H16B 6277   4.096   5.660   9.054  2.0218  1.1856 -2.0981
   52CHL1   C17 6278   4.233   5.809   9.146  0.4272 -0.5438 -0.8702
   52CHL1   H17 6279   4.144   5.869   9.176 -0.7146 -1.8962 -1.4454
   52CHL1   C13 6280   4.308   5.789   9.286 -0.0438 -0.5059  0.0118
   52CHL1   C18 6281   4.447   5.737   9.252  0.6156  0.5015 -0.2097
   52CHL1  H18A 6282   4.501   5.686   9.334 -1.2895  1.2826  1.6202
   52CHL1  H18B 6283   4.441   5.661   9.171  1.2366 -0.3994  0.5658
   52CHL1  H18C 6284   4.513   5.822   9.222  0.4582  0.5660 -0.3773
   52CHL1   C12 6285   4.337   5.908   9.375 -0.1236 -0.3105  0.0559
   52CHL1  H12A 6286   4.411   5.974   9.324  0.0653 -0.9721 -0.5282
   52CHL1  H12B 6287   4.240   5.961   9.388 -1.0024 -1.8710  0.0205
   52CHL1   C11 6288   4.390   5.872   9.513 -0.2791 -0.5832 -0.6448
   52CHL1  H11A 6289   4.483   5.818   9.487 -1.0665 -1.2634 -2.1872
   52CHL1  H11B 6290   4.407   5.966   9.570 -0.6390  0.1884 -1.7734
   52CHL1    C9 6291   4.288   5.772   9.586 -0.1147  0.4313  0.4723
   52CHL1    H9 6292   4.198   5.837   9.594  1.2983  2.4352  0.8646
   52CHL1   C10 6293   4.311   5.741   9.736 -0.7347 -0.4511 -0.2232
   52CHL1   C19 6294   4.458   5.706   9.736  0.1521 -0.5398 -0.2318
   52CHL1  H19A 6295   4.479   5.668   9.839 -0.3901 -2.3053 -0.7501
   52CHL1  H19B 6296   4.476   5.630   9.658 -1.9924 -0.2332 -1.0934
   52CHL1  H19C 6297   4.520   5.798   9.726  1.4702 -1.2535  1.0528
   52CHL1    C1 6298   4.286   5.861   9.825  0.1961 -0.5193  0.1278
   52CHL1   H1A 6299   4.341   5.953   9.794 -0.8726 -0.2509 -1.0489
   52CHL1   H1B 6300   4.180   5.888   9.806  0.9297  1.0566 -2.2025
   52CHL1    C2 6301   4.287   5.835   9.979 -0.7553  0.3892  0.7618
   52CHL1   H2A 6302   4.253   5.925  10.035  0.9642  0.3645  1.9377
   52CHL1   H2B 6303   4.394   5.819  10.003 -0.6947 -0.5127 -0.0196
   52CHL1   C20 6304   4.304   5.875   9.022  0.5886 -0.4673 -0.3596
   52CHL1   H20 6305   4.403   5.827   9.011  0.0648 -1.2673 -1.8691
   52CHL1   C21 6306   4.328   6.028   9.055 -0.3687 -0.0263  0.4746
   52CHL1  H21A 6307   4.234   6.076   9.089 -0.7879 -1.0612  0.8258
   52CHL1  H21B 6308   4.362   6.077   8.961 -2.3884 -1.4148 -1.0745
   52CHL1  H21C 6309   4.410   6.036   9.130 -0.6643  0.4785  0.7493
   52CHL1   C22 6310   4.231   5.858   8.889 -0.8142 -0.8291  0.7963
   52CHL1  H22A 6311   4.233   5.749   8.864  0.6323 -0.2854 -1.8488
   52CHL1  H22B 6312   4.123   5.883   8.899 -0.9414 -1.5406  1.2959
   52CHL1   C23 6313   4.283   5.933   8.761  0.8749 -0.5673 -0.2833
   52CHL1  H23A 6314   4.225   5.889   8.677  1.0078  0.2349 -0.8041
   52CHL1  H23B 6315   4.255   6.040   8.762 -1.6125 -1.1225  2.3859
   52CHL1   C24 6316   4.432   5.915   8.730 -0.1449  0.0405  0.1123
   52CHL1  H24A 6317   4.490   5.976   8.803 -3.1113  1.3980  1.4630
   52CHL1  H24B 6318   4.463   5.809   8.717 -4.3622 -1.3270 -0.1018
   52CHL1   C25 6319   4.461   5.980   8.595  0.3512  0.5781 -0.1862
   52CHL1   H25 6320   4.388   5.937   8.523  0.9617  2.4039 -2.0206
   52CHL1   C26 6321   4.462   6.133   8.588 -0.6732  0.0524  0.0240
   52CHL1  H26A 6322   4.534   6.174   8.662 -1.1431 -1.0445  1.1211
   52CHL1  H26B 6323   4.491   6.157   8.484  1.2165 -1.2384  0.1988
   52CHL1  H26C 6324   4.361   6.173   8.612 -1.5203  0.2676 -3.3833
   52CHL1   C27 6325   4.606   5.928   8.563  0.0547 -0.2060  0.2269
   52CHL1  H27A 6326   4.635   5.833   8.613  1.4482 -0.0705 -0.3009
   52CHL1  H27B 6327   4.607   5.907   8.454 -0.2657 -0.5427  0.2867
   52CHL1  H27C 6328   4.674   6.014   8.579 -0.0955  0.3788 -2.0337
   53CHL1    C3 6329   0.038   4.316  10.115  0.4805  0.1714 -0.0125
   53CHL1    H3 6330   0.026   4.205  10.120 -1.3227  0.3342 -0.0899
   53CHL1    O3 6331   0.041   4.361  10.252 -0.4097  0.3365  0.0302
   53CHL1   H3' 6332   0.100   4.297  10.294  1.4290  1.7518 -0.2711
   53CHL1    C4 6333   0.183   4.344  10.064 -0.1290 -0.1028 -0.0694
   53CHL1   H4A 6334   0.212   4.445  10.099 -2.8395  0.5002  0.7148
   53CHL1   H4B 6335   0.249   4.272  10.118  1.2540  1.7866  0.8787
   53CHL1    C5 6336   0.187   4.322   9.918  1.1130  0.0009 -0.3178
   53CHL1    C6 6337   0.282   4.252   9.858  0.1949 -0.3285 -0.1778
   53CHL1    H6 6338   0.363   4.203   9.914  0.3082 -0.7591 -0.7076
   53CHL1    C7 6339   0.302   4.228   9.716 -0.0379  0.4567 -0.0753
   53CHL1   H7A 6340   0.409   4.225   9.685 -0.1054 -1.0643 -0.2133
   53CHL1   H7B 6341   0.261   4.127   9.696 -1.0836  1.2032 -1.9597
   53CHL1    C8 6342   0.221   4.330   9.631  0.0184 -0.0581  0.0118
   53CHL1    H8 6343   0.272   4.429   9.638  2.1430 -1.0643 -0.3094
   53CHL1   C14 6344   0.219   4.289   9.484  0.6182 -0.4344 -0.3368
   53CHL1   H14 6345   0.182   4.184   9.490  2.2138 -0.9537  2.7679
   53CHL1   C15 6346   0.355   4.267   9.422 -0.8595  0.0334  1.1432
   53CHL1  H15A 6347   0.417   4.353   9.454 -0.9824 -0.2589  2.2038
   53CHL1  H15B 6348   0.395   4.172   9.463 -0.2482  0.8690  2.5393
   53CHL1   C16 6349   0.341   4.275   9.269  0.2629  0.1424 -0.1822
   53CHL1  H16A 6350   0.404   4.351   9.218 -1.7982  0.8821 -1.7876
   53CHL1  H16B 6351   0.363   4.176   9.222  1.5415 -0.5804  1.8377
   53CHL1   C17 6352   0.192   4.310   9.246  0.0918 -0.0496  0.9304
   53CHL1   H17 6353   0.141   4.213   9.230  2.3908 -1.0387 -1.1099
   53CHL1   C13 6354   0.144   4.373   9.386  0.8735 -0.2136 -0.3243
   53CHL1   C18 6355   0.203   4.516   9.398 -0.7625 -0.2454  0.5868
   53CHL1  H18A 6356   0.181   4.553   9.500  0.1371 -0.5709  0.9042
   53CHL1  H18B 6357   0.313   4.521   9.383 -0.8052  1.3313  0.6616
   53CHL1  H18C 6358   0.161   4.594   9.331  0.8409 -1.2171 -1.6920
   53CHL1   C12 6359  -0.005   4.360   9.424  0.5537 -0.0077  0.7029
   53CHL1  H12A 6360  -0.077   4.427   9.372  2.4887  2.3271  0.8718
   53CHL1  H12B 6361  -0.041   4.255   9.420 -0.3868  0.2226  2.3570
   53CHL1   C11 6362  -0.026   4.386   9.576 -0.3717  0.1210  0.5207
   53CHL1  H11A 6363  -0.024   4.497   9.579  2.4892  0.1224  1.7422
   53CHL1  H11B 6364  -0.128   4.353   9.604 -0.9884  1.8430  0.4200
   53CHL1    C9 6365   0.077   4.324   9.680 -0.3431 -0.1354  0.4944
   53CHL1    H9 6366   0.045   4.218   9.693  1.7153 -1.0846 -1.3644
   53CHL1   C10 6367   0.072   4.379   9.833  0.7037 -0.3287  0.5169
   53CHL1   C19 6368   0.091   4.532   9.839 -0.6660  0.8462  0.1409
   53CHL1  H19A 6369   0.176   4.571   9.779  0.1167 -1.5188 -0.4063
   53CHL1  H19B 6370  -0.007   4.570   9.804 -0.6259  0.5823 -0.2647
   53CHL1  H19C 6371   0.104   4.567   9.944 -2.3716 -0.1176  0.7205
   53CHL1    C1 6372  -0.067   4.338   9.897  0.0081 -0.2574 -0.0210
   53CHL1   H1A 6373  -0.147   4.384   9.836 -0.1150 -0.1579  0.2165
   53CHL1   H1B 6374  -0.070   4.228   9.880 -0.8720 -0.6380  2.2285
   53CHL1    C2 6375  -0.082   4.386  10.043  0.5209  0.5983  0.8231
   53CHL1   H2A 6376  -0.181   4.343  10.072  0.6079 -1.7443 -1.8481
   53CHL1   H2B 6377  -0.069   4.495  10.058  0.7364  0.3352  2.7358
   53CHL1   C20 6378   0.166   4.400   9.122  0.2631  0.0281 -0.3170
   53CHL1   H20 6379   0.197   4.505   9.142 -1.9664  0.4028  1.5640
   53CHL1   C21 6380   0.016   4.421   9.100  0.0392  0.3780 -1.0612
   53CHL1  H21A 6381  -0.035   4.323   9.085  0.8667 -0.1274 -0.6502
   53CHL1  H21B 6382  -0.000   4.474   9.004 -0.2246  1.0544 -0.6510
   53CHL1  H21C 6383  -0.032   4.472   9.186 -1.1867  0.5524 -1.8287
   53CHL1   C22 6384   0.236   4.348   8.997  0.4515  0.5475 -0.2135
   53CHL1  H22A 6385   0.343   4.332   9.021  0.0696  0.0985  1.3223
   53CHL1  H22B 6386   0.201   4.245   8.972  0.2514 -0.0902  2.3956
   53CHL1   C23 6387   0.233   4.434   8.872  0.3325 -0.0641  0.0441
   53CHL1  H23A 6388   0.127   4.445   8.839  0.4254 -1.0296 -0.6234
   53CHL1  H23B 6389   0.268   4.537   8.896 -0.0555  0.3944 -1.2628
   53CHL1   C24 6390   0.311   4.369   8.762  0.0796 -0.1890 -0.0680
   53CHL1  H24A 6391   0.416   4.342   8.784  0.1683 -1.2672 -1.6544
   53CHL1  H24B 6392   0.270   4.267   8.745  2.5894 -1.1429 -0.7637
   53CHL1   C25 6393   0.310   4.449   8.633 -0.5846  0.2053 -0.2255
   53CHL1   H25 6394   0.201   4.457   8.613 -1.1328 -1.8685  1.6579
   53CHL1   C26 6395   0.365   4.593   8.655  0.3647 -0.9687  0.2263
   53CHL1  H26A 6396   0.374   4.647   8.559 -1.4915  0.9604  1.0638
   53CHL1  H26B 6397   0.297   4.658   8.715 -2.5004 -2.8386 -0.7651
   53CHL1  H26C 6398   0.464   4.594   8.705  0.9249 -0.5736 -0.8834
   53CHL1   C27 6399   0.377   4.380   8.505 -0.7638 -0.5923 -0.1804
   53CHL1  H27A 6400   0.328   4.417   8.413  0.2550 -1.1283 -0.9640
   53CHL1  H27B 6401   0.487   4.398   8.499 -0.2438 -3.4391 -0.4859
   53CHL1  H27C 6402   0.354   4.272   8.505  1.4046 -1.1785  2.2299
   54CHL1    C3 6403   5.838   0.562  10.156  0.5232  0.5013 -0.0246
   54CHL1    H3 6404   5.848   0.670  10.182  0.1318 -0.0979  2.9608
   54CHL1    O3 6405   5.841   0.505  10.284  0.1275  0.0963 -0.0055
   54CHL1   H3' 6406   5.872   0.414  10.282 -0.7976 -0.2382  0.2854
   54CHL1    C4 6407   5.708   0.518  10.083 -0.2899  0.4800 -0.1599
   54CHL1   H4A 6408   5.706   0.407  10.084  0.6531  0.3786 -2.6274
   54CHL1   H4B 6409   5.623   0.571  10.131  0.0344  1.5779 -0.7441
   54CHL1    C5 6410   5.703   0.541   9.930  0.0961 -0.0407 -0.5008
   54CHL1    C6 6411   5.607   0.610   9.868 -0.2493 -0.5565 -0.2539
   54CHL1    H6 6412   5.522   0.649   9.926  0.3079  0.7310 -0.2614
   54CHL1    C7 6413   5.609   0.652   9.729 -0.9381  0.1479  0.1651
   54CHL1   H7A 6414   5.510   0.630   9.683 -0.3801 -0.8616 -0.6038
   54CHL1   H7B 6415   5.633   0.760   9.732  1.7004 -0.3729  0.8488
   54CHL1    C8 6416   5.721   0.597   9.634  0.2079 -0.5042 -0.2509
   54CHL1    H8 6417   5.692   0.492   9.613  1.2236 -0.7727 -0.3693
   54CHL1   C14 6418   5.739   0.669   9.499  0.3740 -0.0686  0.2309
   54CHL1   H14 6419   5.783   0.768   9.524 -0.1383 -0.6790  4.1883
   54CHL1   C15 6420   5.609   0.707   9.427  0.6987  0.1073  0.5105
   54CHL1  H15A 6421   5.541   0.620   9.441 -0.7427  0.8251 -1.5558
   54CHL1  H15B 6422   5.548   0.793   9.461 -0.9070 -1.0450  0.6753
   54CHL1   C16 6423   5.659   0.730   9.280  0.3666  0.0148 -0.4687
   54CHL1  H16A 6424   5.590   0.667   9.220 -2.2829  0.3864  1.9118
   54CHL1  H16B 6425   5.650   0.841   9.269  0.4894 -0.1786 -2.8102
   54CHL1   C17 6426   5.810   0.692   9.284  0.1025  0.6468  0.0706
   54CHL1   H17 6427   5.865   0.788   9.302  1.8818 -0.6926  2.3270
   54CHL1   C13 6428   5.837   0.606   9.402 -0.4496  0.4884  0.0637
   54CHL1   C18 6429   5.800   0.457   9.374 -0.7698 -0.0423 -0.1636
   54CHL1  H18A 6430   5.706   0.454   9.315  0.0477 -1.3230 -1.4783
   54CHL1  H18B 6431   5.881   0.411   9.312 -0.2008  0.0375  0.5067
   54CHL1  H18C 6432   5.790   0.406   9.472  0.9715  2.4494  1.4055
   54CHL1   C12 6433   5.977   0.621   9.475 -0.3284  0.5924 -0.5023
   54CHL1  H12A 6434   6.053   0.576   9.409  0.8573  0.2390  1.0533
   54CHL1  H12B 6435   5.994   0.729   9.496  0.3395  0.1817  1.2231
   54CHL1   C11 6436   5.972   0.548   9.618 -0.0091  0.2054 -0.2792
   54CHL1  H11A 6437   5.958   0.439   9.604 -0.3907 -0.0114  1.5884
   54CHL1  H11B 6438   6.069   0.565   9.669  0.3288 -2.6020  0.1771
   54CHL1    C9 6439   5.853   0.593   9.717 -0.5867 -0.4734  0.7700
   54CHL1    H9 6440   5.885   0.695   9.748  0.9090 -0.2987 -1.1608
   54CHL1   C10 6441   5.840   0.517   9.852 -0.8637  0.8093  0.1421
   54CHL1   C19 6442   5.840   0.358   9.820 -0.7113 -0.7019  0.1547
   54CHL1  H19A 6443   5.851   0.294   9.910  3.1236 -1.0367 -0.3810
   54CHL1  H19B 6444   5.747   0.345   9.759  1.5412  1.6184 -4.2681
   54CHL1  H19C 6445   5.917   0.325   9.748 -1.6407  0.7361 -1.6000
   54CHL1    C1 6446   5.963   0.561   9.931  0.0430 -0.0508 -0.2194
   54CHL1   H1A 6447   6.060   0.525   9.891  0.8356 -1.6822  2.8259
   54CHL1   H1B 6448   5.973   0.672   9.935  0.4561 -0.0633 -0.8004
   54CHL1    C2 6449   5.962   0.512  10.081 -0.0900 -0.3294  0.5660
   54CHL1   H2A 6450   6.052   0.528  10.145  1.1364 -1.5203 -0.7876
   54CHL1   H2B 6451   5.957   0.401  10.072 -1.2432 -0.3858  1.6826
   54CHL1   C20 6452   5.865   0.647   9.142  0.4805  0.1210 -0.3439
   54CHL1   H20 6453   5.856   0.539   9.116  3.2795 -0.1582 -0.4643
   54CHL1   C21 6454   6.019   0.669   9.133  0.0354  0.4079 -0.1552
   54CHL1  H21A 6455   6.074   0.602   9.202  0.0459  2.3386  1.8411
   54CHL1  H21B 6456   6.049   0.776   9.141  1.4897  0.2583 -2.5631
   54CHL1  H21C 6457   6.054   0.645   9.030  0.7229 -2.3579  0.6455
   54CHL1   C22 6458   5.801   0.713   9.013 -0.2442  0.0306 -0.2920
   54CHL1  H22A 6459   5.699   0.746   9.043  0.7602  0.4823  3.1357
   54CHL1  H22B 6460   5.847   0.813   9.007 -0.8691  0.3131 -0.4904
   54CHL1   C23 6461   5.794   0.639   8.881 -0.4949  0.2829  0.2111
   54CHL1  H23A 6462   5.891   0.590   8.857  0.3641  1.9580  0.0728
   54CHL1  H23B 6463   5.714   0.563   8.894 -0.0696 -0.4453 -1.1930
   54CHL1   C24 6464   5.751   0.729   8.765  0.1427  0.1830  1.0730
   54CHL1  H24A 6465   5.658   0.786   8.788 -0.9268 -1.2573  0.4314
   54CHL1  H24B 6466   5.830   0.807   8.759 -0.2150  0.4677 -0.0223
   54CHL1   C25 6467   5.724   0.653   8.639 -0.0975 -0.3689  0.4752
   54CHL1   H25 6468   5.697   0.722   8.556  0.9153 -0.4889  0.0236
   54CHL1   C26 6469   5.849   0.579   8.596 -0.0070  0.0989 -0.3762
   54CHL1  H26A 6470   5.858   0.549   8.489 -1.5441 -0.5786 -0.3331
   54CHL1  H26B 6471   5.933   0.650   8.612 -0.4270 -0.0486  3.3297
   54CHL1  H26C 6472   5.869   0.490   8.659  0.2690  0.7218  0.4365
   54CHL1   C27 6473   5.610   0.548   8.640  0.1974 -0.0522  0.1673
   54CHL1  H27A 6474   5.529   0.612   8.681  0.6384  1.5013 -1.2712
   54CHL1  H27B 6475   5.585   0.505   8.541  0.4306  1.2346 -0.4823
   54CHL1  H27C 6476   5.642   0.475   8.717 -0.0678 -0.7986 -0.4177
   55CHL1    C3 6477   1.344   5.318  10.190  0.1958  0.4374  0.3581
   55CHL1    H3 6478   1.257   5.386  10.201  0.3109  0.7745 -0.6837
   55CHL1    O3 6479   1.363   5.250  10.314  0.1051  0.2896  0.3961
   55CHL1   H3' 6480   1.452   5.273  10.340  0.0246 -0.1776  1.1223
   55CHL1    C4 6481   1.322   5.213  10.083 -0.4004 -0.0702  0.5640
   55CHL1   H4A 6482   1.406   5.140  10.080 -2.2311 -2.2589 -0.5387
   55CHL1   H4B 6483   1.234   5.150  10.108  1.4774 -3.9516 -1.6054
   55CHL1    C5 6484   1.318   5.275   9.946  0.0742 -0.1752  0.2040
   55CHL1    C6 6485   1.215   5.255   9.861 -0.4041  0.4838 -0.6369
   55CHL1    H6 6486   1.126   5.197   9.890  0.0438 -0.9805 -2.0479
   55CHL1    C7 6487   1.208   5.294   9.718 -0.0416 -0.5134  0.3318
   55CHL1   H7A 6488   1.167   5.220   9.647 -0.5563 -1.3952  1.5136
   55CHL1   H7B 6489   1.138   5.380   9.714  1.0649  0.5276  1.7764
   55CHL1    C8 6490   1.343   5.340   9.662 -0.7011 -0.2409 -0.4577
   55CHL1    H8 6491   1.415   5.261   9.633  0.8088  1.3096 -1.1360
   55CHL1   C14 6492   1.321   5.431   9.537  0.3580  0.2266 -0.0651
   55CHL1   H14 6493   1.257   5.513   9.574 -0.4917  0.2026 -1.4141
   55CHL1   C15 6494   1.247   5.368   9.413 -0.2825 -0.4342 -0.3175
   55CHL1  H15A 6495   1.294   5.268   9.401  1.3065  0.1699  0.5540
   55CHL1  H15B 6496   1.142   5.370   9.452  0.1925  1.8959  1.0531
   55CHL1   C16 6497   1.274   5.459   9.302  0.2191 -0.8152  0.2146
   55CHL1  H16A 6498   1.285   5.414   9.201 -0.0678 -1.7497  0.5925
   55CHL1  H16B 6499   1.195   5.535   9.281  0.5261 -1.0271 -1.8786
   55CHL1   C17 6500   1.393   5.558   9.349  0.0280 -0.3564  0.1816
   55CHL1   H17 6501   1.346   5.652   9.383 -1.4685 -0.5808 -1.1646
   55CHL1   C13 6502   1.448   5.497   9.480  0.1689  0.0159  0.0929
   55CHL1   C18 6503   1.550   5.389   9.438 -0.0358  0.0021 -0.3278
   55CHL1  H18A 6504   1.576   5.319   9.520 -1.5662 -0.8828 -0.5530
   55CHL1  H18B 6505   1.513   5.326   9.354 -1.6747 -0.6656  0.8342
   55CHL1  H18C 6506   1.650   5.432   9.419 -0.1901  0.6772  0.3390
   55CHL1   C12 6507   1.505   5.595   9.590 -0.6640 -0.1337 -0.2787
   55CHL1  H12A 6508   1.602   5.643   9.564 -0.0099 -1.7280 -0.9378
   55CHL1  H12B 6509   1.431   5.672   9.623  0.1624  0.2401  0.7600
   55CHL1   C11 6510   1.541   5.509   9.713 -0.3629 -0.1484  1.1234
   55CHL1  H11A 6511   1.619   5.439   9.676 -2.8340 -1.8207 -1.3217
   55CHL1  H11B 6512   1.596   5.569   9.789  0.4596  2.0751 -1.0931
   55CHL1    C9 6513   1.419   5.426   9.766  0.6729 -0.3545  0.0631
   55CHL1    H9 6514   1.344   5.503   9.795  1.9972  0.4164  1.6834
   55CHL1   C10 6515   1.440   5.361   9.901  0.5743  0.1462 -0.1554
   55CHL1   C19 6516   1.568   5.267   9.890  0.1004 -0.2186 -0.0890
   55CHL1  H19A 6517   1.553   5.187   9.815  1.6062 -0.7332  0.1325
   55CHL1  H19B 6518   1.663   5.325   9.885 -0.2447  0.5244  1.3350
   55CHL1  H19C 6519   1.585   5.212   9.985  0.6743  1.8432  1.0799
   55CHL1    C1 6520   1.457   5.463  10.015 -0.1816 -0.1216 -0.0011
   55CHL1   H1A 6521   1.557   5.511  10.000  0.0281 -0.3436  0.6553
   55CHL1   H1B 6522   1.384   5.546  10.027 -2.0899 -1.6485 -0.5963
   55CHL1    C2 6523   1.466   5.399  10.157 -1.0830  0.1978  0.2400
   55CHL1   H2A 6524   1.472   5.473  10.240  1.1037 -1.0377  1.2681
   55CHL1   H2B 6525   1.554   5.333  10.174 -1.8511 -1.3163 -1.3625
   55CHL1   C20 6526   1.484   5.586   9.232 -0.6722 -1.0114 -0.4402
   55CHL1   H20 6527   1.540   5.498   9.195  1.0919  0.1580 -0.6459
   55CHL1   C21 6528   1.594   5.685   9.277  0.0626  0.5035  0.1006
   55CHL1  H21A 6529   1.558   5.785   9.311  1.9688  1.7387 -1.3289
   55CHL1  H21B 6530   1.663   5.713   9.195 -0.0135  0.6654  0.0918
   55CHL1  H21C 6531   1.661   5.655   9.360  2.2984  2.3180 -0.9319
   55CHL1   C22 6532   1.414   5.648   9.108 -0.1145 -0.3978  0.1857
   55CHL1  H22A 6533   1.321   5.588   9.095 -1.4736  1.7274 -0.4597
   55CHL1  H22B 6534   1.395   5.756   9.122 -1.2709 -0.5714  0.0678
   55CHL1   C23 6535   1.495   5.621   8.983 -0.3783  0.0206  0.7598
   55CHL1  H23A 6536   1.598   5.660   8.992 -1.1143  2.6835 -1.0137
   55CHL1  H23B 6537   1.517   5.512   8.975  0.4101 -0.0333  3.0878
   55CHL1   C24 6538   1.418   5.671   8.861  0.3006  0.0875 -0.1689
   55CHL1  H24A 6539   1.326   5.610   8.848  0.1587  0.6614 -2.4254
   55CHL1  H24B 6540   1.385   5.776   8.880 -0.5243 -0.2177  0.1255
   55CHL1   C25 6541   1.500   5.682   8.732  0.2339 -0.0121 -0.1255
   55CHL1   H25 6542   1.436   5.729   8.654 -0.5074 -0.3622  0.2649
   55CHL1   C26 6543   1.626   5.766   8.735 -0.3793 -0.1927 -0.2568
   55CHL1  H26A 6544   1.658   5.785   8.631  1.2030  2.2778  0.5757
   55CHL1  H26B 6545   1.621   5.865   8.786  0.4716 -0.2898  0.0329
   55CHL1  H26C 6546   1.708   5.712   8.788 -1.0692  1.4088  2.7154
   55CHL1   C27 6547   1.529   5.541   8.677  0.5378  0.7216 -0.0026
   55CHL1  H27A 6548   1.595   5.492   8.753 -0.6481  1.8432  1.8395
   55CHL1  H27B 6549   1.437   5.478   8.667  2.0746 -1.4570 -1.2800
   55CHL1  H27C 6550   1.559   5.551   8.571 -0.6120 -0.6017 -0.4952
   56CHL1    C3 6551   5.124   2.044  10.032 -0.1089 -0.0590  0.7199
   56CHL1    H3 6552   5.135   1.937  10.060  2.0608  0.2501  1.2209
   56CHL1    O3 6553   5.106   2.122  10.154  0.4343  0.0942  0.0265
   56CHL1   H3' 6554   5.018   2.100  10.186  1.2065  0.3931  2.5665
   56CHL1    C4 6555   5.250   2.098   9.958 -0.4651  0.2885  0.4408
   56CHL1   H4A 6556   5.242   2.208   9.959 -2.1217  0.2190  2.4299
   56CHL1   H4B 6557   5.341   2.075  10.017  2.3317  1.1100 -3.1976
   56CHL1    C5 6558   5.282   2.046   9.821  0.0230  0.5117 -0.1308
   56CHL1    C6 6559   5.402   1.986   9.791 -0.1102  0.4726  0.8822
   56CHL1    H6 6560   5.481   1.970   9.867 -0.3470  0.9106  1.2287
   56CHL1    C7 6561   5.422   1.925   9.657  1.1930  0.0160  0.0319
   56CHL1   H7A 6562   5.518   1.960   9.614  0.8233  0.2129 -0.6525
   56CHL1   H7B 6563   5.409   1.815   9.665 -2.2784  0.2993  0.1449
   56CHL1    C8 6564   5.317   1.973   9.545 -0.4782 -0.4913  0.2623
   56CHL1    H8 6565   5.347   2.077   9.524 -0.7701 -0.6180 -0.8645
   56CHL1   C14 6566   5.335   1.880   9.429  0.0239  0.2254  0.2757
   56CHL1   H14 6567   5.309   1.779   9.465  0.5111  0.1900  0.5313
   56CHL1   C15 6568   5.479   1.855   9.365  0.4161  0.8059  0.8172
   56CHL1  H15A 6569   5.540   1.944   9.336  0.6139  0.1900 -0.7993
   56CHL1  H15B 6570   5.539   1.797   9.438  0.3038 -0.8988 -0.3770
   56CHL1   C16 6571   5.444   1.770   9.245 -0.3993  0.7463 -0.0942
   56CHL1  H16A 6572   5.497   1.823   9.162 -0.6047  0.8891 -0.1378
   56CHL1  H16B 6573   5.481   1.665   9.248  0.8768  1.1966  1.7878
   56CHL1   C17 6574   5.291   1.784   9.220 -0.3081  0.0781  0.4059
   56CHL1   H17 6575   5.244   1.693   9.262 -0.0333 -1.0159 -1.5309
   56CHL1   C13 6576   5.244   1.902   9.311  0.0707 -0.3359  0.1113
   56CHL1   C18 6577   5.274   2.035   9.238 -0.3173 -0.2345  0.4087
   56CHL1  H18A 6578   5.201   2.059   9.156  0.3045  0.2931 -0.0034
   56CHL1  H18B 6579   5.289   2.120   9.308  1.7782 -0.6125  0.4841
   56CHL1  H18C 6580   5.370   2.022   9.184 -0.6187  1.0287 -0.4804
   56CHL1   C12 6581   5.103   1.895   9.365 -0.1305 -0.0403 -0.0010
   56CHL1  H12A 6582   5.028   1.928   9.290 -0.4384 -0.3173  0.1813
   56CHL1  H12B 6583   5.076   1.796   9.408 -0.7521  0.1887  0.1480
   56CHL1   C11 6584   5.080   1.995   9.485  0.2821  0.3669  0.3560
   56CHL1  H11A 6585   5.098   2.096   9.443  1.5847  0.0188  0.0267
   56CHL1  H11B 6586   4.974   1.992   9.518  0.0802 -0.0883 -0.2986
   56CHL1    C9 6587   5.176   1.970   9.601  0.6852  1.1863 -0.0313
   56CHL1    H9 6588   5.173   1.860   9.620  1.4475  1.0773 -0.5246
   56CHL1   C10 6589   5.150   2.048   9.729  0.1198  0.5492  0.0515
   56CHL1   C19 6590   5.134   2.192   9.677  0.5197  0.1842 -0.1863
   56CHL1  H19A 6591   5.134   2.264   9.761  1.6840  1.7328 -1.4614
   56CHL1  H19B 6592   5.211   2.216   9.600  0.1089 -0.1274 -0.7002
   56CHL1  H19C 6593   5.033   2.207   9.633  0.4902 -0.1104 -0.2205
   56CHL1    C1 6594   5.024   1.994   9.807 -0.3075 -0.2722  0.1180
   56CHL1   H1A 6595   4.941   2.011   9.736 -0.7637 -2.1989  0.1480
   56CHL1   H1B 6596   5.036   1.884   9.815 -0.8768 -0.3619 -0.2282
   56CHL1    C2 6597   5.001   2.064   9.940  0.4453  0.1197 -0.0740
   56CHL1   H2A 6598   4.922   2.011   9.997  1.1648  2.2233  3.1574
   56CHL1   H2B 6599   4.977   2.172   9.927  0.2984 -0.1883 -3.1586
   56CHL1   C20 6600   5.255   1.768   9.072  0.6557 -0.4804 -0.2410
   56CHL1   H20 6601   5.269   1.867   9.024 -0.4629 -0.2423 -0.1028
   56CHL1   C21 6602   5.103   1.734   9.059 -0.0415 -0.4560  0.0418
   56CHL1  H21A 6603   5.055   1.821   9.109 -0.7840 -0.2705 -0.9831
   56CHL1  H21B 6604   5.089   1.645   9.124  0.5205 -0.3986  0.2487
   56CHL1  H21C 6605   5.063   1.727   8.956  2.1143 -0.9063 -0.8217
   56CHL1   C22 6606   5.335   1.657   8.998 -0.0412  0.6353  0.2541
   56CHL1  H22A 6607   5.435   1.702   8.982  1.0201 -1.0947  1.7130
   56CHL1  H22B 6608   5.335   1.559   9.050  0.6282 -0.7863 -2.2317
   56CHL1   C23 6609   5.288   1.624   8.858 -0.4351  0.2644 -0.1367
   56CHL1  H23A 6610   5.198   1.557   8.858 -0.1238 -0.1633 -0.5726
   56CHL1  H23B 6611   5.265   1.722   8.810  2.1477  1.1856  0.3882
   56CHL1   C24 6612   5.384   1.557   8.766  0.3657 -0.2219 -0.1165
   56CHL1  H24A 6613   5.465   1.626   8.735 -0.8047  0.4396 -1.8450
   56CHL1  H24B 6614   5.436   1.471   8.813 -1.3495 -0.7007  1.0135
   56CHL1   C25 6615   5.333   1.506   8.633  0.7704 -0.0885  0.8242
   56CHL1   H25 6616   5.255   1.428   8.649 -1.5394  2.0456  0.4516
   56CHL1   C26 6617   5.256   1.622   8.558  0.5030  0.3050  0.3414
   56CHL1  H26A 6618   5.257   1.594   8.450  0.8199 -2.9496  1.0894
   56CHL1  H26B 6619   5.150   1.626   8.592  0.6855 -1.1178  1.1434
   56CHL1  H26C 6620   5.304   1.719   8.582 -2.9508  2.2818 -0.0715
   56CHL1   C27 6621   5.452   1.447   8.549  0.2238  0.1359 -0.6032
   56CHL1  H27A 6622   5.414   1.426   8.446  0.2339  0.3968 -0.6624
   56CHL1  H27B 6623   5.530   1.527   8.540 -2.7564  3.4397  0.4679
   56CHL1  H27C 6624   5.480   1.353   8.601  0.8626  0.9765  0.6271
   57CHL1    C3 6625   2.030   5.558  10.466 -0.5032  0.6714  0.2474
   57CHL1    H3 6626   2.124   5.617  10.465 -0.4345  0.5890  1.3477
   57CHL1    O3 6627   1.997   5.538  10.600  0.3502  0.3976  0.2715
   57CHL1   H3' 6628   1.908   5.501  10.605 -0.8471  3.1330  2.9312
   57CHL1    C4 6629   1.909   5.628  10.398  0.7938  0.4427 -0.5853
   57CHL1   H4A 6630   1.821   5.562  10.410  0.2879  1.3057  0.7291
   57CHL1   H4B 6631   1.888   5.725  10.448  2.0350  2.4836 -3.7282
   57CHL1    C5 6632   1.937   5.660  10.254 -0.1172 -0.3133  0.3195
   57CHL1    C6 6633   1.934   5.789  10.206  0.3283  0.3780 -0.1674
   57CHL1    H6 6634   1.911   5.862  10.285 -0.1817 -0.3673  0.3907
   57CHL1    C7 6635   1.954   5.836  10.062  0.7982  0.4472 -0.0626
   57CHL1   H7A 6636   1.889   5.923  10.042 -1.8524 -1.4659 -0.3663
   57CHL1   H7B 6637   2.058   5.873  10.060  1.0908 -0.2025  1.4682
   57CHL1    C8 6638   1.942   5.708   9.973  0.0817 -0.6810 -0.2639
   57CHL1    H8 6639   1.834   5.692   9.957 -0.2364  0.2817  0.7971
   57CHL1   C14 6640   2.003   5.741   9.833 -0.5400 -0.9052 -0.1370
   57CHL1   H14 6641   2.108   5.773   9.849 -0.4669 -0.3233 -1.6790
   57CHL1   C15 6642   1.942   5.856   9.745  0.0852  0.4027  0.0929
   57CHL1  H15A 6643   1.831   5.851   9.753  0.0650  0.9089  0.1616
   57CHL1  H15B 6644   1.975   5.955   9.784  0.8438  0.3471 -0.3977
   57CHL1   C16 6645   1.984   5.827   9.591  0.0778 -0.8593 -0.6964
   57CHL1  H16A 6646   1.891   5.824   9.530  0.6402 -0.8626 -1.5648
   57CHL1  H16B 6647   2.056   5.904   9.556 -1.3746 -0.1175 -2.1854
   57CHL1   C17 6648   2.059   5.698   9.592 -0.4541  0.6959  0.3088
   57CHL1   H17 6649   2.166   5.721   9.605 -0.4044  1.5098 -1.4005
   57CHL1   C13 6650   2.006   5.632   9.726  0.0619 -0.3934 -0.3748
   57CHL1   C18 6651   1.860   5.581   9.703  0.2360 -0.5335  0.3108
   57CHL1  H18A 6652   1.805   5.657   9.644  0.7703  0.7264  1.3976
   57CHL1  H18B 6653   1.856   5.487   9.644  0.0940 -1.9337  2.4339
   57CHL1  H18C 6654   1.806   5.568   9.799  0.8044 -1.1328  0.5555
   57CHL1   C12 6655   2.095   5.529   9.789  0.1389 -0.3799 -0.1809
   57CHL1  H12A 6656   2.086   5.436   9.728 -0.0033 -0.9829  0.7475
   57CHL1  H12B 6657   2.200   5.563   9.798 -0.1587  0.5079  0.0783
   57CHL1   C11 6658   2.042   5.473   9.928 -0.5617 -0.1231  0.0848
   57CHL1  H11A 6659   1.939   5.437   9.904 -1.7504  2.5966  0.7471
   57CHL1  H11B 6660   2.101   5.384   9.960  0.5612  0.3799 -0.5215
   57CHL1    C9 6661   2.026   5.591  10.025  0.3090  0.3107  0.3210
   57CHL1    H9 6662   2.126   5.638  10.037 -0.8245  2.7663  0.9850
   57CHL1   C10 6663   1.985   5.543  10.174  0.3095 -1.1057  0.1313
   57CHL1   C19 6664   1.859   5.451  10.155 -0.6829 -0.0837 -0.1494
   57CHL1  H19A 6665   1.879   5.358  10.098 -0.0056 -1.3576  2.0371
   57CHL1  H19B 6666   1.805   5.425  10.249  0.4044 -1.8294  0.0419
   57CHL1  H19C 6667   1.792   5.516  10.095  1.2622  0.2458 -2.0870
   57CHL1    C1 6668   2.092   5.462  10.242 -0.5689 -0.1504 -0.7044
   57CHL1   H1A 6669   2.108   5.362  10.197  1.4286 -0.7141  1.1325
   57CHL1   H1B 6670   2.188   5.515  10.230 -0.5537 -0.2313 -0.9393
   57CHL1    C2 6671   2.073   5.431  10.395 -1.0606 -0.1813 -0.5891
   57CHL1   H2A 6672   2.161   5.382  10.442 -1.2700 -1.4753 -1.4959
   57CHL1   H2B 6673   1.988   5.362  10.415 -2.1552  1.1773 -0.3877
   57CHL1   C20 6674   2.042   5.621   9.463  0.3140  0.3538  0.3479
   57CHL1   H20 6675   1.936   5.587   9.465  0.1233  0.9067 -0.1331
   57CHL1   C21 6676   2.143   5.505   9.463  0.3660  0.1712 -0.0933
   57CHL1  H21A 6677   2.243   5.539   9.497  0.1871  0.9878 -0.3594
   57CHL1  H21B 6678   2.156   5.459   9.363 -0.1702 -0.3494  0.0675
   57CHL1  H21C 6679   2.099   5.429   9.531 -0.7492  0.7090 -0.1896
   57CHL1   C22 6680   2.046   5.709   9.335  0.2723  0.3685  0.8030
   57CHL1  H22A 6681   1.955   5.773   9.331  0.3064  0.3617 -2.3339
   57CHL1  H22B 6682   2.139   5.770   9.337 -1.6356  3.5382 -0.2321
   57CHL1   C23 6683   2.041   5.624   9.208  0.0700 -0.4687  0.1281
   57CHL1  H23A 6684   2.140   5.574   9.207 -0.1599 -0.9533  0.5357
   57CHL1  H23B 6685   1.961   5.547   9.216  0.4319 -0.9854 -1.0280
   57CHL1   C24 6686   2.021   5.707   9.082  0.5285  0.0896  0.0650
   57CHL1  H24A 6687   1.925   5.762   9.098  0.7247  0.1403  1.1463
   57CHL1  H24B 6688   2.098   5.787   9.083 -0.1820  0.8042  1.3397
   57CHL1   C25 6689   2.022   5.642   8.945  0.0498 -0.2485 -0.0340
   57CHL1   H25 6690   1.928   5.583   8.937  0.2328 -0.6713  0.8258
   57CHL1   C26 6691   2.029   5.746   8.829  0.5133  0.7941 -0.4961
   57CHL1  H26A 6692   1.979   5.841   8.854  0.5728  0.5529  0.5657
   57CHL1  H26B 6693   2.135   5.776   8.818  0.7134  0.1303 -0.4535
   57CHL1  H26C 6694   1.990   5.696   8.738  0.7813  2.1323 -1.3712
   57CHL1   C27 6695   2.140   5.544   8.928  0.6396  0.2076  0.2134
   57CHL1  H27A 6696   2.232   5.600   8.955 -0.0775  1.2749  0.4876
   57CHL1  H27B 6697   2.118   5.470   9.008  0.1415 -2.0571 -1.8961
   57CHL1  H27C 6698   2.146   5.506   8.823  3.2459 -0.3292  0.4974
   58CHL1    C3 6699   2.219   1.629  10.057 -0.1196 -0.2441  0.4136
   58CHL1    H3 6700   2.164   1.537  10.027 -3.2611  1.9591 -1.1169
   58CHL1    O3 6701   2.261   1.610  10.188  0.0954 -0.0877  0.3150
   58CHL1   H3' 6702   2.303   1.694  10.210  0.0799 -0.4233  1.7570
   58CHL1    C4 6703   2.340   1.654   9.966 -1.3317 -0.2911  0.6415
   58CHL1   H4A 6704   2.388   1.740  10.018 -1.1849  0.3315 -0.5047
   58CHL1   H4B 6705   2.405   1.565   9.978 -1.5249 -0.2614  2.1603
   58CHL1    C5 6706   2.301   1.688   9.822 -0.5182  0.8584  0.4684
   58CHL1    C6 6707   2.370   1.625   9.725  0.6902  0.8071  0.8288
   58CHL1    H6 6708   2.459   1.564   9.746 -0.4950 -1.0468  0.6668
   58CHL1    C7 6709   2.326   1.643   9.584 -0.1136 -0.1127 -0.0902
   58CHL1   H7A 6710   2.412   1.638   9.514 -1.4665  0.1346 -1.8372
   58CHL1   H7B 6711   2.271   1.551   9.557  0.4399 -0.4394 -0.1177
   58CHL1    C8 6712   2.240   1.769   9.550 -0.2625 -0.0501  0.1320
   58CHL1    H8 6713   2.305   1.859   9.559  0.8010 -0.4340 -2.5751
   58CHL1   C14 6714   2.177   1.753   9.415  0.3481  0.8563  0.6994
   58CHL1   H14 6715   2.116   1.660   9.419  2.6429 -0.6838  1.8443
   58CHL1   C15 6716   2.265   1.741   9.293  0.3600  0.6347  0.2715
   58CHL1  H15A 6717   2.334   1.828   9.306 -0.6664  1.1330  2.7973
   58CHL1  H15B 6718   2.315   1.642   9.289 -0.5246  0.0692  2.1480
   58CHL1   C16 6719   2.165   1.757   9.181 -0.0120 -1.2775 -0.1762
   58CHL1  H16A 6720   2.205   1.813   9.093  0.4632  0.0667  0.8735
   58CHL1  H16B 6721   2.143   1.657   9.138 -1.1666 -0.5615 -1.3487
   58CHL1   C17 6722   2.031   1.811   9.239  0.3008 -0.1145 -0.0825
   58CHL1   H17 6723   1.968   1.723   9.261 -0.8120  0.7810  0.4092
   58CHL1   C13 6724   2.061   1.854   9.381 -0.5781 -0.3727  0.3704
   58CHL1   C18 6725   2.123   1.998   9.377 -0.2864 -0.3124 -0.6275
   58CHL1  H18A 6726   2.196   2.014   9.459 -0.1160 -0.6771 -0.7092
   58CHL1  H18B 6727   2.188   2.012   9.288 -0.7537  1.8719 -0.6757
   58CHL1  H18C 6728   2.048   2.080   9.379  1.6343  1.5203  0.3041
   58CHL1   C12 6729   1.950   1.845   9.483  0.2980 -0.1781 -0.7082
   58CHL1  H12A 6730   1.860   1.908   9.469  0.2234 -0.7170 -3.0610
   58CHL1  H12B 6731   1.917   1.739   9.481  1.1339 -0.4433 -1.5505
   58CHL1   C11 6732   2.013   1.879   9.617  0.2522 -0.4286 -0.3418
   58CHL1  H11A 6733   2.054   1.982   9.624  0.2930 -0.5449  2.5532
   58CHL1  H11B 6734   1.926   1.874   9.687 -0.6709  2.1514 -1.1973
   58CHL1    C9 6735   2.128   1.775   9.657  0.3714 -0.8450  0.1182
   58CHL1    H9 6736   2.081   1.674   9.655 -0.6590 -0.4191  1.2200
   58CHL1   C10 6737   2.183   1.786   9.801  0.1214  0.7304 -0.4872
   58CHL1   C19 6738   2.237   1.928   9.832 -0.2140 -0.6014 -0.1213
   58CHL1  H19A 6739   2.260   1.933   9.941  1.2145  0.1953 -0.4398
   58CHL1  H19B 6740   2.331   1.953   9.779  0.4916  1.2169  1.8382
   58CHL1  H19C 6741   2.161   2.007   9.816 -0.1520 -0.1859  1.4591
   58CHL1    C1 6742   2.067   1.766   9.901 -0.1130 -0.2982  0.1156
   58CHL1   H1A 6743   2.016   1.865   9.906  3.3813  1.6689 -0.0825
   58CHL1   H1B 6744   1.996   1.684   9.877  2.4176 -2.6151  0.1232
   58CHL1    C2 6745   2.116   1.741  10.054  0.4243 -0.1381 -0.3098
   58CHL1   H2A 6746   2.038   1.716  10.129  0.4214  0.3199 -0.1558
   58CHL1   H2B 6747   2.160   1.835  10.094 -0.7045 -0.5193  1.9714
   58CHL1   C20 6748   1.960   1.912   9.148  0.0181  0.1648  0.2772
   58CHL1   H20 6749   2.033   1.996   9.139  0.5037 -0.3316 -0.5836
   58CHL1   C21 6750   1.824   1.960   9.209 -0.3519 -0.4433  0.1372
   58CHL1  H21A 6751   1.768   2.024   9.138  3.0546  4.0095  0.9674
   58CHL1  H21B 6752   1.839   2.020   9.302 -0.8765  0.1326 -0.1424
   58CHL1  H21C 6753   1.777   1.866   9.244  3.0621 -1.7481  1.7356
   58CHL1   C22 6754   1.945   1.861   9.001  0.1393 -0.5172 -0.2460
   58CHL1  H22A 6755   2.012   1.776   8.977  3.1678  1.1757  1.5972
   58CHL1  H22B 6756   1.845   1.812   8.997  0.3852 -0.9827 -0.9549
   58CHL1   C23 6757   1.954   1.968   8.892 -0.2309  0.1150  0.8044
   58CHL1  H23A 6758   1.885   2.053   8.914  0.5679  0.8799  0.4115
   58CHL1  H23B 6759   2.060   1.999   8.896  0.7205 -1.9614 -3.3011
   58CHL1   C24 6760   1.927   1.916   8.750 -1.0593 -0.1354 -0.0206
   58CHL1  H24A 6761   1.938   2.000   8.679 -0.1643 -0.5453 -0.3910
   58CHL1  H24B 6762   2.007   1.844   8.722 -1.8926 -0.9149 -0.4643
   58CHL1   C25 6763   1.800   1.829   8.743  0.9221  0.1681  0.7651
   58CHL1   H25 6764   1.809   1.746   8.817  1.5645 -1.4176 -1.0087
   58CHL1   C26 6765   1.666   1.909   8.763  0.2454 -0.7567  0.5054
   58CHL1  H26A 6766   1.579   1.846   8.733  0.9583 -1.4207 -0.1931
   58CHL1  H26B 6767   1.658   1.930   8.872 -1.6607 -1.5442  0.5584
   58CHL1  H26C 6768   1.663   2.006   8.708  0.2315 -1.2713 -0.4103
   58CHL1   C27 6769   1.783   1.758   8.604 -0.3038 -0.5426 -0.7482
   58CHL1  H27A 6770   1.764   1.823   8.515  2.6787 -0.1993 -1.2372
   58CHL1  H27B 6771   1.882   1.714   8.579  0.1913  0.1649 -0.0857
   58CHL1  H27C 6772   1.705   1.682   8.625  0.0573 -0.7508 -0.1518
   59CHL1    C3 6773   3.592   2.287  10.231  0.2157 -0.4978 -0.3823
   59CHL1    H3 6774   3.603   2.180  10.206  2.4605 -0.7755  1.4825
   59CHL1    O3 6775   3.597   2.304  10.375  0.0605 -0.1724  0.0204
   59CHL1   H3' 6776   3.680   2.265  10.403 -0.2773 -0.3450  0.8100
   59CHL1    C4 6777   3.718   2.357  10.185  0.7143 -0.5786  0.0849
   59CHL1   H4A 6778   3.717   2.465  10.211  0.0718 -0.5184 -0.1786
   59CHL1   H4B 6779   3.802   2.304  10.235 -0.5331 -3.1756 -0.3546
   59CHL1    C5 6780   3.724   2.363  10.029  0.2276 -0.5182  0.2393
   59CHL1    C6 6781   3.837   2.318   9.969 -0.0422 -0.5880  0.7715
   59CHL1    H6 6782   3.928   2.301  10.029  0.3122 -0.9841  0.1331
   59CHL1    C7 6783   3.852   2.316   9.821  0.0027  0.6933  0.0903
   59CHL1   H7A 6784   3.945   2.373   9.800  1.5979 -1.7304  0.2047
   59CHL1   H7B 6785   3.874   2.211   9.793  0.8270  0.3586  1.8711
   59CHL1    C8 6786   3.746   2.388   9.734 -0.3423 -0.0738 -0.4759
   59CHL1    H8 6787   3.767   2.497   9.740 -3.1759  0.5107  0.5183
   59CHL1   C14 6788   3.746   2.342   9.588  0.4342  0.1239  0.1623
   59CHL1   H14 6789   3.720   2.235   9.596  0.6374 -0.2056 -2.5384
   59CHL1   C15 6790   3.882   2.337   9.512 -0.4546  0.7402 -0.1637
   59CHL1  H15A 6791   3.932   2.434   9.533 -1.5732  1.3742 -0.3658
   59CHL1  H15B 6792   3.945   2.256   9.556 -1.1539  0.3359  0.1009
   59CHL1   C16 6793   3.833   2.317   9.368 -0.1327  0.3704  0.3421
   59CHL1  H16A 6794   3.884   2.382   9.293 -2.0448 -0.1488 -1.5096
   59CHL1  H16B 6795   3.856   2.214   9.334 -1.9605  0.0035  0.1219
   59CHL1   C17 6796   3.677   2.336   9.358  0.0279 -0.9102 -0.5270
   59CHL1   H17 6797   3.632   2.234   9.362 -1.0665 -0.5009 -1.5782
   59CHL1   C13 6798   3.646   2.408   9.493 -0.4775 -0.9762  0.1143
   59CHL1   C18 6799   3.662   2.562   9.487 -0.3105 -0.1807 -0.0775
   59CHL1  H18A 6800   3.657   2.617   9.583 -1.5050  0.1031 -0.2886
   59CHL1  H18B 6801   3.757   2.582   9.431  0.0666  2.1842  1.2511
   59CHL1  H18C 6802   3.585   2.605   9.418  0.6717  0.5618 -0.7474
   59CHL1   C12 6803   3.504   2.384   9.555  0.0480  0.0999  0.5574
   59CHL1  H12A 6804   3.431   2.453   9.506 -1.5335 -0.8879  1.4166
   59CHL1  H12B 6805   3.481   2.276   9.543  0.8033 -0.1854  1.6450
   59CHL1   C11 6806   3.489   2.419   9.706 -0.2808 -0.3472 -0.5296
   59CHL1  H11A 6807   3.495   2.530   9.707  0.5603 -0.3304  2.5177
   59CHL1  H11B 6808   3.391   2.397   9.753  1.0876 -1.9427  1.7636
   59CHL1    C9 6809   3.608   2.365   9.798  0.1865 -0.1509  0.3450
   59CHL1    H9 6810   3.592   2.255   9.793 -2.2008  0.1772 -0.0200
   59CHL1   C10 6811   3.595   2.398   9.953 -0.1337 -0.4930 -0.0731
   59CHL1   C19 6812   3.572   2.550   9.962  0.0778 -0.0472 -0.5360
   59CHL1  H19A 6813   3.463   2.571   9.959 -0.2202 -1.3207  0.6965
   59CHL1  H19B 6814   3.598   2.601  10.058 -0.9278  1.4406 -1.0069
   59CHL1  H19C 6815   3.620   2.612   9.883  1.4281  1.0025  1.0201
   59CHL1    C1 6816   3.478   2.322  10.016  0.2434  0.1478  0.2197
   59CHL1   H1A 6817   3.382   2.359   9.974  1.1653  1.8245 -0.4956
   59CHL1   H1B 6818   3.486   2.212  10.003  2.0276  0.4779 -2.2916
   59CHL1    C2 6819   3.466   2.343  10.168  0.3495  0.5492 -0.4063
   59CHL1   H2A 6820   3.373   2.293  10.201  0.4854  0.1155 -0.6726
   59CHL1   H2B 6821   3.444   2.449  10.194  1.4514  0.0749  2.9506
   59CHL1   C20 6822   3.619   2.393   9.220 -0.3164 -0.0592  0.3282
   59CHL1   H20 6823   3.674   2.486   9.194  1.6713 -1.8399 -2.4024
   59CHL1   C21 6824   3.470   2.421   9.220 -0.4327 -0.0092 -0.2555
   59CHL1  H21A 6825   3.438   2.497   9.294 -0.7177 -1.5378  1.2456
   59CHL1  H21B 6826   3.426   2.325   9.256 -0.0758  0.2119  0.8106
   59CHL1  H21C 6827   3.424   2.461   9.127  0.7674  1.4115 -0.2761
   59CHL1   C22 6828   3.654   2.293   9.111 -0.4939  0.4184 -0.6311
   59CHL1  H22A 6829   3.751   2.239   9.120 -0.7870 -0.1228 -0.7327
   59CHL1  H22B 6830   3.586   2.207   9.124 -0.0717  0.3103  1.1409
   59CHL1   C23 6831   3.642   2.337   8.970 -0.2912  0.2176  0.1110
   59CHL1  H23A 6832   3.535   2.343   8.942 -1.6461 -1.8732  4.0507
   59CHL1  H23B 6833   3.705   2.427   8.950  1.9592 -1.0489  1.0720
   59CHL1   C24 6834   3.714   2.235   8.883 -0.6555 -0.3207 -0.1010
   59CHL1  H24A 6835   3.822   2.251   8.905 -1.1307  3.3907  0.1266
   59CHL1  H24B 6836   3.691   2.136   8.927 -1.6769  0.9378  2.4224
   59CHL1   C25 6837   3.697   2.236   8.733 -0.0928  0.5195 -0.8578
   59CHL1   H25 6838   3.591   2.245   8.701  0.4781 -1.6256 -3.7339
   59CHL1   C26 6839   3.797   2.334   8.670 -0.1458  0.3019  0.2747
   59CHL1  H26A 6840   3.784   2.345   8.561 -2.3758  3.0203  0.6964
   59CHL1  H26B 6841   3.768   2.431   8.716  1.6813  0.7044  0.6594
   59CHL1  H26C 6842   3.901   2.310   8.699 -0.2594  0.1071  0.5234
   59CHL1   C27 6843   3.734   2.095   8.676  0.3604 -0.7374  0.1927
   59CHL1  H27A 6844   3.658   2.025   8.718 -0.6928 -0.0703 -0.5416
   59CHL1  H27B 6845   3.736   2.095   8.565  0.3557  0.0212  0.1874
   59CHL1  H27C 6846   3.831   2.047   8.701  0.2447 -1.4753 -0.7243
   60CHL1    C3 6847   1.872   2.895  10.661 -0.5107 -0.0190  0.2637
   60CHL1    H3 6848   1.972   2.903  10.709  0.2727 -4.3639 -0.2214
   60CHL1    O3 6849   1.774   2.900  10.757 -0.2359  0.0574  0.6254
   60CHL1   H3' 6850   1.689   2.909  10.712 -0.5129 -2.3908  0.5588
   60CHL1    C4 6851   1.845   3.012  10.562 -0.2841  0.4550  0.2031
   60CHL1   H4A 6852   1.735   3.015  10.544 -0.4214 -2.7984 -0.0359
   60CHL1   H4B 6853   1.856   3.104  10.623 -0.4187  1.7742 -1.6656
   60CHL1    C5 6854   1.929   3.020  10.434  0.8500  0.3856  0.4502
   60CHL1    C6 6855   1.982   3.137  10.393  0.4446  0.1676 -0.5907
   60CHL1    H6 6856   1.976   3.222  10.463 -1.7342 -0.2822 -0.1776
   60CHL1    C7 6857   2.056   3.149  10.268 -0.0989 -0.3123 -0.0809
   60CHL1   H7A 6858   2.044   3.252  10.228 -0.7233 -0.4310 -0.2200
   60CHL1   H7B 6859   2.164   3.132  10.288  0.1670 -0.6882 -1.6923
   60CHL1    C8 6860   2.022   3.036  10.164  0.3710 -0.4292  0.1382
   60CHL1    H8 6861   1.914   3.051  10.147  0.5252  0.8680  0.2091
   60CHL1   C14 6862   2.104   3.041  10.037 -0.0701 -0.2267 -0.2178
   60CHL1   H14 6863   2.210   3.044  10.070  0.2714 -0.2781 -1.2755
   60CHL1   C15 6864   2.096   3.170   9.950 -0.9294 -0.7313 -0.2475
   60CHL1  H15A 6865   1.986   3.183   9.935 -0.5495  3.6292 -0.4636
   60CHL1  H15B 6866   2.147   3.261   9.988  1.6918 -1.8789 -0.8134
   60CHL1   C16 6867   2.151   3.124   9.816  0.0933 -0.4494 -0.2922
   60CHL1  H16A 6868   2.073   3.159   9.746 -0.1288  1.8319  0.9925
   60CHL1  H16B 6869   2.252   3.161   9.786 -0.2481 -0.2572 -1.2272
   60CHL1   C17 6870   2.175   2.969   9.821 -0.1006  0.1768 -0.5044
   60CHL1   H17 6871   2.280   2.951   9.851  0.0696 -0.1069 -1.2400
   60CHL1   C13 6872   2.089   2.919   9.938  0.7111 -0.4031  0.0172
   60CHL1   C18 6873   1.944   2.914   9.894 -0.1756  0.2338 -0.2118
   60CHL1  H18A 6874   1.936   2.822   9.832  0.1960  0.6035 -0.8267
   60CHL1  H18B 6875   1.889   2.887   9.987  2.4202  0.9765  1.6424
   60CHL1  H18C 6876   1.900   2.995   9.831 -0.3196 -1.7817 -2.9119
   60CHL1   C12 6877   2.142   2.791  10.009  0.1197  0.0114  0.4755
   60CHL1  H12A 6878   2.150   2.703   9.941  2.0629  1.5372 -1.4054
   60CHL1  H12B 6879   2.241   2.819  10.052 -0.0048  2.9773 -0.9289
   60CHL1   C11 6880   2.054   2.769  10.140 -1.0632  0.0483  0.2914
   60CHL1  H11A 6881   1.960   2.725  10.100 -0.3948 -0.0976 -1.1844
   60CHL1  H11B 6882   2.100   2.682  10.193 -0.6601 -0.7326 -1.2601
   60CHL1    C9 6883   2.040   2.895  10.233 -0.1673  0.3147 -1.0134
   60CHL1    H9 6884   2.132   2.908  10.294 -1.9671  2.4580  1.4502
   60CHL1   C10 6885   1.932   2.886  10.348  0.0915 -0.0176 -0.2515
   60CHL1   C19 6886   1.794   2.859  10.288 -0.4792  0.5202  0.0323
   60CHL1  H19A 6887   1.756   2.938  10.219  0.4468  2.0684  1.2265
   60CHL1  H19B 6888   1.794   2.762  10.235 -1.3991  0.4348  0.1592
   60CHL1  H19C 6889   1.716   2.853  10.367 -0.1921 -0.3523  0.2610
   60CHL1    C1 6890   1.964   2.772  10.448 -0.2371  0.4563 -0.2398
   60CHL1   H1A 6891   1.965   2.676  10.392  0.5979  2.7488 -4.5800
   60CHL1   H1B 6892   2.064   2.800  10.488 -1.0926  1.7449  1.1158
   60CHL1    C2 6893   1.867   2.759  10.576  0.2187 -1.3756  0.1019
   60CHL1   H2A 6894   1.900   2.682  10.650 -2.7578 -1.6747  1.2674
   60CHL1   H2B 6895   1.763   2.726  10.558  0.1038 -0.6081 -0.6885
   60CHL1   C20 6896   2.178   2.899   9.682  0.0786  0.2128 -0.1219
   60CHL1   H20 6897   2.075   2.915   9.643  0.6716 -0.2809 -1.9867
   60CHL1   C21 6898   2.209   2.751   9.705  0.6158  0.2462 -0.8229
   60CHL1  H21A 6899   2.118   2.714   9.757  0.9435  1.7772  0.9492
   60CHL1  H21B 6900   2.296   2.732   9.771 -0.0953  1.3707  0.4970
   60CHL1  H21C 6901   2.215   2.685   9.616  0.3578 -2.2117  0.8953
   60CHL1   C22 6902   2.276   2.957   9.583 -0.4980 -0.1467  0.5458
   60CHL1  H22A 6903   2.258   3.066   9.570  1.0434 -0.1900 -3.2543
   60CHL1  H22B 6904   2.379   2.932   9.617 -0.3593  0.6626  0.7512
   60CHL1   C23 6905   2.249   2.895   9.441  0.4857  0.2744 -0.6791
   60CHL1  H23A 6906   2.286   2.790   9.442 -0.1100  0.0564 -0.0335
   60CHL1  H23B 6907   2.139   2.891   9.426  0.1920  2.9628  0.1043
   60CHL1   C24 6908   2.325   2.970   9.326  0.7947  0.9677 -0.0155
   60CHL1  H24A 6909   2.303   3.078   9.343 -2.6540  0.5222 -0.8143
   60CHL1  H24B 6910   2.432   2.944   9.325  0.5099 -0.4604 -2.5937
   60CHL1   C25 6911   2.262   2.933   9.189  0.4317 -0.0388  0.3918
   60CHL1   H25 6912   2.154   2.912   9.200  0.9325 -2.1432  1.8877
   60CHL1   C26 6913   2.284   3.048   9.085 -0.3518  0.2208 -0.2834
   60CHL1  H26A 6914   2.241   3.143   9.125  0.0677 -0.1241  1.0464
   60CHL1  H26B 6915   2.390   3.065   9.058 -0.0835 -0.9844 -0.0547
   60CHL1  H26C 6916   2.226   3.027   8.992 -2.2817  2.3913  0.3172
   60CHL1   C27 6917   2.331   2.805   9.138 -0.2299 -0.5397  0.0682
   60CHL1  H27A 6918   2.333   2.730   9.220  3.7479 -0.3422  0.3327
   60CHL1  H27B 6919   2.281   2.769   9.045 -0.6109  1.0116 -0.3590
   60CHL1  H27C 6920   2.435   2.831   9.111 -0.9876  1.5211 -1.0994
   61CHL1    C3 6921   5.261   3.917  10.361 -0.2147 -0.1675 -0.4677
   61CHL1    H3 6922   5.263   4.027  10.343 -0.8659 -0.3223 -1.5520
   61CHL1    O3 6923   5.255   3.889  10.503  0.1443  0.1440 -0.1996
   61CHL1   H3' 6924   5.329   3.944  10.529  1.4472 -1.3660 -0.5294
   61CHL1    C4 6925   5.148   3.854  10.290  0.6300  0.4598  0.4441
   61CHL1   H4A 6926   5.133   3.749  10.324 -1.3467  0.9398  1.2245
   61CHL1   H4B 6927   5.054   3.899  10.329 -0.6743 -0.8287 -1.0336
   61CHL1    C5 6928   5.153   3.858  10.142  0.5542 -0.3857  1.0654
   61CHL1    C6 6929   5.055   3.920  10.068  0.0548  0.2277 -0.8438
   61CHL1    H6 6930   4.970   3.958  10.126  1.1330  0.1578  0.8473
   61CHL1    C7 6931   5.063   3.939   9.922 -0.4129  0.8371  0.1392
   61CHL1   H7A 6932   4.965   3.923   9.872  0.0213  1.1748 -0.8465
   61CHL1   H7B 6933   5.096   4.045   9.913 -0.6530  0.7774 -1.8330
   61CHL1    C8 6934   5.164   3.852   9.851 -0.3907  0.6009 -0.1766
   61CHL1    H8 6935   5.137   3.744   9.841 -0.5730  0.7707 -1.9336
   61CHL1   C14 6936   5.192   3.907   9.711  0.4951 -0.2423 -1.1984
   61CHL1   H14 6937   5.229   4.009   9.734 -0.5700  0.7200 -3.4605
   61CHL1   C15 6938   5.075   3.932   9.613  0.3530  1.1333 -0.2664
   61CHL1  H15A 6939   5.001   3.850   9.615  1.4169  0.1695  1.0462
   61CHL1  H15B 6940   5.008   4.016   9.642 -0.6172 -0.4728  2.4319
   61CHL1   C16 6941   5.138   3.936   9.474 -0.4083 -0.4271  0.1217
   61CHL1  H16A 6942   5.096   3.854   9.412  1.0863  0.2103 -1.8484
   61CHL1  H16B 6943   5.108   4.035   9.432  1.9295  0.8961  1.3632
   61CHL1   C17 6944   5.282   3.918   9.497  0.6410 -0.0499  0.0121
   61CHL1   H17 6945   5.320   4.022   9.511  0.6637 -0.0014 -0.3954
   61CHL1   C13 6946   5.307   3.845   9.633  0.4503  1.1460 -0.6305
   61CHL1   C18 6947   5.278   3.693   9.614 -0.5427 -0.3123 -0.0869
   61CHL1  H18A 6948   5.268   3.633   9.707 -0.3637  0.3955  0.4026
   61CHL1  H18B 6949   5.191   3.673   9.547 -0.2927 -1.7938  0.0013
   61CHL1  H18C 6950   5.364   3.655   9.555 -0.1696  1.4237 -0.7326
   61CHL1   C12 6951   5.440   3.879   9.715  0.2845 -0.4170 -0.5700
   61CHL1  H12A 6952   5.535   3.848   9.666  1.4732  0.4373  1.0930
   61CHL1  H12B 6953   5.443   3.990   9.713 -0.0291 -0.4144 -1.4535
   61CHL1   C11 6954   5.426   3.835   9.856 -0.3704  0.0593 -0.5375
   61CHL1  H11A 6955   5.437   3.725   9.867 -3.7641 -0.6883 -2.9685
   61CHL1  H11B 6956   5.518   3.868   9.908  0.1070 -2.2497  0.2069
   61CHL1    C9 6957   5.291   3.873   9.932 -0.3406  0.0222  0.2174
   61CHL1    H9 6958   5.308   3.982   9.938  1.1982 -0.1784  0.0196
   61CHL1   C10 6959   5.292   3.821  10.077 -0.6421  0.5128 -0.2621
   61CHL1   C19 6960   5.319   3.672  10.081  0.3680 -0.0577  0.2889
   61CHL1  H19A 6961   5.285   3.628  10.177  1.1989 -1.0437  0.1464
   61CHL1  H19B 6962   5.249   3.626  10.008  0.5558 -1.7247  1.1252
   61CHL1  H19C 6963   5.426   3.650  10.061 -0.3751 -2.3266 -1.7514
   61CHL1    C1 6964   5.406   3.892  10.155 -0.3463  0.4860 -0.2909
   61CHL1   H1A 6965   5.500   3.846  10.118 -0.7744 -0.1476 -0.6041
   61CHL1   H1B 6966   5.414   4.001  10.134  1.1041  0.4411 -0.0667
   61CHL1    C2 6967   5.399   3.863  10.306  0.5168 -0.4519 -0.4609
   61CHL1   H2A 6968   5.485   3.917  10.352 -1.3648  2.2454  0.1713
   61CHL1   H2B 6969   5.404   3.753  10.323 -0.1897 -0.9092 -2.9274
   61CHL1   C20 6970   5.360   3.878   9.370  0.4720 -0.3628 -0.2489
   61CHL1   H20 6971   5.344   3.772   9.342  0.3154 -0.3123 -0.3491
   61CHL1   C21 6972   5.504   3.879   9.405 -0.0728 -0.4189  0.2242
   61CHL1  H21A 6973   5.524   3.793   9.471 -2.6733 -1.0382  0.3435
   61CHL1  H21B 6974   5.538   3.975   9.450 -0.9480 -0.5437  1.1846
   61CHL1  H21C 6975   5.567   3.868   9.314 -0.5276  0.7435 -0.2612
   61CHL1   C22 6976   5.344   3.973   9.245  0.6370  0.0679 -0.2739
   61CHL1  H22A 6977   5.239   3.964   9.210  0.2463  0.3461  0.7950
   61CHL1  H22B 6978   5.353   4.075   9.290 -1.4912 -0.0833  0.6374
   61CHL1   C23 6979   5.437   3.959   9.132 -0.1598  0.0757 -0.2091
   61CHL1  H23A 6980   5.532   4.001   9.171 -0.7698  1.0260  0.3052
   61CHL1  H23B 6981   5.455   3.852   9.109 -1.2742  0.0525 -1.0704
   61CHL1   C24 6982   5.396   4.035   9.007  0.5398 -0.0354 -0.0389
   61CHL1  H24A 6983   5.378   4.144   9.021 -0.4994 -0.3252  1.0806
   61CHL1  H24B 6984   5.485   4.024   8.941  0.5120 -0.5578  0.0034
   61CHL1   C25 6985   5.273   3.990   8.917  0.8100  0.2110  0.1546
   61CHL1   H25 6986   5.189   3.989   8.991  1.6068  0.9851  1.1029
   61CHL1   C26 6987   5.232   4.087   8.809 -0.4400  0.9685  0.0182
   61CHL1  H26A 6988   5.317   4.101   8.740  0.7120  1.1608  1.4182
   61CHL1  H26B 6989   5.150   4.043   8.749  0.4830 -1.9601  0.7418
   61CHL1  H26C 6990   5.196   4.187   8.843 -3.6385 -0.9867  3.1575
   61CHL1   C27 6991   5.268   3.843   8.871 -0.8367  0.4637  0.4838
   61CHL1  H27A 6992   5.348   3.812   8.800 -2.6235 -1.0394 -0.9893
   61CHL1  H27B 6993   5.274   3.778   8.961  1.9218  0.6869  0.5707
   61CHL1  H27C 6994   5.165   3.830   8.832  0.2185 -0.0738 -2.3747
   62CHL1    C3 6995   0.972   5.514  10.162  0.2084  1.1276 -0.3133
   62CHL1    H3 6996   1.046   5.441  10.123 -1.3451 -0.7272  0.0389
   62CHL1    O3 6997   0.954   5.481  10.299  0.1560  0.1694 -0.1239
   62CHL1   H3' 6998   0.920   5.559  10.345  2.3187 -0.2047  2.3620
   62CHL1    C4 6999   1.012   5.657  10.150  0.6778 -0.0722 -0.0446
   62CHL1   H4A 7000   0.931   5.719  10.195 -0.0779 -1.2711  0.2901
   62CHL1   H4B 7001   1.108   5.670  10.204 -0.0250 -0.7214  1.4075
   62CHL1    C5 7002   1.032   5.694   9.999  0.0361  0.3878  0.1057
   62CHL1    C6 7003   1.149   5.742   9.954  0.0863  0.3250 -0.3925
   62CHL1    H6 7004   1.234   5.740  10.024 -1.8250 -4.2693  2.2089
   62CHL1    C7 7005   1.187   5.798   9.819  0.0249 -0.8312  0.3060
   62CHL1   H7A 7006   1.221   5.903   9.832 -1.7584 -0.0951 -0.6227
   62CHL1   H7B 7007   1.262   5.731   9.771  1.7179  0.4585  1.0185
   62CHL1    C8 7008   1.052   5.813   9.737  0.2979 -0.7163  0.8797
   62CHL1    H8 7009   1.008   5.909   9.773  1.5980  0.9670 -1.7751
   62CHL1   C14 7010   1.090   5.803   9.589  0.8249 -0.0227  0.3440
   62CHL1   H14 7011   1.126   5.701   9.562 -1.2633 -1.0341  1.0742
   62CHL1   C15 7012   1.195   5.901   9.536 -0.4058 -0.3846 -0.2886
   62CHL1  H15A 7013   1.184   6.000   9.584 -4.4858  0.5493 -2.6508
   62CHL1  H15B 7014   1.296   5.862   9.562 -0.9352 -0.4014  1.9466
   62CHL1   C16 7015   1.171   5.922   9.388 -0.2460 -0.0533  0.4787
   62CHL1  H16A 7016   1.151   6.030   9.370 -0.6940 -0.2833 -0.4576
   62CHL1  H16B 7017   1.252   5.887   9.320 -1.0344 -4.3069  1.4882
   62CHL1   C17 7018   1.037   5.838   9.365  0.2380 -0.8808  1.0262
   62CHL1   H17 7019   1.066   5.735   9.335 -1.1487 -0.8621 -0.5273
   62CHL1   C13 7020   0.969   5.831   9.502 -0.9700 -0.7362 -0.1221
   62CHL1   C18 7021   0.905   5.972   9.527  0.3434  0.1219 -0.8959
   62CHL1  H18A 7022   0.854   5.975   9.626 -1.1263  2.4459 -1.6539
   62CHL1  H18B 7023   0.983   6.050   9.535  1.1772 -0.9095  3.0485
   62CHL1  H18C 7024   0.827   5.993   9.451 -0.8192 -1.4452 -0.1842
   62CHL1   C12 7025   0.874   5.708   9.522  0.8201  0.2414 -0.2113
   62CHL1  H12A 7026   0.785   5.718   9.456  1.8976  2.0653 -1.4779
   62CHL1  H12B 7027   0.929   5.616   9.491  0.4074  0.2736 -1.0842
   62CHL1   C11 7028   0.832   5.695   9.667 -0.0138 -0.1485 -0.1049
   62CHL1  H11A 7029   0.762   5.778   9.685  1.0749  0.9724 -0.8942
   62CHL1  H11B 7030   0.779   5.597   9.672 -2.2079  0.8512 -2.0990
   62CHL1    C9 7031   0.950   5.695   9.762 -0.1549 -0.0304 -0.8457
   62CHL1    H9 7032   1.021   5.611   9.746  0.7642  0.1717  1.7093
   62CHL1   C10 7033   0.910   5.678   9.911 -0.4864  0.4885 -0.1457
   62CHL1   C19 7034   0.803   5.777   9.955  0.3909  0.4269  0.1078
   62CHL1  H19A 7035   0.706   5.747   9.910  1.5828 -0.7020 -1.8326
   62CHL1  H19B 7036   0.787   5.785  10.065  0.0032 -1.2648  0.1984
   62CHL1  H19C 7037   0.839   5.873   9.911 -2.2610  1.7871  0.6843
   62CHL1    C1 7038   0.876   5.529   9.931  0.1942  0.0602 -0.2453
   62CHL1   H1A 7039   0.782   5.519   9.873 -0.1440  0.3512  0.2417
   62CHL1   H1B 7040   0.952   5.452   9.906  1.0670  0.1934  1.8055
   62CHL1    C2 7041   0.847   5.491  10.082 -0.1577  0.4084 -0.4752
   62CHL1   H2A 7042   0.828   5.382  10.087  1.3972  0.0315 -1.9951
   62CHL1   H2B 7043   0.763   5.548  10.128 -0.8496 -0.9451 -0.0166
   62CHL1   C20 7044   0.962   5.892   9.242  0.2693 -0.6244  0.5233
   62CHL1   H20 7045   0.939   6.000   9.243  0.6654 -0.4264 -2.8394
   62CHL1   C21 7046   0.832   5.812   9.228 -0.1842 -0.0581 -0.1092
   62CHL1  H21A 7047   0.781   5.820   9.130 -0.8834 -2.6527 -0.0166
   62CHL1  H21B 7048   0.760   5.838   9.309  0.0507  1.5648 -0.3943
   62CHL1  H21C 7049   0.866   5.706   9.236 -2.9999 -1.1169 -1.1035
   62CHL1   C22 7050   1.044   5.865   9.112 -1.0185  0.0044 -0.0918
   62CHL1  H22A 7051   1.148   5.905   9.120 -1.8988  3.1589 -2.5931
   62CHL1  H22B 7052   1.046   5.758   9.084 -0.5598  0.1271 -0.5335
   62CHL1   C23 7053   0.992   5.954   9.000  0.2030 -0.3867  0.2196
   62CHL1  H23A 7054   0.893   5.914   8.969 -1.8503  1.4257  3.7937
   62CHL1  H23B 7055   0.965   6.057   9.030 -3.4964 -1.5859  1.6145
   62CHL1   C24 7056   1.086   5.951   8.878  0.0819  0.2316  0.5557
   62CHL1  H24A 7057   1.180   5.993   8.919 -0.8798  1.8982  1.1878
   62CHL1  H24B 7058   1.097   5.851   8.832  1.2373  0.4783  0.2711
   62CHL1   C25 7059   1.028   6.049   8.777  0.1349 -0.1647 -0.6804
   62CHL1   H25 7060   0.983   6.140   8.822  1.0630 -0.0286 -0.0000
   62CHL1   C26 7061   1.139   6.098   8.682  0.0305  0.2660  0.3595
   62CHL1  H26A 7062   1.107   6.184   8.620  1.0796  1.9474  2.0286
   62CHL1  H26B 7063   1.223   6.140   8.741  0.7174 -0.1407 -0.3171
   62CHL1  H26C 7064   1.173   6.022   8.609  0.3612  0.0701  0.7177
   62CHL1   C27 7065   0.908   5.999   8.695 -0.9896  0.0363 -0.1426
   62CHL1  H27A 7066   0.816   6.008   8.757 -0.3636 -0.0860  0.8232
   62CHL1  H27B 7067   0.895   6.067   8.608 -0.5130 -0.6613 -0.7666
   62CHL1  H27C 7068   0.930   5.893   8.670  0.9261  0.3370  0.1363
   63CHL1    C3 7069   2.583   5.274  10.505  0.2198  0.3545  0.4144
   63CHL1    H3 7070   2.618   5.173  10.537 -0.2494  0.4850  1.3768
   63CHL1    O3 7071   2.594   5.353  10.624  0.3852 -0.5031  0.2204
   63CHL1   H3' 7072   2.553   5.435  10.598 -0.3982 -0.1488  2.3613
   63CHL1    C4 7073   2.682   5.319  10.398  0.2098  0.0061  1.1429
   63CHL1   H4A 7074   2.656   5.427  10.388 -0.7052 -0.3429 -0.7884
   63CHL1   H4B 7075   2.789   5.318  10.429  0.2902 -1.4179  0.8705
   63CHL1    C5 7076   2.667   5.258  10.264  0.2947  0.1059 -0.2543
   63CHL1    C6 7077   2.767   5.197  10.203 -0.2591 -0.3263 -0.0105
   63CHL1    H6 7078   2.862   5.179  10.255  0.5498 -1.3119 -1.7196
   63CHL1    C7 7079   2.760   5.137  10.059 -0.3401  0.0579 -0.7597
   63CHL1   H7A 7080   2.828   5.194   9.994  0.5011 -0.0382  0.0087
   63CHL1   H7B 7081   2.774   5.027  10.069 -1.7631  0.0674  3.2806
   63CHL1    C8 7082   2.627   5.163   9.992 -0.0338 -0.6901  0.3457
   63CHL1    H8 7083   2.625   5.268   9.956  0.8400 -0.5919  0.5654
   63CHL1   C14 7084   2.614   5.084   9.862 -0.4544 -0.1677 -0.0091
   63CHL1   H14 7085   2.610   4.982   9.905  0.9710  0.5262  1.8654
   63CHL1   C15 7086   2.722   5.105   9.754 -0.1201  0.1224  0.0823
   63CHL1  H15A 7087   2.734   5.214   9.740  0.4377  0.2106  1.1198
   63CHL1  H15B 7088   2.821   5.062   9.781 -0.7749 -1.5541 -0.0267
   63CHL1   C16 7089   2.658   5.037   9.623  0.5060 -0.1468 -0.6440
   63CHL1  H16A 7090   2.664   5.093   9.527 -1.7638  1.6986  0.1823
   63CHL1  H16B 7091   2.700   4.937   9.600  1.2527  0.4036 -1.8151
   63CHL1   C17 7092   2.506   5.010   9.669 -0.1258  0.6326  0.5292
   63CHL1   H17 7093   2.508   4.909   9.715  0.0392 -0.5412 -1.9053
   63CHL1   C13 7094   2.479   5.104   9.794 -0.0725  0.1758 -0.4564
   63CHL1   C18 7095   2.469   5.254   9.745 -0.0343 -0.2456  0.0590
   63CHL1  H18A 7096   2.363   5.279   9.725  0.4352  1.0716 -0.8810
   63CHL1  H18B 7097   2.496   5.323   9.828 -0.2169 -1.9286  1.5846
   63CHL1  H18C 7098   2.533   5.273   9.656 -0.2194 -0.5368 -0.1357
   63CHL1   C12 7099   2.360   5.062   9.886 -0.8564  0.2464  0.1068
   63CHL1  H12A 7100   2.262   5.066   9.834  0.0540  1.5142 -1.6308
   63CHL1  H12B 7101   2.379   4.954   9.907  3.2563  0.8997  0.5313
   63CHL1   C11 7102   2.372   5.139  10.018 -0.0090  0.7172  0.1878
   63CHL1  H11A 7103   2.333   5.239   9.992 -1.8394  0.0702  0.3284
   63CHL1  H11B 7104   2.293   5.094  10.082  0.5796 -0.0709  0.3895
   63CHL1    C9 7105   2.507   5.141  10.091  0.3778 -0.8770  0.1844
   63CHL1    H9 7106   2.524   5.042  10.137  1.1336  0.0635  2.0173
   63CHL1   C10 7107   2.521   5.248  10.205  0.4957  0.9509  0.9368
   63CHL1   C19 7108   2.484   5.382  10.147  0.6179  0.0393  0.0961
   63CHL1  H19A 7109   2.545   5.424  10.064 -0.4717  0.3745 -0.5679
   63CHL1  H19B 7110   2.381   5.385  10.105  0.4897 -0.3350  0.3844
   63CHL1  H19C 7111   2.473   5.457  10.229  2.5613  0.2835  0.1633
   63CHL1    C1 7112   2.422   5.207  10.324 -0.0160 -0.2446 -0.1754
   63CHL1   H1A 7113   2.316   5.229  10.297  0.4271  3.6228  0.6598
   63CHL1   H1B 7114   2.430   5.098  10.344  0.5415 -0.4792 -1.5683
   63CHL1    C2 7115   2.439   5.291  10.455  0.5604  0.5227  0.8676
   63CHL1   H2A 7116   2.370   5.263  10.538  0.7727  2.1806  1.6304
   63CHL1   H2B 7117   2.413   5.396  10.432 -1.7705 -0.0554  0.5908
   63CHL1   C20 7118   2.390   5.009   9.565  0.4159  0.4618  0.4322
   63CHL1   H20 7119   2.334   5.102   9.589 -0.5109 -0.3120  1.3420
   63CHL1   C21 7120   2.306   4.882   9.585 -0.2730  0.2906 -0.5426
   63CHL1  H21A 7121   2.284   4.871   9.693 -2.9504 -0.3257 -1.0638
   63CHL1  H21B 7122   2.362   4.795   9.543  0.8967  0.7964 -0.0632
   63CHL1  H21C 7123   2.208   4.890   9.533 -0.4040  0.2837 -0.2983
   63CHL1   C22 7124   2.435   5.012   9.418  0.3597 -0.5784 -0.1969
   63CHL1  H22A 7125   2.523   4.946   9.400  0.4769 -0.3904 -0.3244
   63CHL1  H22B 7126   2.360   4.962   9.354  0.6582 -2.3469  0.7678
   63CHL1   C23 7127   2.434   5.156   9.357 -0.3431  0.2843  0.0168
   63CHL1  H23A 7128   2.340   5.209   9.381  1.5822  3.2351  1.6518
   63CHL1  H23B 7129   2.516   5.209   9.411 -0.1486 -0.9113  0.9304
   63CHL1   C24 7130   2.471   5.165   9.211  0.1895 -0.0956 -0.0330
   63CHL1  H24A 7131   2.568   5.116   9.194 -0.0997 -0.5889 -0.2775
   63CHL1  H24B 7132   2.394   5.110   9.152  0.4057  1.2249 -1.6181
   63CHL1   C25 7133   2.489   5.309   9.168 -0.1821 -0.3567  0.9605
   63CHL1   H25 7134   2.579   5.354   9.215  2.5035 -1.2858 -2.8387
   63CHL1   C26 7135   2.531   5.328   9.027 -0.3183 -0.3731  0.3682
   63CHL1  H26A 7136   2.450   5.304   8.955  0.3248 -0.0169 -0.4835
   63CHL1  H26B 7137   2.564   5.433   9.013 -0.5745 -0.3522 -0.0738
   63CHL1  H26C 7138   2.621   5.266   9.007 -1.0187 -1.9185  1.7025
   63CHL1   C27 7139   2.372   5.401   9.196  0.0155 -0.2635 -0.4082
   63CHL1  H27A 7140   2.277   5.369   9.149 -0.2574  1.8424 -1.4203
   63CHL1  H27B 7141   2.360   5.415   9.306  1.4688 -2.0686  0.0232
   63CHL1  H27C 7142   2.386   5.505   9.160  2.2532 -1.0526 -1.9760
   64CHL1    C3 7143   0.432   5.133  10.092  0.6882  0.1307  0.5494
   64CHL1    H3 7144   0.524   5.078  10.063 -0.4874  0.1847 -4.2078
   64CHL1    O3 7145   0.402   5.128  10.227 -0.4053 -0.5733  0.4364
   64CHL1   H3' 7146   0.313   5.165  10.229  0.4347  1.6367 -0.4932
   64CHL1    C4 7147   0.450   5.286  10.054  0.0156 -0.4076  0.3070
   64CHL1   H4A 7148   0.368   5.344  10.102  1.0470 -0.7971  2.6929
   64CHL1   H4B 7149   0.538   5.334  10.103  1.0605  0.6294 -2.4095
   64CHL1    C5 7150   0.448   5.308   9.899  0.8909 -0.2526 -0.3654
   64CHL1    C6 7151   0.534   5.393   9.845 -0.1401 -0.2376 -0.2439
   64CHL1    H6 7152   0.610   5.446   9.905 -1.2416  0.1981  0.8153
   64CHL1    C7 7153   0.545   5.416   9.698  0.2112  0.4510 -0.7152
   64CHL1   H7A 7154   0.571   5.523   9.683  1.3818  0.4161  0.8101
   64CHL1   H7B 7155   0.616   5.352   9.642  1.0744 -1.2229  2.0773
   64CHL1    C8 7156   0.412   5.381   9.621 -0.3473 -0.2536 -0.3213
   64CHL1    H8 7157   0.336   5.457   9.650  2.1579  1.1696  3.2201
   64CHL1   C14 7158   0.427   5.387   9.466 -0.0350  0.1071 -0.1612
   64CHL1   H14 7159   0.486   5.299   9.433 -0.9615 -0.0990 -1.3294
   64CHL1   C15 7160   0.475   5.521   9.407  0.2014  0.3224  0.0915
   64CHL1  H15A 7161   0.410   5.596   9.457 -1.0260 -1.8201  1.8782
   64CHL1  H15B 7162   0.583   5.538   9.429 -0.0822  1.9610  0.3117
   64CHL1   C16 7163   0.429   5.511   9.259 -0.2823  0.2469  0.5631
   64CHL1  H16A 7164   0.382   5.607   9.231  0.3048  0.5772  0.6931
   64CHL1  H16B 7165   0.519   5.499   9.195 -0.0129  3.9849  0.0290
   64CHL1   C17 7166   0.333   5.391   9.246  0.8715  0.2854 -0.7565
   64CHL1   H17 7167   0.398   5.303   9.224  0.0377 -0.4402 -0.4056
   64CHL1   C13 7168   0.289   5.365   9.394  0.8549  0.1070 -0.3024
   64CHL1   C18 7169   0.185   5.471   9.435  0.2860 -0.2615 -0.4564
   64CHL1  H18A 7170   0.201   5.569   9.387 -1.9268  1.6535  2.4027
   64CHL1  H18B 7171   0.087   5.434   9.398  0.3412 -0.4787 -0.3887
   64CHL1  H18C 7172   0.168   5.498   9.542 -1.5432  0.1162 -0.8142
   64CHL1   C12 7173   0.243   5.218   9.433  0.2690 -0.3552 -0.0214
   64CHL1  H12A 7174   0.144   5.200   9.386  0.7244  0.4165 -1.3304
   64CHL1  H12B 7175   0.317   5.149   9.388 -2.4990 -2.1631 -2.1991
   64CHL1   C11 7176   0.225   5.197   9.585 -0.0652  0.0410 -0.4227
   64CHL1  H11A 7177   0.141   5.265   9.608  0.2801  1.3500 -2.7333
   64CHL1  H11B 7178   0.195   5.093   9.607 -1.0207  0.8233  2.3045
   64CHL1    C9 7179   0.350   5.247   9.660 -0.6359 -0.6117  0.1198
   64CHL1    H9 7180   0.422   5.164   9.644 -2.8949 -2.4991 -0.9110
   64CHL1   C10 7181   0.338   5.232   9.813 -0.2718  0.4469 -0.5907
   64CHL1   C19 7182   0.201   5.289   9.851  0.2749 -0.2164  0.4040
   64CHL1  H19A 7183   0.188   5.381   9.791  1.3905  0.3772  1.0251
   64CHL1  H19B 7184   0.111   5.225   9.840  0.1577 -0.1268  0.8209
   64CHL1  H19C 7185   0.200   5.318   9.958 -1.6762  0.4432  0.2421
   64CHL1    C1 7186   0.340   5.085   9.861  0.1080  0.3089  0.3918
   64CHL1   H1A 7187   0.262   5.025   9.810  0.0168 -1.4162  2.4493
   64CHL1   H1B 7188   0.441   5.052   9.830 -0.8986  0.7055 -3.9189
   64CHL1    C2 7189   0.321   5.068  10.013  0.1523  0.9046 -0.4853
   64CHL1   H2A 7190   0.323   4.958  10.030 -1.2692  0.9382  0.0796
   64CHL1   H2B 7191   0.217   5.099  10.038  0.0000 -0.6615  1.0297
   64CHL1   C20 7192   0.227   5.405   9.132  0.2078 -0.6719  0.0950
   64CHL1   H20 7193   0.166   5.493   9.160 -0.1628 -0.8174 -0.2372
   64CHL1   C21 7194   0.136   5.279   9.114  0.1445 -0.6827 -0.5843
   64CHL1  H21A 7195   0.079   5.280   9.210  1.1368  2.3607  0.0983
   64CHL1  H21B 7196   0.187   5.183   9.092  0.8193 -0.5854  0.4509
   64CHL1  H21C 7197   0.073   5.307   9.028 -1.4146  1.9729  1.2581
   64CHL1   C22 7198   0.299   5.440   9.000 -0.6532 -0.2790 -0.0202
   64CHL1  H22A 7199   0.359   5.534   8.996 -0.7717 -0.2566 -1.5365
   64CHL1  H22B 7200   0.372   5.360   8.978 -0.3747  0.2616 -1.1417
   64CHL1   C23 7201   0.213   5.453   8.873  0.2108 -0.1154  0.2894
   64CHL1  H23A 7202   0.275   5.483   8.786  0.3009 -1.5250 -0.1669
   64CHL1  H23B 7203   0.166   5.353   8.861  0.9720 -0.5027  0.4898
   64CHL1   C24 7204   0.103   5.568   8.874  0.0111 -0.3750 -0.5159
   64CHL1  H24A 7205   0.038   5.552   8.964  0.2863  0.9149 -0.0656
   64CHL1  H24B 7206   0.150   5.667   8.888 -1.0457 -0.1808  2.6348
   64CHL1   C25 7207   0.012   5.579   8.746  0.0836 -0.6511 -0.3714
   64CHL1   H25 7208  -0.088   5.623   8.768  0.8930  0.7793  0.6072
   64CHL1   C26 7209   0.070   5.675   8.643 -0.6110  0.1280 -1.1780
   64CHL1  H26A 7210   0.169   5.633   8.614  0.3801  1.4370  0.2079
   64CHL1  H26B 7211   0.008   5.681   8.551 -2.7757 -0.0236  0.2080
   64CHL1  H26C 7212   0.088   5.777   8.683 -2.9074 -0.3933  1.5309
   64CHL1   C27 7213  -0.009   5.437   8.688 -0.1708 -0.2393  0.8007
   64CHL1  H27A 7214  -0.085   5.431   8.607  0.8095  0.4156 -0.1993
   64CHL1  H27B 7215   0.082   5.392   8.641  0.7773  0.2624  2.0825
   64CHL1  H27C 7216  -0.037   5.376   8.777  1.5774 -0.4594  1.2438
   65CHL1    C3 7217   3.449   3.042  10.295 -0.2019 -0.2787  0.1526
   65CHL1    H3 7218   3.412   2.938  10.293 -0.9119 -0.0263 -1.2085
   65CHL1    O3 7219   3.484   3.065  10.434  0.3110  0.3569  0.2521
   65CHL1   H3' 7220   3.505   3.158  10.438 -0.0767  0.5394 -1.2691
   65CHL1    C4 7221   3.572   3.059  10.209  0.3199 -0.5309 -0.0207
   65CHL1   H4A 7222   3.622   3.157  10.226 -1.8133  0.2610  2.2038
   65CHL1   H4B 7223   3.645   2.989  10.255 -0.0355  0.1630  1.6667
   65CHL1    C5 7224   3.530   3.034  10.067 -0.1598 -0.5448 -0.1446
   65CHL1    C6 7225   3.593   2.937   9.996  0.3804 -0.2359 -0.7643
   65CHL1    H6 7226   3.661   2.865  10.044 -0.7634  0.3965  1.9876
   65CHL1    C7 7227   3.579   2.916   9.848 -0.5793  0.0840 -0.2234
   65CHL1   H7A 7228   3.677   2.910   9.796 -1.1533  1.5093 -1.5530
   65CHL1   H7B 7229   3.521   2.823   9.829  0.3488 -1.1320  2.4582
   65CHL1    C8 7230   3.509   3.037   9.781  0.3805 -0.9580  0.3758
   65CHL1    H8 7231   3.586   3.117   9.782 -1.2798  0.7049 -0.7284
   65CHL1   C14 7232   3.461   3.005   9.639  0.5865  0.0889 -0.9323
   65CHL1   H14 7233   3.385   2.928   9.662 -1.8345  3.0257  1.8246
   65CHL1   C15 7234   3.557   2.948   9.543  0.1491  0.0950 -0.3575
   65CHL1  H15A 7235   3.651   3.002   9.570 -1.0525  1.0173  2.2849
   65CHL1  H15B 7236   3.580   2.839   9.550  0.2122  0.0233 -1.4044
   65CHL1   C16 7237   3.499   2.964   9.403  0.5802  0.5677  0.2021
   65CHL1  H16A 7238   3.576   3.021   9.346  1.4314 -0.1710  0.5891
   65CHL1  H16B 7239   3.483   2.872   9.344  0.6271  0.3777  0.4858
   65CHL1   C17 7240   3.365   3.044   9.423 -0.9911 -0.6155  0.0803
   65CHL1   H17 7241   3.285   2.967   9.421 -1.4331 -0.1648 -0.1059
   65CHL1   C13 7242   3.386   3.111   9.564 -0.0679 -0.2684 -0.0831
   65CHL1   C18 7243   3.482   3.236   9.558 -0.2359 -0.9108  0.3849
   65CHL1  H18A 7244   3.447   3.326   9.503 -3.5946 -1.4525  1.4446
   65CHL1  H18B 7245   3.502   3.264   9.663  0.2487 -0.9129  0.2939
   65CHL1  H18C 7246   3.580   3.208   9.514 -0.4770  0.0751 -0.8628
   65CHL1   C12 7247   3.258   3.162   9.640 -0.4110  0.1471  0.1469
   65CHL1  H12A 7248   3.213   3.245   9.581  0.5900 -0.3375 -1.3818
   65CHL1  H12B 7249   3.185   3.079   9.649  0.2436 -0.2341  2.6880
   65CHL1   C11 7250   3.298   3.199   9.790  0.1246 -0.4886 -0.4287
   65CHL1  H11A 7251   3.341   3.301   9.782 -2.0977  0.6261  0.7485
   65CHL1  H11B 7252   3.206   3.219   9.849  0.4300  0.3183 -0.2180
   65CHL1    C9 7253   3.390   3.093   9.870  0.3741  0.2322 -0.3522
   65CHL1    H9 7254   3.324   3.006   9.887  0.3696  0.7841  3.1925
   65CHL1   C10 7255   3.426   3.133  10.008 -0.1939  0.9098 -0.4126
   65CHL1   C19 7256   3.489   3.273  10.009 -1.3151  0.2911  0.1911
   65CHL1  H19A 7257   3.408   3.335   9.965  0.4390  0.7848 -2.6226
   65CHL1  H19B 7258   3.523   3.315  10.105 -1.4256 -1.0380  0.8388
   65CHL1  H19C 7259   3.570   3.279   9.934 -1.7949  2.4641 -0.2152
   65CHL1    C1 7260   3.308   3.128  10.104 -0.2674 -0.6374  0.7665
   65CHL1   H1A 7261   3.243   3.212  10.069  2.4680  1.2100 -0.2175
   65CHL1   H1B 7262   3.262   3.029  10.081 -2.5133  0.5340 -0.1894
   65CHL1    C2 7263   3.338   3.142  10.257  0.7470  0.2755  0.5381
   65CHL1   H2A 7264   3.247   3.129  10.321  0.7995  0.2603  0.6097
   65CHL1   H2B 7265   3.383   3.242  10.275  2.7633 -0.6922  1.1300
   65CHL1   C20 7266   3.327   3.146   9.311 -0.3621  0.0103  0.2994
   65CHL1   H20 7267   3.386   3.240   9.308 -0.1649 -0.1249 -1.8149
   65CHL1   C21 7268   3.179   3.188   9.312 -0.2475 -0.4276  0.0232
   65CHL1  H21A 7269   3.145   3.242   9.221  0.1085  2.4609  1.4673
   65CHL1  H21B 7270   3.156   3.267   9.387 -1.8055 -0.8172 -0.0074
   65CHL1  H21C 7271   3.120   3.099   9.342 -0.4971 -0.3209 -0.1511
   65CHL1   C22 7272   3.350   3.084   9.169 -0.3996  0.6347  0.5719
   65CHL1  H22A 7273   3.444   3.026   9.178  0.2019  1.6007  0.6786
   65CHL1  H22B 7274   3.273   3.008   9.144  0.0255  0.2190  0.5314
   65CHL1   C23 7275   3.380   3.194   9.066  0.5609 -0.3001 -0.2160
   65CHL1  H23A 7276   3.299   3.270   9.057  0.9034  0.0468 -0.4207
   65CHL1  H23B 7277   3.470   3.252   9.095 -1.3474  2.3807  0.7506
   65CHL1   C24 7278   3.411   3.125   8.926 -0.2969 -0.3271  0.0539
   65CHL1  H24A 7279   3.488   3.046   8.935  2.8594  2.6347  1.6648
   65CHL1  H24B 7280   3.312   3.083   8.900  0.2476 -1.1657 -0.7033
   65CHL1   C25 7281   3.458   3.227   8.821  0.1568  0.1420 -0.2007
   65CHL1   H25 7282   3.391   3.315   8.815  1.8802  1.5009 -0.4309
   65CHL1   C26 7283   3.602   3.269   8.867 -0.1940 -0.0465 -0.6349
   65CHL1  H26A 7284   3.659   3.329   8.793  0.2958  0.7041  0.3345
   65CHL1  H26B 7285   3.604   3.330   8.960 -0.5926 -1.2497  0.1938
   65CHL1  H26C 7286   3.660   3.178   8.893  0.5892  0.8766  0.9821
   65CHL1   C27 7287   3.454   3.164   8.676 -0.3324  0.1704  0.2404
   65CHL1  H27A 7288   3.351   3.136   8.644  0.9046 -3.5051 -1.0908
   65CHL1  H27B 7289   3.492   3.239   8.603 -3.7653  1.7567 -0.1188
   65CHL1  H27C 7290   3.520   3.075   8.675  0.2926  0.6111  0.9998
   66CHL1    C3 7291   1.547   0.246  10.379 -0.8951 -0.1287  0.0025
   66CHL1    H3 7292   1.651   0.277  10.403 -0.4920 -0.2256 -1.5377
   66CHL1    O3 7293   1.505   0.148  10.471  0.0982 -0.2218 -0.3331
   66CHL1   H3' 7294   1.409   0.154  10.472  0.1655  1.3878 -0.6447
   66CHL1    C4 7295   1.460   0.369  10.399  0.0728 -0.2257 -0.7426
   66CHL1   H4A 7296   1.353   0.341  10.389  0.2775 -0.9150 -1.0349
   66CHL1   H4B 7297   1.479   0.414  10.499  1.9472  0.7427 -1.4856
   66CHL1    C5 7298   1.488   0.482  10.300  0.1997  0.2773 -0.6586
   66CHL1    C6 7299   1.520   0.607  10.334  0.2573  0.1430 -0.4190
   66CHL1    H6 7300   1.515   0.639  10.439  0.6005  1.7298 -0.8563
   66CHL1    C7 7301   1.537   0.723  10.239  0.5535 -0.0232 -0.1070
   66CHL1   H7A 7302   1.461   0.803  10.254 -0.9227 -1.5033  0.5878
   66CHL1   H7B 7303   1.643   0.757  10.234  0.0743  1.5036 -0.4507
   66CHL1    C8 7304   1.497   0.682  10.098  0.5001 -0.3236 -0.7338
   66CHL1    H8 7305   1.386   0.684  10.085  0.4190 -0.5256 -0.1216
   66CHL1   C14 7306   1.558   0.776  10.002 -0.6708  1.0776 -0.2436
   66CHL1   H14 7307   1.667   0.759  10.004 -0.5889  1.6336  0.2894
   66CHL1   C15 7308   1.540   0.931  10.021  0.2612  1.0893 -0.6461
   66CHL1  H15A 7309   1.435   0.958  10.048 -0.7222 -3.0245  0.3457
   66CHL1  H15B 7310   1.613   0.957  10.100 -0.0639  0.3281 -0.0914
   66CHL1   C16 7311   1.583   0.992   9.880  0.0158  0.3871 -0.8677
   66CHL1  H16A 7312   1.487   1.042   9.855 -2.0657 -2.1043  1.4358
   66CHL1  H16B 7313   1.670   1.060   9.885  0.2475  0.0756 -0.6641
   66CHL1   C17 7314   1.616   0.872   9.792  0.3163 -0.6267 -0.1523
   66CHL1   H17 7315   1.722   0.851   9.816  0.2349  0.3137  1.1269
   66CHL1   C13 7316   1.534   0.753   9.855  0.4688  0.1042  0.4327
   66CHL1   C18 7317   1.384   0.775   9.816  0.4533 -0.0778  0.2331
   66CHL1  H18A 7318   1.348   0.878   9.835 -1.7100 -0.7814  0.1807
   66CHL1  H18B 7319   1.361   0.745   9.711 -1.5653  1.4045  0.2009
   66CHL1  H18C 7320   1.324   0.704   9.877  3.1624 -0.2253  2.9421
   66CHL1   C12 7321   1.583   0.615   9.816 -0.0786  0.4995  0.2835
   66CHL1  H12A 7322   1.532   0.590   9.721  0.5985 -0.5243  0.1753
   66CHL1  H12B 7323   1.692   0.607   9.798  0.0401 -0.1365  1.2544
   66CHL1   C11 7324   1.540   0.506   9.916 -0.2359  0.2865  0.0180
   66CHL1  H11A 7325   1.444   0.474   9.871  0.2761  0.3841 -1.1673
   66CHL1  H11B 7326   1.611   0.421   9.907  2.8798  2.1908  3.4619
   66CHL1    C9 7327   1.543   0.547  10.065 -0.3273  0.4063  1.0361
   66CHL1    H9 7328   1.651   0.556  10.090  0.1693 -2.2095  0.1789
   66CHL1   C10 7329   1.483   0.438  10.157 -0.0902 -0.7802  0.5048
   66CHL1   C19 7330   1.335   0.410  10.117  0.2367  0.2365  0.3576
   66CHL1  H19A 7331   1.286   0.348  10.195 -1.6083  1.8477  0.5436
   66CHL1  H19B 7332   1.275   0.503  10.122 -1.1163 -0.6647  2.3792
   66CHL1  H19C 7333   1.328   0.358  10.019 -0.5699  1.7269 -0.4139
   66CHL1    C1 7334   1.576   0.311  10.144  0.9604 -0.0058  0.5979
   66CHL1   H1A 7335   1.560   0.271  10.041  2.1887  2.5355 -0.6596
   66CHL1   H1B 7336   1.682   0.338  10.158  1.2425  0.9600 -2.6152
   66CHL1    C2 7337   1.546   0.191  10.238 -0.5787 -0.5615 -0.6211
   66CHL1   H2A 7338   1.631   0.123  10.216  0.7496  0.3505  1.3865
   66CHL1   H2B 7339   1.453   0.139  10.207 -1.2912  1.4468 -2.0547
   66CHL1   C20 7340   1.596   0.906   9.642  0.0818  0.2976 -0.7830
   66CHL1   H20 7341   1.489   0.928   9.619 -1.1098 -1.2216  2.6152
   66CHL1   C21 7342   1.659   0.794   9.561  0.4915  0.5699  0.4160
   66CHL1  H21A 7343   1.667   0.821   9.453 -2.7529  0.9070  0.1765
   66CHL1  H21B 7344   1.593   0.706   9.544  1.2081  0.1501 -0.3350
   66CHL1  H21C 7345   1.747   0.748   9.611  1.2791  0.5303 -0.9435
   66CHL1   C22 7346   1.676   1.035   9.620 -1.2401 -0.4497 -0.7485
   66CHL1  H22A 7347   1.635   1.119   9.680 -2.4309 -1.4757 -0.0720
   66CHL1  H22B 7348   1.783   1.018   9.647 -0.9554 -0.6651 -1.9515
   66CHL1   C23 7349   1.681   1.079   9.475 -0.7543  0.7080 -0.2284
   66CHL1  H23A 7350   1.735   1.176   9.480 -0.3847  0.4720  0.4809
   66CHL1  H23B 7351   1.747   1.011   9.417 -0.4656 -0.0941  1.0131
   66CHL1   C24 7352   1.551   1.087   9.395 -0.0859 -0.3075  0.1540
   66CHL1  H24A 7353   1.494   0.993   9.406  0.4986 -0.7479 -0.4921
   66CHL1  H24B 7354   1.492   1.166   9.446  0.5147  0.3323 -0.1170
   66CHL1   C25 7355   1.561   1.126   9.244 -0.3104 -0.4785  0.0211
   66CHL1   H25 7356   1.614   1.223   9.233 -0.1300 -0.5015  0.6600
   66CHL1   C26 7357   1.641   1.020   9.169 -0.2295 -0.4520  0.2583
   66CHL1  H26A 7358   1.667   1.047   9.064  1.9550 -2.3561  0.2071
   66CHL1  H26B 7359   1.740   1.014   9.219 -0.5202  2.4486  1.3543
   66CHL1  H26C 7360   1.596   0.918   9.175  0.8481 -0.8413  2.8924
   66CHL1   C27 7361   1.428   1.140   9.175  0.3199 -0.0754 -0.5338
   66CHL1  H27A 7362   1.381   1.039   9.183  0.1270 -0.0478 -1.2800
   66CHL1  H27B 7363   1.366   1.211   9.235 -3.0029 -2.0374 -1.3870
   66CHL1  H27C 7364   1.440   1.168   9.069  1.0647  3.4443  0.3549
   67CHL1    C3 7365   3.794   0.004  10.005 -0.7325 -0.6277 -1.0328
   67CHL1    H3 7366   3.690  -0.013   9.971 -1.7911  0.7038  1.2946
   67CHL1    O3 7367   3.811  -0.046  10.139 -0.4201 -0.7803 -0.4235
   67CHL1   H3' 7368   3.898  -0.013  10.163 -1.2899  1.3397  0.0343
   67CHL1    C4 7369   3.912  -0.051   9.922  0.3451 -0.4024  0.2560
   67CHL1   H4A 7370   4.007  -0.040   9.978  0.3624  0.4009  0.0824
   67CHL1   H4B 7371   3.897  -0.161   9.910 -1.1670 -0.1115 -0.8556
   67CHL1    C5 7372   3.914  -0.001   9.781 -0.7184 -0.1170  0.1148
   67CHL1    C6 7373   3.895  -0.078   9.674  0.0576  0.7795  0.1407
   67CHL1    H6 7374   3.876  -0.183   9.700 -0.0769  1.0796  1.3297
   67CHL1    C7 7375   3.897  -0.041   9.536 -0.0740  0.5436 -0.2746
   67CHL1   H7A 7376   3.942  -0.114   9.465 -0.7753  0.4073 -0.5928
   67CHL1   H7B 7377   3.794  -0.028   9.496 -0.7467  1.6646  1.6643
   67CHL1    C8 7378   3.964   0.096   9.515  0.1449 -0.4723 -1.1177
   67CHL1    H8 7379   4.075   0.086   9.518  0.0380 -1.8657 -1.2476
   67CHL1   C14 7380   3.918   0.150   9.379 -0.0527 -0.3090 -0.3626
   67CHL1   H14 7381   3.809   0.173   9.389  0.0904  2.5887 -3.6486
   67CHL1   C15 7382   3.931   0.055   9.256 -0.0479  0.2573 -0.2755
   67CHL1  H15A 7383   4.023  -0.006   9.267 -1.4139 -1.6778  0.9776
   67CHL1  H15B 7384   3.843  -0.013   9.254  1.5447 -1.8794 -1.3693
   67CHL1   C16 7385   3.932   0.154   9.142  0.0901  0.6962 -0.0566
   67CHL1  H16A 7386   4.023   0.149   9.079  1.9207  2.0546  2.3309
   67CHL1  H16B 7387   3.847   0.133   9.073  1.1479  2.7121 -2.1203
   67CHL1   C17 7388   3.910   0.296   9.209 -1.0913 -0.4807 -0.8228
   67CHL1   H17 7389   3.800   0.306   9.221 -0.9666 -1.1071  1.1943
   67CHL1   C13 7390   3.978   0.286   9.346 -0.0667  0.0466 -0.2199
   67CHL1   C18 7391   4.131   0.291   9.332 -0.3268 -0.3596  0.7466
   67CHL1  H18A 7392   4.168   0.225   9.251  1.6905  0.9110  0.5768
   67CHL1  H18B 7393   4.178   0.389   9.312  1.6658 -0.8761  2.4684
   67CHL1  H18C 7394   4.182   0.269   9.428 -0.7459  1.9886  1.5818
   67CHL1   C12 7395   3.929   0.387   9.447 -0.6574  0.8008  0.5575
   67CHL1  H12A 7396   3.973   0.489   9.439 -1.8835  1.2228 -1.8942
   67CHL1  H12B 7397   3.820   0.406   9.435 -0.7043 -0.3330 -0.9384
   67CHL1   C11 7398   3.962   0.346   9.588 -0.5359  0.3942 -1.0678
   67CHL1  H11A 7399   4.073   0.335   9.590 -0.6400 -0.9589  1.4262
   67CHL1  H11B 7400   3.926   0.406   9.674 -0.9418 -2.2486  0.6823
   67CHL1    C9 7401   3.914   0.201   9.620 -0.0753 -0.4156  0.6616
   67CHL1    H9 7402   3.803   0.201   9.618 -0.1143 -2.5532  0.4303
   67CHL1   C10 7403   3.930   0.155   9.765 -0.2089  0.1713  0.4772
   67CHL1   C19 7404   4.076   0.193   9.810  0.4393  0.6372 -0.7312
   67CHL1  H19A 7405   4.144   0.134   9.746  0.5475 -0.8568  0.7026
   67CHL1  H19B 7406   4.090   0.303   9.805 -0.5619  0.9264  1.6172
   67CHL1  H19C 7407   4.103   0.155   9.911  0.3519  1.0754 -0.5386
   67CHL1    C1 7408   3.819   0.214   9.857  0.9317  0.2684  0.1823
   67CHL1   H1A 7409   3.832   0.324   9.851  0.8758  0.2294 -0.8804
   67CHL1   H1B 7410   3.717   0.192   9.820 -0.2304  0.5757  2.9656
   67CHL1    C2 7411   3.812   0.159  10.007  0.1656 -0.0783  0.6521
   67CHL1   H2A 7412   3.733   0.207  10.068  0.4315 -2.3394  2.9594
   67CHL1   H2B 7413   3.901   0.192  10.064 -0.6116  0.4607  1.5604
   67CHL1   C20 7414   3.955   0.409   9.114 -0.2306 -0.1013 -0.1056
   67CHL1   H20 7415   4.065   0.404   9.096 -0.3656  0.4500 -1.2061
   67CHL1   C21 7416   3.928   0.554   9.169 -0.3211  0.0945  0.3450
   67CHL1  H21A 7417   3.820   0.556   9.198 -0.1372  0.6921  1.0252
   67CHL1  H21B 7418   3.945   0.618   9.080  2.7855 -1.8007 -0.5635
   67CHL1  H21C 7419   3.998   0.573   9.253 -0.1467 -2.2395  0.8046
   67CHL1   C22 7420   3.892   0.394   8.968  0.4289  0.2766  0.9418
   67CHL1  H22A 7421   3.937   0.476   8.910  1.0610  1.3474  2.8509
   67CHL1  H22B 7422   3.924   0.298   8.921 -2.0830 -0.4740  0.5917
   67CHL1   C23 7423   3.740   0.417   8.955  0.0083  0.3746 -0.5059
   67CHL1  H23A 7424   3.682   0.354   9.025 -1.0349  1.4192 -0.3904
   67CHL1  H23B 7425   3.714   0.519   8.992  0.3007  0.8278 -1.5097
   67CHL1   C24 7426   3.697   0.423   8.813  0.0918  0.3892 -1.0292
   67CHL1  H24A 7427   3.775   0.473   8.752 -0.3284 -0.3450 -2.1952
   67CHL1  H24B 7428   3.703   0.315   8.786  0.0341 -0.9140  3.2956
   67CHL1   C25 7429   3.552   0.470   8.792 -0.2337 -0.0267  0.2014
   67CHL1   H25 7430   3.534   0.564   8.848 -1.3306  2.0654 -3.3667
   67CHL1   C26 7431   3.530   0.511   8.649  0.2148  0.3983  0.1823
   67CHL1  H26A 7432   3.469   0.603   8.652  1.1889  1.0389  1.3344
   67CHL1  H26B 7433   3.624   0.543   8.599  0.4682  0.9060  0.9575
   67CHL1  H26C 7434   3.471   0.435   8.594  0.9922  0.3955 -0.6723
   67CHL1   C27 7435   3.449   0.364   8.833 -0.4195  0.4900 -0.6396
   67CHL1  H27A 7436   3.452   0.356   8.944  1.6694 -0.1253 -0.7007
   67CHL1  H27B 7437   3.344   0.386   8.804 -2.2671 -1.6389  3.4739
   67CHL1  H27C 7438   3.473   0.271   8.779 -0.2589  0.4591 -0.5173
   68CHL1    C3 7439   2.575   0.105  10.312  0.2411  0.8991  0.0612
   68CHL1    H3 7440   2.469   0.138  10.315  0.3201  1.2063 -0.3600
   68CHL1    O3 7441   2.633   0.096  10.441 -0.0196  0.0126 -0.0810
   68CHL1   H3' 7442   2.726   0.078  10.421 -0.0716 -0.3860  0.0241
   68CHL1    C4 7443   2.579  -0.043  10.267  0.1458 -0.2626 -0.6367
   68CHL1   H4A 7444   2.685  -0.077  10.264  0.3849  0.5344 -2.7352
   68CHL1   H4B 7445   2.523  -0.114  10.333  0.9106  0.5570  0.9365
   68CHL1    C5 7446   2.527  -0.054  10.129 -0.4051  0.1007 -0.1322
   68CHL1    C6 7447   2.431  -0.143  10.101 -0.3535  0.2324  0.5248
   68CHL1    H6 7448   2.399  -0.215  10.178  1.2780  1.6044  2.6294
   68CHL1    C7 7449   2.367  -0.165   9.966  0.3016  0.1180 -0.2718
   68CHL1   H7A 7450   2.351  -0.273   9.948  0.2099  0.5039 -2.8256
   68CHL1   H7B 7451   2.264  -0.122   9.960  2.2108  5.2138 -2.6859
   68CHL1    C8 7452   2.458  -0.102   9.854  0.5275  0.1013 -0.0426
   68CHL1    H8 7453   2.547  -0.169   9.848 -0.4377 -1.0898 -3.4048
   68CHL1   C14 7454   2.387  -0.119   9.723  0.0195 -0.0615 -0.1995
   68CHL1   H14 7455   2.295  -0.057   9.735  1.0368  1.0955  2.7160
   68CHL1   C15 7456   2.351  -0.258   9.680  0.6359  0.8722 -0.3356
   68CHL1  H15A 7457   2.436  -0.328   9.695 -0.3408 -0.1919  0.4145
   68CHL1  H15B 7458   2.263  -0.300   9.734 -0.0682  1.7714 -0.7535
   68CHL1   C16 7459   2.327  -0.249   9.532  0.3046  0.6361 -0.0580
   68CHL1  H16A 7460   2.388  -0.321   9.473 -0.4049  0.7345 -0.9342
   68CHL1  H16B 7461   2.220  -0.261   9.504 -0.5047  0.2293  2.8801
   68CHL1   C17 7462   2.367  -0.101   9.489  0.0169  0.8775 -0.1806
   68CHL1   H17 7463   2.277  -0.037   9.505 -1.5162 -1.6861  2.3249
   68CHL1   C13 7464   2.462  -0.055   9.600 -0.2578 -1.2376  0.8455
   68CHL1   C18 7465   2.603  -0.123   9.591 -0.4411  0.4550 -0.5116
   68CHL1  H18A 7466   2.665  -0.104   9.501 -0.1741  0.1445 -0.3931
   68CHL1  H18B 7467   2.661  -0.084   9.678 -0.9207  1.3276 -0.5669
   68CHL1  H18C 7468   2.601  -0.233   9.598 -1.6782  0.4306 -1.1135
   68CHL1   C12 7469   2.473   0.101   9.637  0.6468  0.2118 -0.5374
   68CHL1  H12A 7470   2.522   0.156   9.554  1.6829 -0.3517 -0.3053
   68CHL1  H12B 7471   2.370   0.145   9.640 -0.0392 -1.3691  1.7008
   68CHL1   C11 7472   2.551   0.124   9.770  0.1342  0.1642 -0.2478
   68CHL1  H11A 7473   2.654   0.086   9.752 -0.5087 -1.9346  0.2677
   68CHL1  H11B 7474   2.542   0.232   9.798  1.0669 -0.2851  2.0659
   68CHL1    C9 7475   2.495   0.043   9.893  0.2338 -0.2281  0.0286
   68CHL1    H9 7476   2.394   0.085   9.914  0.2108 -0.3898  0.2365
   68CHL1   C10 7477   2.576   0.053  10.023 -0.1031 -0.0035 -0.2543
   68CHL1   C19 7478   2.719   0.007   9.987 -0.5595  0.0284  0.0522
   68CHL1  H19A 7479   2.782  -0.020  10.075  0.6228 -0.3666 -0.8803
   68CHL1  H19B 7480   2.717  -0.084   9.923 -0.9406 -0.4115  0.6827
   68CHL1  H19C 7481   2.775   0.094   9.947 -0.2765 -0.1504  0.0543
   68CHL1    C1 7482   2.587   0.201  10.084  0.2143  1.0364  0.4777
   68CHL1   H1A 7483   2.643   0.257  10.006 -0.5029 -0.9201 -1.5468
   68CHL1   H1B 7484   2.484   0.242  10.095  0.3366  1.8029 -1.0189
   68CHL1    C2 7485   2.656   0.198  10.222 -0.0579  0.1535  0.7902
   68CHL1   H2A 7486   2.659   0.297  10.271  1.1436  0.1735  0.7141
   68CHL1   H2B 7487   2.760   0.160  10.217  0.4545  1.5785 -0.1234
   68CHL1   C20 7488   2.417  -0.099   9.341  0.3528 -0.6396  0.3271
   68CHL1   H20 7489   2.488  -0.183   9.334  0.2982 -0.6783  0.2297
   68CHL1   C21 7490   2.499   0.023   9.307  0.3886  0.7259 -0.2758
   68CHL1  H21A 7491   2.563  -0.002   9.219  0.3838 -2.7660  0.5508
   68CHL1  H21B 7492   2.564   0.059   9.389 -2.2982  1.1564  1.7773
   68CHL1  H21C 7493   2.435   0.106   9.273  0.8948  1.3475  0.2725
   68CHL1   C22 7494   2.296  -0.117   9.242 -0.5660 -0.5990 -0.5685
   68CHL1  H22A 7495   2.244  -0.212   9.271  1.5026 -1.1130  1.7792
   68CHL1  H22B 7496   2.219  -0.038   9.253 -1.3776 -1.4125 -0.2431
   68CHL1   C23 7497   2.332  -0.114   9.094  0.2422  0.3916  0.2285
   68CHL1  H23A 7498   2.376  -0.015   9.071 -3.7392  1.9637 -1.5224
   68CHL1  H23B 7499   2.402  -0.198   9.073  1.0923  1.2954 -0.6913
   68CHL1   C24 7500   2.206  -0.130   9.004 -0.2579  0.2539  0.0098
   68CHL1  H24A 7501   2.162  -0.230   9.027 -1.1945  0.8771  1.0456
   68CHL1  H24B 7502   2.130  -0.052   9.024 -0.1890  0.7095 -1.4337
   68CHL1   C25 7503   2.240  -0.117   8.859  0.0494  0.0070 -0.4113
   68CHL1   H25 7504   2.292  -0.021   8.838 -1.3310  0.7117 -0.7288
   68CHL1   C26 7505   2.332  -0.226   8.814  0.7357  0.3190 -0.2449
   68CHL1  H26A 7506   2.333  -0.235   8.704  3.1924  1.1610 -0.3655
   68CHL1  H26B 7507   2.435  -0.208   8.853  0.9957 -0.4325 -0.5661
   68CHL1  H26C 7508   2.297  -0.320   8.863 -0.1551  1.3818  1.2404
   68CHL1   C27 7509   2.107  -0.125   8.781  0.1350  0.4082  0.2111
   68CHL1  H27A 7510   2.063  -0.226   8.797  1.1169 -0.1168 -0.2902
   68CHL1  H27B 7511   2.038  -0.046   8.818 -1.0229 -0.8103  0.7279
   68CHL1  H27C 7512   2.117  -0.123   8.670 -0.2767 -1.7451  0.0931
   69CHL1    C3 7513   5.141   0.266   6.782 -0.4370 -0.1363 -0.4487
   69CHL1    H3 7514   5.230   0.323   6.816 -0.8532  0.6644 -0.6647
   69CHL1    O3 7515   5.183   0.237   6.651 -0.0211 -0.0784 -0.0199
   69CHL1   H3' 7516   5.197   0.323   6.610 -0.8740  0.7799  1.4146
   69CHL1    C4 7517   5.123   0.141   6.866  0.5316  0.2959 -0.4190
   69CHL1   H4A 7518   5.036   0.086   6.826 -0.6902  0.2084  2.2199
   69CHL1   H4B 7519   5.216   0.085   6.842  1.9447  2.3075  0.0463
   69CHL1    C5 7520   5.105   0.189   7.005 -0.4489 -0.0232  0.4883
   69CHL1    C6 7521   5.184   0.151   7.107 -0.0951  0.3508  0.4225
   69CHL1    H6 7522   5.271   0.092   7.075 -1.8241 -1.3231 -1.4440
   69CHL1    C7 7523   5.158   0.176   7.255  0.2104 -1.0103 -0.5175
   69CHL1   H7A 7524   5.157   0.080   7.312  2.3249  0.0811  1.5486
   69CHL1   H7B 7525   5.236   0.246   7.291 -0.2704 -0.4207 -0.6081
   69CHL1    C8 7526   5.012   0.235   7.276  0.8307  0.7109  0.6114
   69CHL1    H8 7527   4.947   0.145   7.266  1.7667  0.1635 -0.8755
   69CHL1   C14 7528   5.005   0.294   7.419  0.0660  0.4750 -0.2074
   69CHL1   H14 7529   5.087   0.370   7.423 -1.0654  2.2775 -4.4626
   69CHL1   C15 7530   5.038   0.210   7.548  0.0251 -0.6778  0.3772
   69CHL1  H15A 7531   4.964   0.127   7.547 -1.8958  0.9203 -1.8406
   69CHL1  H15B 7532   5.143   0.174   7.559  0.4556  0.3735 -0.1624
   69CHL1   C16 7533   4.998   0.311   7.661  0.3083  0.3187  0.4239
   69CHL1  H16A 7534   4.966   0.258   7.753  0.2373 -0.2653  0.0606
   69CHL1  H16B 7535   5.080   0.383   7.685 -1.8855  3.1056  0.1640
   69CHL1   C17 7536   4.886   0.396   7.594 -0.0863 -0.4644 -0.0247
   69CHL1   H17 7537   4.913   0.504   7.592 -0.0780 -0.4778 -1.2585
   69CHL1   C13 7538   4.866   0.357   7.445  0.3285 -0.3979 -0.3581
   69CHL1   C18 7539   4.750   0.246   7.436 -0.1964 -0.1957  0.1663
   69CHL1  H18A 7540   4.751   0.179   7.525  0.6238 -1.6215 -0.8862
   69CHL1  H18B 7541   4.649   0.291   7.440 -0.2333  0.0878 -2.5103
   69CHL1  H18C 7542   4.754   0.181   7.346 -1.2995 -0.6779  0.4511
   69CHL1   C12 7543   4.841   0.465   7.337 -0.0924  0.2426 -0.0481
   69CHL1  H12A 7544   4.754   0.530   7.358 -1.1862 -1.1647 -0.0587
   69CHL1  H12B 7545   4.928   0.533   7.351 -1.1129  1.2196  1.9626
   69CHL1   C11 7546   4.844   0.415   7.195  0.7783  0.4507 -0.7959
   69CHL1  H11A 7547   4.754   0.349   7.190  0.6735  0.3421  1.3663
   69CHL1  H11B 7548   4.824   0.498   7.124  0.1149 -1.0640 -2.4467
   69CHL1    C9 7549   4.974   0.336   7.165  0.7870  0.5614  0.2512
   69CHL1    H9 7550   5.058   0.406   7.182  1.3164 -0.1977  0.8473
   69CHL1   C10 7551   4.977   0.274   7.024 -0.4063  0.3968 -0.2068
   69CHL1   C19 7552   4.848   0.193   7.002 -0.1587 -0.0719  0.0667
   69CHL1  H19A 7553   4.767   0.269   7.001  0.9524  1.1432  0.1083
   69CHL1  H19B 7554   4.850   0.128   6.912  4.4415 -1.3436  0.8285
   69CHL1  H19C 7555   4.827   0.129   7.091 -1.7371 -1.8767 -1.4791
   69CHL1    C1 7556   4.980   0.395   6.925 -0.5798  0.7854 -0.1183
   69CHL1   H1A 7557   4.886   0.455   6.927 -0.3115  1.2107 -0.1788
   69CHL1   H1B 7558   5.060   0.463   6.960  1.5795  0.4008 -3.7953
   69CHL1    C2 7559   5.030   0.364   6.783  0.1674 -0.2708  0.2842
   69CHL1   H2A 7560   5.065   0.454   6.728 -2.4940  1.2452  0.8885
   69CHL1   H2B 7561   4.946   0.315   6.729  0.8085 -2.0325  0.8079
   69CHL1   C20 7562   4.763   0.406   7.690 -0.1005 -0.2466 -0.2686
   69CHL1   H20 7563   4.717   0.305   7.688 -1.0382 -0.0700  3.6920
   69CHL1   C21 7564   4.668   0.515   7.634  0.1170 -0.3518  0.3502
   69CHL1  H21A 7565   4.574   0.522   7.693 -0.6071 -1.1026 -0.6849
   69CHL1  H21B 7566   4.641   0.497   7.527  0.0292  3.1097 -0.3273
   69CHL1  H21C 7567   4.711   0.617   7.644 -1.7851  0.6269 -0.7883
   69CHL1   C22 7568   4.801   0.459   7.833 -1.1254  0.0900 -0.2880
   69CHL1  H22A 7569   4.894   0.410   7.870 -1.8402 -0.2256  1.1544
   69CHL1  H22B 7570   4.825   0.567   7.820 -0.2167 -0.1621 -0.8675
   69CHL1   C23 7571   4.691   0.449   7.936 -0.6147 -0.0069  0.2200
   69CHL1  H23A 7572   4.714   0.506   8.028  2.4442 -0.0096 -0.4274
   69CHL1  H23B 7573   4.608   0.507   7.891 -0.8037 -0.4581 -0.0208
   69CHL1   C24 7574   4.639   0.306   7.953 -0.7203  0.3543 -1.0175
   69CHL1  H24A 7575   4.596   0.280   7.854 -0.4380 -1.4665 -0.6899
   69CHL1  H24B 7576   4.723   0.237   7.975 -0.3918  0.4951 -1.7849
   69CHL1   C25 7577   4.530   0.296   8.067  0.2051  0.2784 -0.0942
   69CHL1   H25 7578   4.469   0.389   8.061  0.0163  0.1403 -0.3198
   69CHL1   C26 7579   4.438   0.175   8.042 -0.3498 -0.2043  0.0599
   69CHL1  H26A 7580   4.499   0.084   8.062 -2.4077 -1.7805 -0.4832
   69CHL1  H26B 7581   4.353   0.156   8.111 -1.3531 -4.6702 -2.0251
   69CHL1  H26C 7582   4.412   0.184   7.935  0.7063 -2.3968 -0.4264
   69CHL1   C27 7583   4.597   0.286   8.197 -0.1380  0.7767 -0.6056
   69CHL1  H27A 7584   4.536   0.284   8.289  2.3164 -0.8730  1.1168
   69CHL1  H27B 7585   4.678   0.209   8.196 -0.6034  0.2828 -1.5066
   69CHL1  H27C 7586   4.662   0.376   8.204 -0.2221  1.0057 -2.4054
   70CHL1    C3 7587   2.688   3.305   7.028 -0.1202  0.4431 -0.3137
   70CHL1    H3 7588   2.716   3.412   7.043  3.1552  0.1329 -2.9712
   70CHL1    O3 7589   2.733   3.278   6.898 -0.5030 -0.3489  0.7767
   70CHL1   H3' 7590   2.665   3.229   6.851 -1.8938  1.4525  0.8032
   70CHL1    C4 7591   2.754   3.203   7.133  0.2779 -0.8706  0.4286
   70CHL1   H4A 7592   2.724   3.099   7.106 -1.0265 -0.6313  0.8728
   70CHL1   H4B 7593   2.860   3.222   7.107  0.3289  1.3918  2.0916
   70CHL1    C5 7594   2.713   3.238   7.273 -0.2041 -0.5083  1.2250
   70CHL1    C6 7595   2.803   3.273   7.365  0.6611  0.2444 -0.4928
   70CHL1    H6 7596   2.912   3.274   7.354  0.4890  1.4059 -2.5164
   70CHL1    C7 7597   2.771   3.297   7.508  0.0659  0.2697  0.2217
   70CHL1   H7A 7598   2.852   3.259   7.573 -0.7000  0.9022  1.5747
   70CHL1   H7B 7599   2.778   3.406   7.526  3.1587  0.0457  0.9294
   70CHL1    C8 7600   2.628   3.254   7.547 -0.1741  0.6975 -0.1869
   70CHL1    H8 7601   2.639   3.145   7.568 -0.7218  0.9980  1.8972
   70CHL1   C14 7602   2.591   3.328   7.667 -0.5817 -0.1751  0.1227
   70CHL1   H14 7603   2.579   3.435   7.640  0.9083  0.1019  0.4957
   70CHL1   C15 7604   2.684   3.320   7.792  0.1401  0.0039 -0.0501
   70CHL1  H15A 7605   2.723   3.216   7.799 -2.4130 -0.9316  1.3695
   70CHL1  H15B 7606   2.768   3.393   7.789  0.0998  0.0193 -1.6292
   70CHL1   C16 7607   2.587   3.347   7.907 -0.1935  0.6273  0.0200
   70CHL1  H16A 7608   2.606   3.252   7.961 -2.3699  0.1837  0.0920
   70CHL1  H16B 7609   2.623   3.438   7.960  0.3914  1.5241 -1.8336
   70CHL1   C17 7610   2.448   3.357   7.854  0.6539  0.1100  0.2760
   70CHL1   H17 7611   2.426   3.465   7.836 -0.0167  0.0012  0.3999
   70CHL1   C13 7612   2.449   3.282   7.722 -0.1310 -0.9020 -0.2921
   70CHL1   C18 7613   2.433   3.137   7.746 -0.4459 -0.1546 -0.1307
   70CHL1  H18A 7614   2.503   3.101   7.824  0.1633  0.7522 -0.2553
   70CHL1  H18B 7615   2.331   3.121   7.788 -0.6554 -0.6965 -0.8353
   70CHL1  H18C 7616   2.459   3.074   7.659  2.6655  0.1676  0.4762
   70CHL1   C12 7617   2.349   3.324   7.616 -0.5049  0.2468 -0.6106
   70CHL1  H12A 7618   2.246   3.296   7.649 -0.6011  0.6997 -0.5173
   70CHL1  H12B 7619   2.350   3.434   7.607  1.6782  0.2464 -0.9171
   70CHL1   C11 7620   2.379   3.256   7.482 -0.6113  0.1499  0.1750
   70CHL1  H11A 7621   2.366   3.146   7.496 -0.1367  0.0774  0.0731
   70CHL1  H11B 7622   2.305   3.290   7.407 -0.5376 -2.5116 -1.2091
   70CHL1    C9 7623   2.525   3.289   7.438 -0.5617  0.4862  0.1871
   70CHL1    H9 7624   2.532   3.399   7.429 -1.7892  0.4874 -1.0674
   70CHL1   C10 7625   2.561   3.229   7.294  0.3048  0.8744  0.2755
   70CHL1   C19 7626   2.503   3.077   7.288 -0.2931 -0.4370  0.1253
   70CHL1  H19A 7627   2.533   3.031   7.192 -0.6868 -0.2458 -0.0925
   70CHL1  H19B 7628   2.546   3.024   7.376  1.3877 -0.0919 -0.4516
   70CHL1  H19C 7629   2.392   3.085   7.296 -0.3022  1.3476 -1.0546
   70CHL1    C1 7630   2.494   3.323   7.184  0.0151 -0.4661  0.6233
   70CHL1   H1A 7631   2.385   3.323   7.204 -0.3314 -0.9087 -1.0957
   70CHL1   H1B 7632   2.530   3.428   7.193 -1.9284  0.6081 -2.3197
   70CHL1    C2 7633   2.536   3.294   7.040  0.3201 -0.0307 -0.7931
   70CHL1   H2A 7634   2.494   3.370   6.971 -2.7566 -1.9017 -1.1380
   70CHL1   H2B 7635   2.497   3.200   6.996 -1.1132  0.3109 -0.2945
   70CHL1   C20 7636   2.344   3.315   7.965  0.1368 -0.0732 -0.3492
   70CHL1   H20 7637   2.351   3.205   7.978 -1.7130 -0.0944  0.7812
   70CHL1   C21 7638   2.199   3.356   7.926  0.1875  0.8961  0.1593
   70CHL1  H21A 7639   2.169   3.306   7.832 -0.5318 -0.8299  1.2642
   70CHL1  H21B 7640   2.207   3.466   7.913  3.6665  0.6659 -0.5763
   70CHL1  H21C 7641   2.128   3.326   8.006  0.0250  1.2576  0.1516
   70CHL1   C22 7642   2.369   3.379   8.107 -0.4943  0.2624  0.1058
   70CHL1  H22A 7643   2.476   3.365   8.134  0.1260  0.9826 -1.8436
   70CHL1  H22B 7644   2.356   3.489   8.094 -0.4122  0.5113  1.8923
   70CHL1   C23 7645   2.277   3.338   8.216 -0.1628  0.0046 -1.7407
   70CHL1  H23A 7646   2.180   3.391   8.209 -0.5198 -0.4175 -0.2578
   70CHL1  H23B 7647   2.261   3.228   8.221  1.7256 -0.2688 -0.5759
   70CHL1   C24 7648   2.338   3.375   8.355 -0.6159  0.1115 -0.7791
   70CHL1  H24A 7649   2.380   3.283   8.403  0.7244  0.4233 -1.3075
   70CHL1  H24B 7650   2.428   3.438   8.341  0.5136 -1.1512  0.4791
   70CHL1   C25 7651   2.244   3.452   8.449  0.2043 -0.2219 -0.3139
   70CHL1   H25 7652   2.146   3.399   8.448  0.6159 -1.0478 -2.1197
   70CHL1   C26 7653   2.306   3.473   8.588  0.1884 -0.0141  0.0908
   70CHL1  H26A 7654   2.229   3.518   8.655 -0.5388 -1.4625  0.2585
   70CHL1  H26B 7655   2.330   3.373   8.630  0.5028  0.7421  1.8056
   70CHL1  H26C 7656   2.401   3.530   8.573  1.0564 -1.9267 -2.3485
   70CHL1   C27 7657   2.220   3.593   8.387  0.2156 -0.2916  0.5215
   70CHL1  H27A 7658   2.167   3.597   8.290 -0.2536  1.3286  0.8125
   70CHL1  H27B 7659   2.149   3.651   8.451 -1.7155 -1.5330 -0.4150
   70CHL1  H27C 7660   2.312   3.655   8.375  0.4467 -0.6963  0.1760
   71CHL1    C3 7661   4.222   6.268   6.856 -0.2114  0.6887 -0.5688
   71CHL1    H3 7662   4.287   6.180   6.869  0.9554  1.4188 -1.3312
   71CHL1    O3 7663   4.180   6.279   6.726 -0.2312  0.6231  0.2657
   71CHL1   H3' 7664   4.169   6.373   6.712  0.5773  0.6923  0.0814
   71CHL1    C4 7665   4.093   6.274   6.948  0.0647 -0.3340  0.5388
   71CHL1   H4A 7666   4.030   6.361   6.922  1.9957  0.4488 -1.9706
   71CHL1   H4B 7667   4.029   6.186   6.927  0.5866 -0.3369 -1.2182
   71CHL1    C5 7668   4.135   6.286   7.089  0.4236 -0.4075 -0.0043
   71CHL1    C6 7669   4.092   6.190   7.176  0.1205 -0.2447 -0.0774
   71CHL1    H6 7670   4.022   6.116   7.136 -0.8360  1.4357 -1.6522
   71CHL1    C7 7671   4.123   6.183   7.324  0.9035  0.4430 -0.0915
   71CHL1   H7A 7672   4.038   6.145   7.385  2.5169 -2.4060  0.5588
   71CHL1   H7B 7673   4.191   6.099   7.348 -0.6343 -1.6623 -2.5810
   71CHL1    C8 7674   4.172   6.312   7.379 -0.1450 -0.1539 -0.9387
   71CHL1    H8 7675   4.084   6.380   7.383  0.1207  0.1380  0.2717
   71CHL1   C14 7676   4.221   6.301   7.523 -0.1059  0.3944 -0.0756
   71CHL1   H14 7677   4.310   6.235   7.513 -1.3944 -1.3859 -0.0944
   71CHL1   C15 7678   4.137   6.238   7.630 -0.0046  0.0817 -0.9517
   71CHL1  H15A 7679   4.038   6.288   7.637  0.1989  0.2452  1.3984
   71CHL1  H15B 7680   4.131   6.127   7.625  0.3166  0.1018 -2.4256
   71CHL1   C16 7681   4.208   6.271   7.768  1.3641 -0.3838 -0.0928
   71CHL1  H16A 7682   4.139   6.304   7.849  2.0066 -0.9016  0.6867
   71CHL1  H16B 7683   4.265   6.185   7.808 -0.9328 -2.7900 -1.6889
   71CHL1   C17 7684   4.302   6.383   7.725 -0.5552  0.0056  0.1160
   71CHL1   H17 7685   4.401   6.334   7.726  0.5095  2.0362  1.4813
   71CHL1   C13 7686   4.280   6.433   7.580  0.7694  0.0915  0.2688
   71CHL1   C18 7687   4.159   6.529   7.585  0.1966 -0.0775 -0.2869
   71CHL1  H18A 7688   4.073   6.493   7.646 -0.9912  0.2436 -1.7191
   71CHL1  H18B 7689   4.197   6.625   7.627 -1.6809  0.6953 -0.2428
   71CHL1  H18C 7690   4.113   6.561   7.489  0.3271  2.1621  0.3309
   71CHL1   C12 7691   4.401   6.484   7.491 -0.3553  0.1174 -0.4124
   71CHL1  H12A 7692   4.423   6.587   7.525  0.0752 -0.3044  0.6360
   71CHL1  H12B 7693   4.481   6.407   7.488 -1.5676 -1.1401 -2.3900
   71CHL1   C11 7694   4.359   6.494   7.344  0.1127  0.0999 -0.1255
   71CHL1  H11A 7695   4.290   6.581   7.339 -0.9127 -0.6541  0.4825
   71CHL1  H11B 7696   4.455   6.503   7.290 -0.0342 -2.7769 -1.0321
   71CHL1    C9 7697   4.280   6.371   7.283  0.3245 -0.0779 -0.5047
   71CHL1    H9 7698   4.354   6.289   7.279 -0.4228 -0.7196 -1.7579
   71CHL1   C10 7699   4.234   6.396   7.132 -0.1831 -0.4048 -0.1383
   71CHL1   C19 7700   4.157   6.529   7.105 -0.8180 -0.2221 -0.6300
   71CHL1  H19A 7701   4.113   6.535   7.003 -2.8865 -1.2861  0.1279
   71CHL1  H19B 7702   4.071   6.549   7.173  0.9282  0.4884  1.5057
   71CHL1  H19C 7703   4.229   6.612   7.122  0.5990 -1.4111 -0.6153
   71CHL1    C1 7704   4.360   6.388   7.043 -0.1731 -1.0781  0.1387
   71CHL1   H1A 7705   4.421   6.479   7.060  0.2390 -1.3199 -0.0406
   71CHL1   H1B 7706   4.411   6.294   7.072 -1.7767 -1.0240  3.6392
   71CHL1    C2 7707   4.329   6.384   6.887 -0.3361  0.7975 -0.1398
   71CHL1   H2A 7708   4.425   6.352   6.842 -0.4374 -0.1486  0.2814
   71CHL1   H2B 7709   4.293   6.482   6.848  0.2595  0.7030 -0.9373
   71CHL1   C20 7710   4.337   6.491   7.827  0.0955 -0.2592 -0.0006
   71CHL1   H20 7711   4.364   6.585   7.774  1.0874 -0.9133 -0.6871
   71CHL1   C21 7712   4.450   6.434   7.909 -0.1586  0.6002  0.0840
   71CHL1  H21A 7713   4.538   6.404   7.848  2.3092  2.8863  2.2605
   71CHL1  H21B 7714   4.409   6.348   7.967 -2.7461  2.8185  1.8018
   71CHL1  H21C 7715   4.499   6.505   7.979  0.9941  0.2701 -0.3669
   71CHL1   C22 7716   4.231   6.540   7.934  0.2517  0.7196  0.3168
   71CHL1  H22A 7717   4.139   6.572   7.881  0.9839  0.6210 -1.0562
   71CHL1  H22B 7718   4.200   6.454   7.998  0.6548  1.4318  1.5082
   71CHL1   C23 7719   4.261   6.648   8.042  0.5751  0.2050  0.7077
   71CHL1  H23A 7720   4.312   6.607   8.131 -1.0243 -1.2551  1.0041
   71CHL1  H23B 7721   4.324   6.728   7.998  0.9988  0.5642  1.9191
   71CHL1   C24 7722   4.132   6.722   8.097  0.2799 -0.0373  0.5565
   71CHL1  H24A 7723   4.176   6.801   8.161  1.0454  1.0089 -1.1836
   71CHL1  H24B 7724   4.075   6.764   8.011 -0.4018 -1.3054  0.3591
   71CHL1   C25 7725   4.038   6.643   8.189 -0.6872  0.4328  0.5280
   71CHL1   H25 7726   3.992   6.558   8.135 -0.5331  0.8179 -0.2150
   71CHL1   C26 7727   4.108   6.600   8.321  1.0126 -0.3907 -0.7062
   71CHL1  H26A 7728   4.184   6.519   8.308  0.0728 -1.7611  1.8091
   71CHL1  H26B 7729   4.153   6.691   8.365  0.7190 -0.7105  0.2821
   71CHL1  H26C 7730   4.037   6.560   8.395 -0.1030 -0.5306 -1.8171
   71CHL1   C27 7731   3.919   6.731   8.213 -0.0237 -1.3469  0.2246
   71CHL1  H27A 7732   3.877   6.740   8.110 -1.9108 -2.2968  0.8658
   71CHL1  H27B 7733   3.840   6.694   8.281 -0.2872 -0.4708  0.4079
   71CHL1  H27C 7734   3.948   6.834   8.243 -3.2364 -0.7891  1.8610
   72CHL1    C3 7735   4.132   4.370   7.102  0.3910  0.0777  0.8050
   72CHL1    H3 7736   4.022   4.378   7.116  0.0953 -2.3302  0.3126
   72CHL1    O3 7737   4.158   4.402   6.968 -0.1486  0.7499 -0.0187
   72CHL1   H3' 7738   4.068   4.409   6.936 -0.7025 -1.1951  0.9437
   72CHL1    C4 7739   4.197   4.484   7.188 -0.2955 -0.0450  0.2637
   72CHL1   H4A 7740   4.304   4.497   7.161 -0.4280 -0.1473 -0.3221
   72CHL1   H4B 7741   4.150   4.580   7.157 -1.1112 -0.6152 -0.2895
   72CHL1    C5 7742   4.180   4.462   7.335  0.1802  0.2344 -0.6931
   72CHL1    C6 7743   4.118   4.549   7.418  0.3647 -0.4096  0.3129
   72CHL1    H6 7744   4.084   4.642   7.370 -0.7533 -1.2438 -0.5766
   72CHL1    C7 7745   4.097   4.528   7.568  0.2556  0.8573  0.4690
   72CHL1   H7A 7746   4.146   4.605   7.630 -0.5090  0.6352  1.3626
   72CHL1   H7B 7747   3.989   4.529   7.595  0.0108  1.2415 -0.4759
   72CHL1    C8 7748   4.163   4.399   7.621  0.2683  0.5418  0.5739
   72CHL1    H8 7749   4.272   4.420   7.626  0.3688  1.0721 -2.2282
   72CHL1   C14 7750   4.112   4.359   7.752  0.4491 -0.5033  0.5040
   72CHL1   H14 7751   4.007   4.328   7.735 -0.2608  2.3989 -1.0807
   72CHL1   C15 7752   4.107   4.473   7.860 -0.1582  0.5000  0.6526
   72CHL1  H15A 7753   4.198   4.537   7.858  0.4372 -0.3417 -0.1051
   72CHL1  H15B 7754   4.013   4.532   7.851 -1.4275 -0.7001  4.2722
   72CHL1   C16 7755   4.097   4.391   7.995  0.2238  0.7402 -0.3509
   72CHL1  H16A 7756   4.187   4.402   8.058  0.4983 -2.6260  0.0330
   72CHL1  H16B 7757   4.004   4.427   8.043 -0.0030 -0.7053  0.3611
   72CHL1   C17 7758   4.086   4.240   7.958 -0.5672 -0.3904 -0.2250
   72CHL1   H17 7759   3.979   4.230   7.929 -0.8357  1.6513 -0.0434
   72CHL1   C13 7760   4.166   4.226   7.820  0.1391 -0.4653 -1.0170
   72CHL1   C18 7761   4.315   4.238   7.843  0.2302  0.6129 -0.6708
   72CHL1  H18A 7762   4.374   4.240   7.750  1.0232  1.2337 -0.1644
   72CHL1  H18B 7763   4.337   4.331   7.900 -2.2764 -0.4940  2.4069
   72CHL1  H18C 7764   4.365   4.158   7.902  0.7576  0.8935 -0.7378
   72CHL1   C12 7765   4.135   4.110   7.724  0.4447 -0.2874  0.0118
   72CHL1  H12A 7766   4.177   4.015   7.761  0.1548 -1.3464 -2.2036
   72CHL1  H12B 7767   4.025   4.095   7.717  0.5694 -1.6499  0.6645
   72CHL1   C11 7768   4.192   4.145   7.578  0.7751  0.0199  0.0903
   72CHL1  H11A 7769   4.303   4.147   7.588  0.7948  3.6369  0.3518
   72CHL1  H11B 7770   4.162   4.062   7.511  0.2630 -0.1139  0.4749
   72CHL1    C9 7771   4.145   4.280   7.521  0.8354 -0.1378 -0.4570
   72CHL1    H9 7772   4.035   4.278   7.506  0.6887  0.4182  0.4594
   72CHL1   C10 7773   4.208   4.315   7.384 -0.5150  0.0456 -0.6083
   72CHL1   C19 7774   4.363   4.291   7.386 -0.1061 -0.1575 -0.3906
   72CHL1  H19A 7775   4.418   4.357   7.456 -0.4616  1.0013 -1.1802
   72CHL1  H19B 7776   4.376   4.182   7.405  1.6379  0.3672  1.6941
   72CHL1  H19C 7777   4.400   4.322   7.286 -0.9859  0.6266 -0.4853
   72CHL1    C1 7778   4.152   4.214   7.283  0.4179 -0.3112 -0.2909
   72CHL1   H1A 7779   4.188   4.112   7.309  1.1975  0.2450  0.8585
   72CHL1   H1B 7780   4.041   4.211   7.294  0.1252  1.3930 -2.1753
   72CHL1    C2 7781   4.189   4.234   7.135 -0.0956 -0.2262 -0.3012
   72CHL1   H2A 7782   4.146   4.145   7.086 -0.4557 -0.1369 -0.1561
   72CHL1   H2B 7783   4.299   4.226   7.121  0.0234 -0.3961  0.6398
   72CHL1   C20 7784   4.122   4.157   8.086  0.5553 -0.2662  0.2125
   72CHL1   H20 7785   4.225   4.189   8.114  1.8079 -0.8061 -3.2195
   72CHL1   C21 7786   4.132   4.013   8.055 -0.4791 -0.4025  0.2429
   72CHL1  H21A 7787   4.180   3.956   8.137 -1.4948 -1.6910 -0.0321
   72CHL1  H21B 7788   4.196   3.999   7.966  1.6037 -0.0433  1.6072
   72CHL1  H21C 7789   4.034   3.969   8.026 -0.3660 -0.4900 -0.0054
   72CHL1   C22 7790   4.036   4.180   8.214  0.9159 -0.2382  0.3306
   72CHL1  H22A 7791   4.031   4.290   8.232 -1.1369  0.2404 -2.5339
   72CHL1  H22B 7792   3.935   4.138   8.199  0.1576  2.2305 -2.2493
   72CHL1   C23 7793   4.095   4.098   8.328  0.3955 -1.0566  0.5377
   72CHL1  H23A 7794   4.063   3.992   8.317 -0.6186 -0.7391  0.2648
   72CHL1  H23B 7795   4.206   4.108   8.330  0.2467  0.8411  0.4530
   72CHL1   C24 7796   4.047   4.142   8.466  0.0929  0.1923  0.5205
   72CHL1  H24A 7797   4.110   4.095   8.544 -0.1398 -1.3451 -0.1864
   72CHL1  H24B 7798   4.077   4.248   8.477  0.7835  0.0351  0.1991
   72CHL1   C25 7799   3.902   4.122   8.490  0.4196  0.8602  0.0780
   72CHL1   H25 7800   3.838   4.169   8.413 -0.4698 -0.9999 -0.3767
   72CHL1   C26 7801   3.862   3.967   8.488 -0.5641  0.2292  0.6390
   72CHL1  H26A 7802   3.906   3.918   8.399  0.6623  0.5720  1.0391
   72CHL1  H26B 7803   3.907   3.907   8.570  0.6057  2.6421  1.8740
   72CHL1  H26C 7804   3.751   3.959   8.484 -0.6827  1.4360  1.0954
   72CHL1   C27 7805   3.858   4.175   8.632  0.1174 -0.3316  0.4935
   72CHL1  H27A 7806   3.912   4.270   8.653 -0.7035 -0.1156  1.7907
   72CHL1  H27B 7807   3.748   4.186   8.638  0.3250  2.4497  0.4964
   72CHL1  H27C 7808   3.884   4.097   8.706 -1.4138  0.5385  2.0462
   73CHL1    C3 7809   4.415   0.170   6.946  0.1093  0.9355  0.0633
   73CHL1    H3 7810   4.341   0.244   6.910 -0.8219  0.1884  0.4126
   73CHL1    O3 7811   4.493   0.132   6.836 -0.3689  0.4968 -0.5191
   73CHL1   H3' 7812   4.563   0.198   6.836  1.5884 -1.4636 -0.0662
   73CHL1    C4 7813   4.497   0.250   7.045 -0.5461  0.5516 -1.1547
   73CHL1   H4A 7814   4.579   0.183   7.079 -0.5704  0.2158 -1.7325
   73CHL1   H4B 7815   4.545   0.336   6.994 -0.0083  0.6421 -0.5006
   73CHL1    C5 7816   4.418   0.283   7.170 -0.2381  0.4372 -0.3685
   73CHL1    C6 7817   4.423   0.412   7.213  0.9602 -0.0381 -0.0279
   73CHL1    H6 7818   4.482   0.489   7.161 -1.1951  2.3868  0.9387
   73CHL1    C7 7819   4.350   0.462   7.336  1.0529  0.2363  0.2990
   73CHL1   H7A 7820   4.425   0.522   7.392  0.2929  1.5046 -0.0246
   73CHL1   H7B 7821   4.268   0.528   7.302  0.3881 -1.1746 -0.9228
   73CHL1    C8 7822   4.291   0.353   7.425 -0.0958 -0.0391  0.0198
   73CHL1    H8 7823   4.382   0.311   7.472  0.8372  3.6855  1.8931
   73CHL1   C14 7824   4.192   0.399   7.526  0.4700  0.6248 -0.2268
   73CHL1   H14 7825   4.107   0.435   7.463 -0.0330 -0.6863 -0.3262
   73CHL1   C15 7826   4.230   0.512   7.614 -0.1102 -0.2940 -0.1449
   73CHL1  H15A 7827   4.334   0.492   7.645 -0.8661 -2.1213  1.3712
   73CHL1  H15B 7828   4.233   0.609   7.559 -0.7569  0.9548  1.8877
   73CHL1   C16 7829   4.146   0.504   7.740  0.9736 -0.3504  0.1779
   73CHL1  H16A 7830   4.223   0.506   7.820 -0.7878  1.8842  1.9766
   73CHL1  H16B 7831   4.079   0.592   7.754  0.9123 -0.7805  3.3748
   73CHL1   C17 7832   4.066   0.369   7.734 -0.2838  0.1198  0.6985
   73CHL1   H17 7833   3.970   0.394   7.685 -0.7185 -3.3645 -0.5205
   73CHL1   C13 7834   4.139   0.288   7.622  0.5780 -0.1775  0.2271
   73CHL1   C18 7835   4.254   0.210   7.693 -0.2746 -0.8193  0.0416
   73CHL1  H18A 7836   4.329   0.175   7.619  1.6049  1.7287  0.5989
   73CHL1  H18B 7837   4.305   0.288   7.753 -0.0948 -0.8716 -0.0426
   73CHL1  H18C 7838   4.215   0.120   7.745 -0.7315 -0.3519  0.5222
   73CHL1   C12 7839   4.052   0.197   7.529 -0.1172 -0.7243  1.0368
   73CHL1  H12A 7840   4.000   0.119   7.588  0.2481 -1.1623  0.7769
   73CHL1  H12B 7841   3.975   0.254   7.472  1.5292 -0.5467 -1.1016
   73CHL1   C11 7842   4.145   0.131   7.424  0.4935  0.4713  0.0736
   73CHL1  H11A 7843   4.215   0.058   7.469  2.6168  1.4234 -1.5331
   73CHL1  H11B 7844   4.080   0.073   7.354  0.0322 -0.0430  0.9067
   73CHL1    C9 7845   4.227   0.238   7.338 -0.4691  0.0618  0.2823
   73CHL1    H9 7846   4.152   0.288   7.274 -0.7195  0.3121  0.7633
   73CHL1   C10 7847   4.332   0.177   7.237  0.0331 -0.3961  0.1892
   73CHL1   C19 7848   4.429   0.080   7.313 -0.4347 -0.7111 -0.2356
   73CHL1  H19A 7849   4.480   0.141   7.391  1.2803 -1.1408 -0.9972
   73CHL1  H19B 7850   4.376  -0.004   7.363  0.0962 -1.9240 -1.6438
   73CHL1  H19C 7851   4.507   0.039   7.246 -1.5950  0.2927 -2.3132
   73CHL1    C1 7852   4.256   0.099   7.129  0.1856 -0.0286  0.1943
   73CHL1   H1A 7853   4.204   0.019   7.187 -0.4975  2.3027  3.0493
   73CHL1   H1B 7854   4.178   0.164   7.083  1.3244  1.7363  0.6470
   73CHL1    C2 7855   4.342   0.053   7.014  0.1552 -0.4426 -0.3851
   73CHL1   H2A 7856   4.265   0.021   6.941 -1.2329  1.2288  0.2989
   73CHL1   H2B 7857   4.407  -0.031   7.047 -0.8469 -1.9121 -1.9913
   73CHL1   C20 7858   4.035   0.316   7.882  0.0364 -0.4451  0.1214
   73CHL1   H20 7859   4.127   0.259   7.909  0.5674  0.2214 -0.2580
   73CHL1   C21 7860   3.919   0.205   7.882 -1.1539 -0.1074  0.5089
   73CHL1  H21A 7861   3.953   0.122   7.816  2.2440  2.6530 -1.5674
   73CHL1  H21B 7862   3.825   0.261   7.860 -0.2818  1.6972  1.2274
   73CHL1  H21C 7863   3.914   0.164   7.985 -1.9031  1.0717  0.9551
   73CHL1   C22 7864   4.002   0.433   7.977 -0.6155  0.0516  0.4729
   73CHL1  H22A 7865   4.084   0.508   7.987  0.2222 -0.6863 -0.6250
   73CHL1  H22B 7866   3.915   0.487   7.933 -1.1591  1.5292  3.1608
   73CHL1   C23 7867   3.977   0.390   8.125 -0.2559  0.0200 -0.3629
   73CHL1  H23A 7868   3.887   0.324   8.127 -0.4670  0.2716  2.2664
   73CHL1  H23B 7869   4.063   0.329   8.158 -0.5599  1.0196  2.6155
   73CHL1   C24 7870   3.952   0.504   8.230 -0.5030 -0.5966 -0.7665
   73CHL1  H24A 7871   4.017   0.594   8.218 -1.7043  0.4158  0.1262
   73CHL1  H24B 7872   3.852   0.541   8.199 -0.0426 -0.8394 -2.6815
   73CHL1   C25 7873   3.961   0.473   8.381 -0.3536 -0.3156 -0.1098
   73CHL1   H25 7874   3.916   0.373   8.401 -1.1692  0.1909  0.6620
   73CHL1   C26 7875   4.104   0.484   8.429 -0.1931  0.0180  0.5864
   73CHL1  H26A 7876   4.141   0.588   8.418 -0.6602  0.2225  0.9253
   73CHL1  H26B 7877   4.111   0.458   8.537  1.1933 -0.5157  0.3862
   73CHL1  H26C 7878   4.159   0.410   8.368 -0.5524 -0.2756  0.6145
   73CHL1   C27 7879   3.882   0.572   8.461 -0.2489 -0.2987 -0.3639
   73CHL1  H27A 7880   3.881   0.540   8.567  0.8451 -3.2296 -1.1430
   73CHL1  H27B 7881   3.912   0.678   8.445  2.0418 -0.9564 -0.7200
   73CHL1  H27C 7882   3.781   0.559   8.417 -0.0788 -1.6965 -0.3661
   74CHL1    C3 7883   1.325   1.084   7.052 -0.3920 -0.3306  0.1523
   74CHL1    H3 7884   1.314   0.976   7.075 -0.2290 -0.7083 -1.4595
   74CHL1    O3 7885   1.310   1.100   6.915 -0.2366 -0.0050  0.0997
   74CHL1   H3' 7886   1.328   1.190   6.887 -2.0008  0.3704  0.0634
   74CHL1    C4 7887   1.222   1.184   7.113  0.2845 -0.1930 -0.0979
   74CHL1   H4A 7888   1.232   1.285   7.070 -0.3290  0.6397  1.6144
   74CHL1   H4B 7889   1.117   1.158   7.090 -0.1266  1.3423 -0.0327
   74CHL1    C5 7890   1.235   1.193   7.260 -0.4380 -0.3110 -0.0446
   74CHL1    C6 7891   1.133   1.160   7.337  0.5560  0.3459 -0.5924
   74CHL1    H6 7892   1.030   1.143   7.301 -0.0552  0.6250  0.9195
   74CHL1    C7 7893   1.145   1.166   7.486 -0.8525  0.2638 -0.1422
   74CHL1   H7A 7894   1.046   1.198   7.526  0.0065  1.2825  1.2573
   74CHL1   H7B 7895   1.160   1.066   7.532 -1.5669  2.0643  4.6119
   74CHL1    C8 7896   1.268   1.248   7.541  0.1385  0.8328 -0.1261
   74CHL1    H8 7897   1.241   1.355   7.528  1.1176  1.2274  0.9606
   74CHL1   C14 7898   1.284   1.204   7.684 -0.0275  0.1698  0.2536
   74CHL1   H14 7899   1.311   1.097   7.671 -0.3634  0.1635 -0.4491
   74CHL1   C15 7900   1.159   1.214   7.775  0.0744  0.3386  0.5063
   74CHL1  H15A 7901   1.108   1.313   7.766 -0.6282 -0.2115 -2.2531
   74CHL1  H15B 7902   1.086   1.132   7.760  0.9316 -0.1862 -0.9297
   74CHL1   C16 7903   1.215   1.204   7.919 -0.3312 -0.5923  1.0207
   74CHL1  H16A 7904   1.186   1.291   7.982  0.2601 -0.0665  0.5742
   74CHL1  H16B 7905   1.191   1.108   7.970 -0.1376 -1.0511  0.2618
   74CHL1   C17 7906   1.371   1.208   7.899 -0.6318 -0.2267 -0.0103
   74CHL1   H17 7907   1.401   1.101   7.894  0.4831 -0.3007  4.3727
   74CHL1   C13 7908   1.396   1.273   7.757 -0.1061 -0.8197 -0.0415
   74CHL1   C18 7909   1.363   1.429   7.773 -0.7434  1.0199  0.0450
   74CHL1  H18A 7910   1.347   1.465   7.669 -0.1226 -3.0586 -1.6431
   74CHL1  H18B 7911   1.272   1.432   7.837 -0.5762 -1.8656  0.5656
   74CHL1  H18C 7912   1.447   1.475   7.827 -0.5648  0.7013  0.0403
   74CHL1   C12 7913   1.528   1.259   7.673  0.3489 -0.0533  0.4257
   74CHL1  H12A 7914   1.606   1.323   7.720 -1.0709  0.3789  2.3208
   74CHL1  H12B 7915   1.550   1.150   7.678  0.3662 -0.0026  2.2587
   74CHL1   C11 7916   1.509   1.291   7.525  0.0273  0.1021  0.4680
   74CHL1  H11A 7917   1.505   1.402   7.522 -1.6045  0.1243  1.6399
   74CHL1  H11B 7918   1.597   1.255   7.468 -0.7783  2.0722 -2.2243
   74CHL1    C9 7919   1.391   1.213   7.466 -0.0434 -0.0224  0.4305
   74CHL1    H9 7920   1.403   1.103   7.467 -0.0468 -0.0215  1.6460
   74CHL1   C10 7921   1.376   1.227   7.311  0.8490  0.0692  1.2102
   74CHL1   C19 7922   1.407   1.374   7.277 -0.4019 -0.7858  0.5880
   74CHL1  H19A 7923   1.515   1.392   7.294 -0.1925 -0.4481 -0.9555
   74CHL1  H19B 7924   1.407   1.395   7.168  3.0146 -2.0963  0.2095
   74CHL1  H19C 7925   1.338   1.441   7.334 -1.2784 -1.8613  0.8256
   74CHL1    C1 7926   1.479   1.135   7.237 -0.3023 -0.0859 -0.3278
   74CHL1   H1A 7927   1.582   1.157   7.273 -1.2084  0.3482  2.2253
   74CHL1   H1B 7928   1.466   1.030   7.271 -0.4407 -0.2677 -0.9304
   74CHL1    C2 7929   1.462   1.136   7.086  0.0234 -0.2852  0.1402
   74CHL1   H2A 7930   1.538   1.072   7.036  0.0729 -0.6351  0.6427
   74CHL1   H2B 7931   1.479   1.239   7.050  0.0778 -0.5989 -0.7571
   74CHL1   C20 7932   1.450   1.265   8.020 -0.2980  0.6589  0.4645
   74CHL1   H20 7933   1.427   1.374   8.015 -2.1474  0.2656 -0.3010
   74CHL1   C21 7934   1.601   1.238   8.000  0.6811 -0.4858  0.6500
   74CHL1  H21A 7935   1.667   1.266   8.085  2.2160 -0.7151 -0.4292
   74CHL1  H21B 7936   1.633   1.288   7.906 -0.9334 -0.1937  0.2231
   74CHL1  H21C 7937   1.610   1.127   7.998  1.5593 -0.4112 -0.4340
   74CHL1   C22 7938   1.396   1.212   8.160 -0.6434 -0.1394  0.4406
   74CHL1  H22A 7939   1.295   1.255   8.172 -0.3131  1.3027 -1.5890
   74CHL1  H22B 7940   1.387   1.101   8.159  1.2427 -0.3334  0.7547
   74CHL1   C23 7941   1.491   1.261   8.276 -0.6600 -0.0547 -0.3436
   74CHL1  H23A 7942   1.593   1.217   8.271 -1.5497 -2.2213 -0.6008
   74CHL1  H23B 7943   1.490   1.372   8.271 -2.4439  0.0023  0.5748
   74CHL1   C24 7944   1.431   1.214   8.409  0.2673  0.2892  0.1181
   74CHL1  H24A 7945   1.458   1.277   8.496  1.3495  1.4806 -1.0334
   74CHL1  H24B 7946   1.324   1.241   8.398  0.0752  1.8621  4.2185
   74CHL1   C25 7947   1.448   1.068   8.447  0.4659 -0.3082 -0.0507
   74CHL1   H25 7948   1.434   1.023   8.347 -2.2650  2.1856 -0.9571
   74CHL1   C26 7949   1.582   1.035   8.511 -1.1919 -1.1537 -0.3035
   74CHL1  H26A 7950   1.607   1.106   8.592 -0.2174 -0.5899 -1.0762
   74CHL1  H26B 7951   1.594   0.929   8.543 -0.6411 -0.8756  0.4351
   74CHL1  H26C 7952   1.668   1.043   8.440 -1.9364 -0.4196 -1.1528
   74CHL1   C27 7953   1.328   1.025   8.528  0.3391 -0.3401 -0.0969
   74CHL1  H27A 7954   1.330   1.052   8.636 -1.7135 -1.1779  0.2004
   74CHL1  H27B 7955   1.232   1.068   8.492 -0.3553 -0.2734  1.6974
   74CHL1  H27C 7956   1.339   0.915   8.518  0.1283 -0.1807 -2.5358
   75CHL1    C3 7957   4.703   5.968   6.906 -1.0039  0.4560 -0.1471
   75CHL1    H3 7958   4.651   5.882   6.953 -0.7876  1.3503  1.8172
   75CHL1    O3 7959   4.687   5.972   6.765 -0.0824 -0.5968 -0.1399
   75CHL1   H3' 7960   4.739   5.899   6.732  0.4126 -0.3377  0.0713
   75CHL1    C4 7961   4.654   6.095   6.975  0.4125  0.3273  0.2426
   75CHL1   H4A 7962   4.681   6.196   6.938  0.4254  0.4682  0.6250
   75CHL1   H4B 7963   4.543   6.099   6.964  0.0070  0.9092  3.4932
   75CHL1    C5 7964   4.680   6.089   7.128 -0.5358 -0.3776 -0.2695
   75CHL1    C6 7965   4.592   6.091   7.226  0.1766  0.2344 -0.4005
   75CHL1    H6 7966   4.485   6.098   7.198  0.5989  1.2024 -1.8866
   75CHL1    C7 7967   4.618   6.102   7.373  0.5753 -0.2384 -0.6419
   75CHL1   H7A 7968   4.562   6.183   7.425  1.2847  0.9366 -1.6320
   75CHL1   H7B 7969   4.596   6.005   7.423  1.0741 -0.6506 -1.2030
   75CHL1    C8 7970   4.769   6.131   7.408  0.4350 -0.1000 -0.6857
   75CHL1    H8 7971   4.782   6.241   7.406  0.7603 -0.0933  0.7155
   75CHL1   C14 7972   4.798   6.090   7.549 -0.0536  0.3677  0.3141
   75CHL1   H14 7973   4.792   5.979   7.552  4.3577 -0.0985 -0.9644
   75CHL1   C15 7974   4.709   6.148   7.659 -0.2388 -0.1739 -0.0509
   75CHL1  H15A 7975   4.702   6.259   7.646 -0.5746  0.2668  3.1355
   75CHL1  H15B 7976   4.609   6.100   7.662 -1.2122  1.7336 -0.0692
   75CHL1   C16 7977   4.798   6.136   7.783 -0.1429 -0.8435  0.3803
   75CHL1  H16A 7978   4.812   6.233   7.835  0.5950 -1.4673  1.3852
   75CHL1  H16B 7979   4.763   6.060   7.857 -1.3878 -0.7876 -0.1127
   75CHL1   C17 7980   4.939   6.090   7.736  0.3627  0.7176  0.0146
   75CHL1   H17 7981   4.919   5.981   7.744  1.1966  0.5213 -0.4395
   75CHL1   C13 7982   4.943   6.124   7.585 -0.2760  0.3363  0.1665
   75CHL1   C18 7983   4.986   6.268   7.567  0.6900  0.9378 -0.0716
   75CHL1  H18A 7984   4.932   6.348   7.622  1.6184  2.5000 -1.3188
   75CHL1  H18B 7985   5.095   6.277   7.586  0.5904  0.2433  0.8472
   75CHL1  H18C 7986   4.969   6.305   7.463 -0.7186 -1.6995 -0.8722
   75CHL1   C12 7987   5.030   6.024   7.498 -0.0670 -0.1932 -0.5552
   75CHL1  H12A 7988   5.139   6.032   7.517  0.0400 -1.7947 -0.4076
   75CHL1  H12B 7989   4.988   5.927   7.531 -1.7327  0.8579  0.5680
   75CHL1   C11 7990   5.009   6.051   7.352 -0.3927  0.3671  1.0903
   75CHL1  H11A 7991   5.055   6.149   7.327 -0.6355  0.0934 -0.5541
   75CHL1  H11B 7992   5.060   5.973   7.292 -0.5361  0.9569  0.1962
   75CHL1    C9 7993   4.859   6.049   7.311 -0.6443  0.3001 -0.4490
   75CHL1    H9 7994   4.839   5.940   7.318  3.1138 -0.6179 -1.7407
   75CHL1   C10 7995   4.834   6.074   7.158 -0.1051 -0.4250  0.3671
   75CHL1   C19 7996   4.903   6.207   7.120 -0.2888 -0.2919 -0.1588
   75CHL1  H19A 7997   4.893   6.288   7.195  2.0158 -0.6724  0.6406
   75CHL1  H19B 7998   5.012   6.189   7.110 -0.0588 -0.0395  1.5141
   75CHL1  H19C 7999   4.874   6.246   7.020  0.0339 -4.4300 -2.0861
   75CHL1    C1 8000   4.881   5.954   7.073 -0.3318 -0.0261 -0.2140
   75CHL1   H1A 8001   4.990   5.938   7.088  0.0182 -0.0407 -2.4307
   75CHL1   H1B 8002   4.834   5.860   7.111 -0.3049  0.0098 -0.0925
   75CHL1    C2 8003   4.853   5.952   6.924  0.2131 -0.0469  0.0489
   75CHL1   H2A 8004   4.891   5.869   6.862  0.3253 -0.9586  1.2907
   75CHL1   H2B 8005   4.898   6.050   6.895 -0.2703  0.5048  1.0832
   75CHL1   C20 8006   5.057   6.123   7.823 -0.4925  0.5374  0.4767
   75CHL1   H20 8007   5.065   6.233   7.814 -1.9745  0.7770  1.6535
   75CHL1   C21 8008   5.191   6.060   7.775 -0.0757  0.3202 -0.0556
   75CHL1  H21A 8009   5.176   5.956   7.740 -1.6065  0.5711 -0.2393
   75CHL1  H21B 8010   5.255   6.055   7.865 -0.2476  0.0121  0.0516
   75CHL1  H21C 8011   5.236   6.127   7.698 -1.3343 -0.5098 -1.5726
   75CHL1   C22 8012   5.036   6.090   7.975  0.7244 -0.5711  0.3041
   75CHL1  H22A 8013   4.928   6.107   7.996  0.6749 -0.8307  0.2645
   75CHL1  H22B 8014   5.054   5.981   7.986  1.8965 -0.3461  0.7102
   75CHL1   C23 8015   5.113   6.181   8.071  0.4823 -0.4497 -0.0969
   75CHL1  H23A 8016   5.220   6.165   8.047  0.6399  0.3598  0.0344
   75CHL1  H23B 8017   5.097   6.289   8.049  0.8333 -0.3016  0.3555
   75CHL1   C24 8018   5.084   6.165   8.221  0.1171 -0.1399  0.3013
   75CHL1  H24A 8019   5.097   6.056   8.240 -1.8749 -0.1242  2.0352
   75CHL1  H24B 8020   5.156   6.215   8.289 -0.0862 -1.6409  1.6949
   75CHL1   C25 8021   4.950   6.214   8.267  0.3482 -0.3549  0.3132
   75CHL1   H25 8022   4.873   6.155   8.213  0.3876 -0.4018  0.3087
   75CHL1   C26 8023   4.926   6.171   8.407 -0.0213 -0.4855 -0.0177
   75CHL1  H26A 8024   4.819   6.183   8.435 -0.9597 -0.2713 -3.2902
   75CHL1  H26B 8025   4.957   6.064   8.410  0.4853 -0.3915 -1.3845
   75CHL1  H26C 8026   4.986   6.235   8.475  0.7473  0.6789 -1.7176
   75CHL1   C27 8027   4.911   6.358   8.232  0.1549 -0.1129  1.3650
   75CHL1  H27A 8028   4.986   6.435   8.261 -0.0433  1.2105 -1.3069
   75CHL1  H27B 8029   4.889   6.367   8.123 -1.7756 -2.1237  1.5138
   75CHL1  H27C 8030   4.815   6.394   8.273  1.2680  1.3636  2.7777
   76CHL1    C3 8031   1.836   2.237   7.409  0.6065  0.0214 -0.1678
   76CHL1    H3 8032   1.946   2.223   7.416  0.2837 -2.1419  1.5420
   76CHL1    O3 8033   1.808   2.209   7.272 -0.2213  0.2884 -0.1128
   76CHL1   H3' 8034   1.863   2.261   7.212 -2.0076  1.9444 -0.4360
   76CHL1    C4 8035   1.753   2.131   7.494 -0.5152  0.7866  0.1199
   76CHL1   H4A 8036   1.647   2.136   7.461  0.3993 -2.3979 -4.0722
   76CHL1   H4B 8037   1.795   2.031   7.471  0.0492  0.1181  3.4589
   76CHL1    C5 8038   1.778   2.145   7.639  0.3214 -0.3211 -0.6836
   76CHL1    C6 8039   1.827   2.052   7.715 -0.4784  0.8840 -0.0383
   76CHL1    H6 8040   1.848   1.949   7.683  1.1535  1.2172 -0.1491
   76CHL1    C7 8041   1.841   2.067   7.868  0.1440 -0.5486  0.5772
   76CHL1   H7A 8042   1.780   1.983   7.908 -3.6965 -0.6363 -4.4583
   76CHL1   H7B 8043   1.947   2.053   7.899  0.3917  0.8528  0.4384
   76CHL1    C8 8044   1.779   2.202   7.919 -0.4194  0.4112 -0.8776
   76CHL1    H8 8045   1.669   2.185   7.924 -0.2384 -0.8633 -1.0045
   76CHL1   C14 8046   1.822   2.221   8.064 -0.1722  0.1893 -0.3767
   76CHL1   H14 8047   1.930   2.245   8.052 -0.3845  1.6878  0.4205
   76CHL1   C15 8048   1.803   2.102   8.160  0.9114 -0.2913  0.1814
   76CHL1  H15A 8049   1.700   2.061   8.159  0.1155  1.6122  0.6401
   76CHL1  H15B 8050   1.875   2.021   8.137  0.8144 -0.4459  0.4135
   76CHL1   C16 8051   1.823   2.170   8.292  0.1740  0.8182 -0.3957
   76CHL1  H16A 8052   1.730   2.154   8.351 -0.3970  0.9657 -1.2238
   76CHL1  H16B 8053   1.908   2.129   8.349 -0.7682 -1.5676 -0.6092
   76CHL1   C17 8054   1.830   2.327   8.269 -0.6548  0.1486 -0.5918
   76CHL1   H17 8055   1.939   2.342   8.254 -0.0445  1.4717  3.6413
   76CHL1   C13 8056   1.764   2.346   8.130  0.0644 -0.1766  0.4700
   76CHL1   C18 8057   1.615   2.339   8.145  0.2036 -0.3929  0.1561
   76CHL1  H18A 8058   1.577   2.244   8.186  0.6242 -2.5463 -3.9354
   76CHL1  H18B 8059   1.579   2.423   8.209 -0.1806  0.8550 -1.6045
   76CHL1  H18C 8060   1.559   2.349   8.049 -0.8695 -0.9580  0.7134
   76CHL1   C12 8061   1.824   2.464   8.042 -0.4398  0.2195 -0.2524
   76CHL1  H12A 8062   1.786   2.562   8.077  0.5550 -0.2863  2.4470
   76CHL1  H12B 8063   1.933   2.473   8.058 -1.0454  2.6761  3.5927
   76CHL1   C11 8064   1.780   2.449   7.892  0.0904 -0.6625  0.6462
   76CHL1  H11A 8065   1.671   2.468   7.889  0.5566  2.8648  0.9151
   76CHL1  H11B 8066   1.832   2.532   7.839 -1.1829 -1.2000 -1.5678
   76CHL1    C9 8067   1.818   2.315   7.828  0.0166 -0.2614  0.3228
   76CHL1    H9 8068   1.929   2.313   7.819  0.0873 -0.8132  1.2074
   76CHL1   C10 8069   1.755   2.293   7.683  0.6404 -0.2056 -0.4045
   76CHL1   C19 8070   1.600   2.305   7.687 -0.6386 -0.7603  0.3440
   76CHL1  H19A 8071   1.542   2.296   7.593 -0.8513  1.2648  0.2345
   76CHL1  H19B 8072   1.559   2.236   7.764 -0.1226 -0.4059  0.9473
   76CHL1  H19C 8073   1.560   2.403   7.723 -1.6871 -1.0661  0.0424
   76CHL1    C1 8074   1.813   2.399   7.590 -1.2481  0.4571  0.9534
   76CHL1   H1A 8075   1.794   2.502   7.627 -0.3683  0.0964  2.4857
   76CHL1   H1B 8076   1.924   2.399   7.591 -1.2204 -0.2220  0.0241
   76CHL1    C2 8077   1.787   2.383   7.441  0.6485  0.2333  0.0619
   76CHL1   H2A 8078   1.842   2.452   7.375 -1.5825  0.9227 -1.1700
   76CHL1   H2B 8079   1.680   2.399   7.415  1.0073 -0.2793 -1.8754
   76CHL1   C20 8080   1.802   2.419   8.389 -0.4202  0.1457  0.2174
   76CHL1   H20 8081   1.691   2.419   8.400 -0.5851 -4.1833  0.2451
   76CHL1   C21 8082   1.867   2.556   8.360  0.8350  0.2797  0.0257
   76CHL1  H21A 8083   1.818   2.608   8.276  0.1464 -1.0961 -0.4588
   76CHL1  H21B 8084   1.977   2.549   8.350  0.8431  1.2370 -0.6801
   76CHL1  H21C 8085   1.850   2.622   8.448  3.5320  0.9455  0.1394
   76CHL1   C22 8086   1.855   2.361   8.519 -0.2762 -0.0311 -0.3928
   76CHL1  H22A 8087   1.836   2.252   8.531  0.8804 -0.0167  2.7180
   76CHL1  H22B 8088   1.966   2.367   8.518 -0.1251 -2.2607 -1.9926
   76CHL1   C23 8089   1.791   2.433   8.641  0.6498 -0.4893  0.7647
   76CHL1  H23A 8090   1.830   2.537   8.637  1.2846 -0.7510 -1.5970
   76CHL1  H23B 8091   1.683   2.424   8.617  0.8753  0.2661 -0.6532
   76CHL1   C24 8092   1.823   2.366   8.775  1.0116  0.1026  0.1967
   76CHL1  H24A 8093   1.780   2.264   8.764 -0.8854  0.9133 -0.5313
   76CHL1  H24B 8094   1.931   2.354   8.796  1.1239 -3.4362 -1.5743
   76CHL1   C25 8095   1.748   2.424   8.898  1.0061  0.3297  0.0997
   76CHL1   H25 8096   1.642   2.428   8.863  1.0052  1.0604  0.1638
   76CHL1   C26 8097   1.766   2.336   9.021  0.8083  0.1426 -0.1792
   76CHL1  H26A 8098   1.769   2.394   9.116  0.7964 -1.2083  0.6675
   76CHL1  H26B 8099   1.675   2.271   9.023  0.1444  0.9911 -1.1796
   76CHL1  H26C 8100   1.860   2.278   9.015  0.5495 -0.2608 -0.4129
   76CHL1   C27 8101   1.788   2.562   8.929 -0.2450 -0.1414  0.3279
   76CHL1  H27A 8102   1.771   2.629   8.842 -0.5516  1.7932  1.8312
   76CHL1  H27B 8103   1.733   2.604   9.016 -0.7135  0.3528 -0.2038
   76CHL1  H27C 8104   1.893   2.572   8.963 -0.3740  0.7931  0.4518
   77CHL1    C3 8105   2.959   1.467   6.769  0.2789 -0.2239 -0.2459
   77CHL1    H3 8106   3.066   1.440   6.782  0.7292  1.2301 -0.7622
   77CHL1    O3 8107   2.924   1.461   6.630  0.2497  0.4121  0.6862
   77CHL1   H3' 8108   2.839   1.504   6.624 -0.5219 -1.2275 -1.3341
   77CHL1    C4 8109   2.874   1.377   6.855  0.8930  0.7505 -0.5110
   77CHL1   H4A 8110   2.766   1.380   6.826 -0.2579 -1.3792  2.9169
   77CHL1   H4B 8111   2.891   1.271   6.824  0.7597  0.7652 -0.6393
   77CHL1    C5 8112   2.881   1.399   7.004 -0.1494 -0.2212 -0.0228
   77CHL1    C6 8113   2.922   1.296   7.082  0.2224  0.2563  0.1674
   77CHL1    H6 8114   2.944   1.198   7.038  3.3260  0.5107  0.9231
   77CHL1    C7 8115   2.915   1.306   7.236 -0.4008  0.4141  0.8752
   77CHL1   H7A 8116   2.884   1.212   7.286  0.3079 -0.4347 -0.2493
   77CHL1   H7B 8117   3.021   1.323   7.265 -0.3028 -0.3622  1.0005
   77CHL1    C8 8118   2.848   1.436   7.286  0.3809 -0.0056 -0.5388
   77CHL1    H8 8119   2.741   1.408   7.292  0.4984 -0.1426  2.7385
   77CHL1   C14 8120   2.898   1.461   7.430  0.4350  0.4501 -0.3173
   77CHL1   H14 8121   3.007   1.482   7.429  0.0301  2.7678 -0.6357
   77CHL1   C15 8122   2.890   1.338   7.526 -0.4474  0.1440  1.0288
   77CHL1  H15A 8123   2.791   1.291   7.510 -0.5015  0.1969  1.2116
   77CHL1  H15B 8124   2.977   1.270   7.508  0.6580  1.8585 -0.4875
   77CHL1   C16 8125   2.891   1.397   7.663  0.9509  0.0764 -0.0740
   77CHL1  H16A 8126   2.791   1.379   7.707  1.4934  1.4392  1.9199
   77CHL1  H16B 8127   2.973   1.371   7.734  0.2544  2.3403  1.7108
   77CHL1   C17 8128   2.891   1.552   7.648  0.1939  0.9249 -0.0195
   77CHL1   H17 8129   2.995   1.589   7.639  0.5751 -0.0620  0.2570
   77CHL1   C13 8130   2.844   1.575   7.498 -0.1030 -0.4894  0.0350
   77CHL1   C18 8131   2.691   1.563   7.483  0.4189 -0.3448 -0.3347
   77CHL1  H18A 8132   2.637   1.640   7.542 -0.7322 -0.9291 -0.5998
   77CHL1  H18B 8133   2.653   1.581   7.381  0.3074  0.8121 -0.0990
   77CHL1  H18C 8134   2.648   1.467   7.518 -0.7334  0.4916  0.6302
   77CHL1   C12 8135   2.902   1.701   7.423  0.1642  0.2555 -0.1331
   77CHL1  H12A 8136   2.849   1.790   7.461  0.2204  0.2643 -0.0765
   77CHL1  H12B 8137   3.011   1.712   7.442 -0.1386  1.3050  1.0480
   77CHL1   C11 8138   2.865   1.694   7.270  0.1867  0.6259 -0.8227
   77CHL1  H11A 8139   2.757   1.720   7.268  0.0776  0.1597 -1.3049
   77CHL1  H11B 8140   2.901   1.784   7.215 -0.1095  0.6811 -0.9291
   77CHL1    C9 8141   2.892   1.559   7.200  0.4498  0.0515 -0.7787
   77CHL1    H9 8142   3.002   1.545   7.204  0.1862 -2.9252 -1.6543
   77CHL1   C10 8143   2.856   1.542   7.050  0.3385 -0.2065 -0.5793
   77CHL1   C19 8144   2.711   1.595   7.029 -0.5214  0.1294  0.2053
   77CHL1  H19A 8145   2.648   1.529   7.092 -0.7057  0.7599  0.6969
   77CHL1  H19B 8146   2.705   1.702   7.058 -0.0302  0.7018 -1.6550
   77CHL1  H19C 8147   2.682   1.579   6.923  0.8530 -1.1982 -0.0116
   77CHL1    C1 8148   2.955   1.632   6.975 -0.5160  0.2859 -0.4432
   77CHL1   H1A 8149   2.942   1.738   7.004 -1.3801  0.0975 -0.1068
   77CHL1   H1B 8150   3.056   1.599   7.007 -0.2750  1.2633 -0.1668
   77CHL1    C2 8151   2.948   1.616   6.822  0.1155  0.2237  0.9928
   77CHL1   H2A 8152   3.031   1.674   6.775 -0.7694  1.4219  0.8742
   77CHL1   H2B 8153   2.855   1.669   6.793 -0.1790 -1.8888 -2.6766
   77CHL1   C20 8154   2.819   1.628   7.756  0.3594  0.7574 -0.3246
   77CHL1   H20 8155   2.711   1.604   7.754  0.3968  0.5830 -0.3145
   77CHL1   C21 8156   2.830   1.776   7.726 -0.0219 -0.4327  0.1232
   77CHL1  H21A 8157   2.790   1.833   7.813 -1.0312  3.0835 -2.4302
   77CHL1  H21B 8158   2.757   1.810   7.650 -1.1719  0.8781  1.7362
   77CHL1  H21C 8159   2.933   1.814   7.709  0.4198 -0.8611  1.6732
   77CHL1   C22 8160   2.867   1.609   7.899 -0.0939 -0.0674 -0.4558
   77CHL1  H22A 8161   2.978   1.610   7.897 -0.0906  1.4859 -0.6362
   77CHL1  H22B 8162   2.828   1.692   7.961 -1.0630 -0.1068 -0.9941
   77CHL1   C23 8163   2.805   1.482   7.969 -0.1283 -0.5300  0.3217
   77CHL1  H23A 8164   2.699   1.513   7.979 -0.3226 -1.4198  1.1341
   77CHL1  H23B 8165   2.818   1.385   7.917  0.5369 -2.3457  3.5663
   77CHL1   C24 8166   2.870   1.463   8.108 -0.2288  0.3360  0.5657
   77CHL1  H24A 8167   2.980   1.451   8.094 -0.1986 -0.5102  1.4519
   77CHL1  H24B 8168   2.862   1.556   8.168 -1.0252 -0.3701  1.5854
   77CHL1   C25 8169   2.811   1.336   8.169  0.9840 -0.5153  0.7369
   77CHL1   H25 8170   2.806   1.258   8.090  1.7810 -0.9204  1.0714
   77CHL1   C26 8171   2.896   1.271   8.276  0.4079 -0.4693 -0.0967
   77CHL1  H26A 8172   2.989   1.230   8.231 -0.4771 -1.4859 -1.0798
   77CHL1  H26B 8173   2.926   1.349   8.350  2.1891 -1.9320  0.8171
   77CHL1  H26C 8174   2.843   1.189   8.330 -1.0938 -0.4193 -1.4216
   77CHL1   C27 8175   2.667   1.358   8.218  0.5457  0.2746  0.1773
   77CHL1  H27A 8176   2.597   1.379   8.135  1.0736 -3.7725 -1.5249
   77CHL1  H27B 8177   2.628   1.264   8.263  1.1186  0.0550  0.2264
   77CHL1  H27C 8178   2.655   1.439   8.294  1.0480  0.0809  0.4678
   78CHL1    C3 8179   2.864   0.827   6.792  0.0698 -0.0451  0.2765
   78CHL1    H3 8180   2.896   0.933   6.794 -1.0247  0.3073  2.5067
   78CHL1    O3 8181   2.830   0.789   6.657 -0.1970 -0.2850 -1.2098
   78CHL1   H3' 8182   2.788   0.703   6.664  0.2557 -0.3947  0.7058
   78CHL1    C4 8183   2.966   0.727   6.849  0.0383 -0.3272  0.0494
   78CHL1   H4A 8184   2.913   0.630   6.837  1.3813 -1.0229 -0.3763
   78CHL1   H4B 8185   3.052   0.713   6.781 -0.5566  1.9509 -1.2611
   78CHL1    C5 8186   3.005   0.761   6.990 -0.0385  0.3226  0.2007
   78CHL1    C6 8187   3.131   0.777   7.023  0.6422  0.1935  0.0786
   78CHL1    H6 8188   3.217   0.771   6.955  1.0934 -0.4875  0.6958
   78CHL1    C7 8189   3.176   0.790   7.163  0.2200  0.4184 -0.5119
   78CHL1   H7A 8190   3.254   0.714   7.184 -0.5971 -0.6246 -1.1655
   78CHL1   H7B 8191   3.203   0.896   7.181  1.6837 -0.2142  1.3832
   78CHL1    C8 8192   3.067   0.775   7.267 -0.2270  0.3085 -0.2202
   78CHL1    H8 8193   3.055   0.665   7.275 -0.4825  0.4512  2.3996
   78CHL1   C14 8194   3.110   0.832   7.401  0.2306  0.0458 -0.2173
   78CHL1   H14 8195   3.122   0.941   7.383  0.2340  0.1443  0.3356
   78CHL1   C15 8196   3.240   0.784   7.454  0.4885  0.7573 -0.0192
   78CHL1  H15A 8197   3.243   0.674   7.443  2.9051  0.7499  0.2539
   78CHL1  H15B 8198   3.330   0.821   7.401  1.4205  0.2880  1.1904
   78CHL1   C16 8199   3.243   0.831   7.594 -0.2539  0.0323  0.0497
   78CHL1  H16A 8200   3.278   0.748   7.658  2.7718  1.7177  0.8155
   78CHL1  H16B 8201   3.318   0.913   7.602 -0.2599  0.1411 -0.9039
   78CHL1   C17 8202   3.101   0.879   7.620  0.0365  0.5003  0.7234
   78CHL1   H17 8203   3.100   0.986   7.592 -0.9106 -0.3263 -2.9195
   78CHL1   C13 8204   3.007   0.812   7.511  0.0112 -0.1506 -0.1195
   78CHL1   C18 8205   2.989   0.669   7.560  0.5697  0.1385 -0.0228
   78CHL1  H18A 8206   3.057   0.625   7.636 -1.1540 -1.6431  0.5865
   78CHL1  H18B 8207   2.883   0.668   7.594 -0.1266  0.9004 -1.9952
   78CHL1  H18C 8208   2.984   0.601   7.472  0.1397  0.6674 -0.4161
   78CHL1   C12 8209   2.872   0.876   7.476  0.1246  0.2704 -0.2849
   78CHL1  H12A 8210   2.789   0.865   7.549 -0.6480 -1.9643 -1.4108
   78CHL1  H12B 8211   2.896   0.984   7.465 -0.5418  0.3639 -0.8847
   78CHL1   C11 8212   2.825   0.826   7.344 -0.5457  0.2767 -0.0582
   78CHL1  H11A 8213   2.790   0.721   7.356 -3.0516  1.0120 -0.3498
   78CHL1  H11B 8214   2.734   0.878   7.307 -0.1155  1.4143  0.4206
   78CHL1    C9 8215   2.927   0.833   7.227 -0.0753  0.8654 -0.3188
   78CHL1    H9 8216   2.943   0.942   7.211  0.1687  1.0477  1.0549
   78CHL1   C10 8217   2.886   0.772   7.088  0.2445 -0.4296 -0.0710
   78CHL1   C19 8218   2.846   0.623   7.106 -0.3105 -0.3105 -0.8585
   78CHL1  H19A 8219   2.763   0.613   7.180 -1.1122  3.1535 -1.1257
   78CHL1  H19B 8220   2.806   0.576   7.014  0.0602  1.3434 -1.9051
   78CHL1  H19C 8221   2.929   0.560   7.143  0.4250  1.5053  0.7727
   78CHL1    C1 8222   2.768   0.852   7.032  0.1288  0.3570  0.1658
   78CHL1   H1A 8223   2.675   0.842   7.092  0.2153  0.3964  0.3074
   78CHL1   H1B 8224   2.784   0.962   7.024 -2.2071  0.7411  0.0136
   78CHL1    C2 8225   2.735   0.823   6.877 -1.0193 -0.3072  0.3051
   78CHL1   H2A 8226   2.659   0.893   6.836 -2.2096 -1.5736  0.2980
   78CHL1   H2B 8227   2.688   0.723   6.867 -0.8605 -0.3140 -0.4080
   78CHL1   C20 8228   3.063   0.863   7.768  0.3920  0.3627  0.3674
   78CHL1   H20 8229   3.029   0.761   7.797 -2.1759  0.8517 -0.6314
   78CHL1   C21 8230   2.951   0.959   7.796 -0.5911  0.0584  0.2049
   78CHL1  H21A 8231   2.976   1.067   7.788 -0.8725  0.1555  0.6178
   78CHL1  H21B 8232   2.907   0.940   7.896 -0.4875  1.1155  0.4627
   78CHL1  H21C 8233   2.862   0.951   7.730 -0.0480 -1.0530 -0.4413
   78CHL1   C22 8234   3.183   0.898   7.866 -0.5887  0.5332 -0.1117
   78CHL1  H22A 8235   3.275   0.837   7.857 -0.8753  0.2298 -1.0019
   78CHL1  H22B 8236   3.213   1.002   7.838  0.1884  0.5710  0.8075
   78CHL1   C23 8237   3.149   0.891   8.013 -0.3068  0.3526  0.2121
   78CHL1  H23A 8238   3.066   0.953   8.052  0.5098  0.4911  1.8306
   78CHL1  H23B 8239   3.116   0.787   8.033 -0.9741  0.7553  1.2525
   78CHL1   C24 8240   3.274   0.932   8.092  0.0510 -0.1449 -0.4124
   78CHL1  H24A 8241   3.364   0.884   8.047 -0.1021  0.6458 -1.6250
   78CHL1  H24B 8242   3.288   1.042   8.086  1.9228 -0.1978  1.6501
   78CHL1   C25 8243   3.271   0.901   8.240  0.1147 -0.0493 -0.4539
   78CHL1   H25 8244   3.240   0.797   8.260  0.1948 -0.1087 -0.6351
   78CHL1   C26 8245   3.416   0.923   8.302  0.2595  0.2649  0.7966
   78CHL1  H26A 8246   3.408   0.918   8.412  1.1703 -1.1303  0.8247
   78CHL1  H26B 8247   3.486   0.850   8.257 -0.3212 -0.4263  0.9990
   78CHL1  H26C 8248   3.451   1.025   8.274 -2.9904  1.3492  0.2059
   78CHL1   C27 8249   3.165   0.993   8.304  0.0987 -0.0931 -0.4441
   78CHL1  H27A 8250   3.190   1.101   8.290 -1.6292  0.1472 -2.0596
   78CHL1  H27B 8251   3.072   0.969   8.247  0.0472  2.2399 -1.4735
   78CHL1  H27C 8252   3.140   0.972   8.410  0.6571  0.4232 -0.2005
   79CHL1    C3 8253   2.112   2.782   7.176  0.1590 -0.9243  0.0870
   79CHL1    H3 8254   2.002   2.785   7.164  0.0162  1.0449  1.4363
   79CHL1    O3 8255   2.183   2.756   7.054  0.4999 -0.5167 -0.1094
   79CHL1   H3' 8256   2.273   2.734   7.080  1.6111 -1.1530 -3.8526
   79CHL1    C4 8257   2.154   2.917   7.227 -0.2958  0.1022 -0.5068
   79CHL1   H4A 8258   2.264   2.927   7.210  0.3364 -1.7493  1.8751
   79CHL1   H4B 8259   2.118   2.991   7.152  0.4834  1.4969  0.4518
   79CHL1    C5 8260   2.118   2.945   7.373  0.4638  0.3711 -0.0719
   79CHL1    C6 8261   2.038   3.051   7.395 -0.4587 -0.0863 -0.0334
   79CHL1    H6 8262   2.014   3.112   7.306 -0.7314 -1.4464 -0.9326
   79CHL1    C7 8263   1.985   3.093   7.528  0.3106 -0.2092  0.3195
   79CHL1   H7A 8264   2.034   3.192   7.537 -1.1158  0.6159 -0.6023
   79CHL1   H7B 8265   1.874   3.088   7.532  0.3071  0.4737  2.7574
   79CHL1    C8 8266   2.047   3.006   7.641  0.7179 -0.0080  0.1726
   79CHL1    H8 8267   2.152   3.036   7.665  1.1614 -1.5361  0.2297
   79CHL1   C14 8268   1.949   3.015   7.758  0.2580  0.3512 -0.7371
   79CHL1   H14 8269   1.864   2.951   7.724  1.6449 -0.7030 -2.3758
   79CHL1   C15 8270   1.892   3.143   7.804 -0.0164 -0.4451 -0.4206
   79CHL1  H15A 8271   1.979   3.211   7.821 -0.1608 -0.5183  0.6962
   79CHL1  H15B 8272   1.822   3.190   7.732 -1.5173 -1.8191  0.0959
   79CHL1   C16 8273   1.829   3.101   7.941  0.2157 -0.2082  0.1867
   79CHL1  H16A 8274   1.870   3.167   8.020  0.0230 -2.3310  2.1539
   79CHL1  H16B 8275   1.719   3.116   7.936  0.2972  1.1610  1.7017
   79CHL1   C17 8276   1.882   2.961   7.974  0.7636  0.3124 -0.2204
   79CHL1   H17 8277   1.807   2.888   7.938  1.7502 -1.3323  0.9380
   79CHL1   C13 8278   1.992   2.933   7.880 -0.4015  1.0460  1.1281
   79CHL1   C18 8279   2.126   2.982   7.928  0.2140  0.0976  0.1644
   79CHL1  H18A 8280   2.212   2.957   7.862 -0.6491 -0.2135 -0.8680
   79CHL1  H18B 8281   2.139   3.092   7.936  0.3231  0.0587  0.5802
   79CHL1  H18C 8282   2.149   2.929   8.023  0.3048 -0.8525 -0.3779
   79CHL1   C12 8283   2.003   2.790   7.828 -0.2490  0.4625 -0.4254
   79CHL1  H12A 8284   2.025   2.713   7.906  0.2746  0.8858 -0.1523
   79CHL1  H12B 8285   1.900   2.757   7.802  0.3702 -0.9456 -1.2470
   79CHL1   C11 8286   2.093   2.760   7.707  0.2877 -0.6168 -0.0013
   79CHL1  H11A 8287   2.193   2.801   7.732  1.0621 -2.2297 -0.3522
   79CHL1  H11B 8288   2.096   2.651   7.686 -0.6744 -0.5962 -0.3088
   79CHL1    C9 8289   2.048   2.857   7.595 -0.0750  0.1527  0.2557
   79CHL1    H9 8290   1.945   2.834   7.561 -0.0834  1.3383 -0.5684
   79CHL1   C10 8291   2.141   2.826   7.467 -0.1482 -0.6841 -0.3163
   79CHL1   C19 8292   2.294   2.817   7.502  0.0644 -0.7163  0.1381
   79CHL1  H19A 8293   2.363   2.845   7.419  0.8443 -0.6483  0.7985
   79CHL1  H19B 8294   2.319   2.894   7.578  0.6209  0.7836 -1.4957
   79CHL1  H19C 8295   2.322   2.717   7.541 -2.0010 -1.3917  0.0011
   79CHL1    C1 8296   2.099   2.690   7.410  0.8496 -0.5112  0.4035
   79CHL1   H1A 8297   2.126   2.608   7.480 -1.0593  1.4903  3.7641
   79CHL1   H1B 8298   1.990   2.706   7.393  0.7545 -0.1331  1.3094
   79CHL1    C2 8299   2.147   2.664   7.270 -0.1965  0.5020 -0.3081
   79CHL1   H2A 8300   2.103   2.574   7.223  0.7106 -0.2551  0.2487
   79CHL1   H2B 8301   2.258   2.657   7.276 -0.1949  0.9694  0.2598
   79CHL1   C20 8302   1.913   2.925   8.125 -0.6199 -0.1681 -0.3477
   79CHL1   H20 8303   1.996   2.851   8.125 -1.0985 -0.7196 -1.5307
   79CHL1   C21 8304   1.787   2.861   8.177  0.6771 -0.3678 -0.1350
   79CHL1  H21A 8305   1.705   2.934   8.160  1.5930  1.0237  1.1773
   79CHL1  H21B 8306   1.791   2.836   8.285  1.9958  1.1130  0.1731
   79CHL1  H21C 8307   1.744   2.769   8.129 -1.8226  0.0306  1.1479
   79CHL1   C22 8308   1.969   3.036   8.217  0.8604  0.7416  0.2704
   79CHL1  H22A 8309   2.061   3.083   8.176  0.1452  1.2761 -0.7478
   79CHL1  H22B 8310   1.885   3.107   8.236  0.8010  0.7855 -0.1529
   79CHL1   C23 8311   2.003   2.969   8.350  0.8028 -0.2838 -0.0954
   79CHL1  H23A 8312   1.912   2.940   8.406  0.3901  1.2622  0.0561
   79CHL1  H23B 8313   2.066   2.878   8.336 -0.3224 -1.1727  0.5037
   79CHL1   C24 8314   2.063   3.067   8.457 -0.2931 -0.0819 -0.4300
   79CHL1  H24A 8315   2.141   3.130   8.409  1.8066 -2.1594  0.0574
   79CHL1  H24B 8316   1.984   3.131   8.503 -2.0093 -0.9867 -2.0252
   79CHL1   C25 8317   2.134   2.983   8.571  0.7632  0.4564 -0.2838
   79CHL1   H25 8318   2.220   2.934   8.520 -0.5785 -1.0059 -1.2539
   79CHL1   C26 8319   2.194   3.078   8.682 -0.4672  0.6658 -0.6542
   79CHL1  H26A 8320   2.112   3.127   8.739 -0.8859  0.4422 -1.0575
   79CHL1  H26B 8321   2.255   3.017   8.752 -0.3697 -1.2353 -2.3101
   79CHL1  H26C 8322   2.266   3.146   8.633  0.1220  0.5175 -0.0161
   79CHL1   C27 8323   2.049   2.867   8.628 -0.8318 -0.0634 -0.3608
   79CHL1  H27A 8324   2.101   2.807   8.706 -1.2010  0.4745  0.3084
   79CHL1  H27B 8325   1.955   2.908   8.670 -0.5526  0.2883 -0.0778
   79CHL1  H27C 8326   2.012   2.792   8.554 -0.2754 -0.7332  0.0271
   80CHL1    C3 8327   3.785   0.964   6.917 -0.3355 -0.2494 -0.3666
   80CHL1    H3 8328   3.885   1.013   6.925 -1.5384  2.4716 -0.8450
   80CHL1    O3 8329   3.762   0.940   6.781  0.0521  0.3399 -0.4729
   80CHL1   H3' 8330   3.742   0.846   6.781  1.4844  0.0073 -0.8732
   80CHL1    C4 8331   3.783   0.827   6.981 -0.4108 -0.6407 -0.1230
   80CHL1   H4A 8332   3.685   0.784   6.951 -0.6899 -0.1459  0.0631
   80CHL1   H4B 8333   3.867   0.773   6.932 -0.4883 -0.8528 -0.0218
   80CHL1    C5 8334   3.802   0.845   7.131  0.1537  0.1901 -0.2538
   80CHL1    C6 8335   3.904   0.786   7.195  0.1824 -1.1419  0.0605
   80CHL1    H6 8336   3.982   0.743   7.132  0.5438  1.2079 -1.2148
   80CHL1    C7 8337   3.934   0.808   7.343 -0.4063  0.4780 -0.7664
   80CHL1   H7A 8338   3.978   0.716   7.386  0.6902  1.2341 -0.1924
   80CHL1   H7B 8339   4.004   0.894   7.353 -1.5979  1.5064 -0.9163
   80CHL1    C8 8340   3.805   0.853   7.424 -0.1134  0.4009 -0.0300
   80CHL1    H8 8341   3.738   0.764   7.422 -0.0758  0.1841  3.2053
   80CHL1   C14 8342   3.843   0.886   7.564 -0.8532 -0.6329  0.9646
   80CHL1   H14 8343   3.909   0.976   7.556  0.7548 -1.8337  0.2411
   80CHL1   C15 8344   3.913   0.783   7.652 -0.1461  0.3011 -0.0772
   80CHL1  H15A 8345   3.865   0.683   7.645  1.3538 -0.3292 -2.2505
   80CHL1  H15B 8346   4.015   0.758   7.618 -1.2842 -1.8379 -2.2464
   80CHL1   C16 8347   3.907   0.837   7.794 -0.5361  0.1636  0.2180
   80CHL1  H16A 8348   3.876   0.753   7.861  1.0251 -1.8998 -1.5215
   80CHL1  H16B 8349   4.014   0.858   7.815  0.2095 -2.3428 -0.7822
   80CHL1   C17 8350   3.813   0.959   7.792  0.5591  0.0709  0.1715
   80CHL1   H17 8351   3.880   1.046   7.774  3.7421 -2.0221  1.0494
   80CHL1   C13 8352   3.732   0.941   7.659 -0.3591  0.4200  0.9236
   80CHL1   C18 8353   3.631   0.824   7.676  1.0479  0.3133  0.4586
   80CHL1  H18A 8354   3.678   0.731   7.714  1.7272  0.5231  0.1589
   80CHL1  H18B 8355   3.551   0.865   7.741 -0.9514 -0.4677 -1.4166
   80CHL1  H18C 8356   3.580   0.797   7.581  0.5361 -0.4981  0.9541
   80CHL1   C12 8357   3.669   1.053   7.591 -0.1070 -0.4885 -0.5067
   80CHL1  H12A 8358   3.573   1.085   7.637  0.0321 -1.4075  0.4654
   80CHL1  H12B 8359   3.738   1.140   7.598  0.9495 -1.2479 -1.3591
   80CHL1   C11 8360   3.631   1.024   7.446 -1.1004 -0.0738  0.8429
   80CHL1  H11A 8361   3.554   0.944   7.435 -0.8162 -0.0945 -1.4923
   80CHL1  H11B 8362   3.597   1.122   7.406  0.6170 -0.7670 -2.6423
   80CHL1    C9 8363   3.741   0.968   7.352 -0.0164  0.8578  0.1986
   80CHL1    H9 8364   3.826   1.039   7.345  0.5573  0.2178  0.5901
   80CHL1   C10 8365   3.704   0.938   7.198  0.1296  0.0157 -0.4659
   80CHL1   C19 8366   3.564   0.864   7.193 -0.2766  0.4141  1.2433
   80CHL1  H19A 8367   3.528   0.852   7.088  0.5983 -1.5530  1.1178
   80CHL1  H19B 8368   3.566   0.767   7.247  2.2129  1.2303  2.7378
   80CHL1  H19C 8369   3.489   0.926   7.247 -1.7263  0.1521 -0.3593
   80CHL1    C1 8370   3.700   1.074   7.126 -0.0797  0.7553 -0.8526
   80CHL1   H1A 8371   3.613   1.136   7.158 -0.4134  1.2833 -2.6561
   80CHL1   H1B 8372   3.794   1.132   7.144  0.5570  0.3574 -2.6854
   80CHL1    C2 8373   3.676   1.058   6.977 -0.1044 -0.3141 -0.3976
   80CHL1   H2A 8374   3.678   1.158   6.928 -0.7732 -0.1140 -0.0323
   80CHL1   H2B 8375   3.576   1.017   6.952 -0.6014 -0.8320  2.1961
   80CHL1   C20 8376   3.743   0.986   7.926  0.5749 -0.3173  0.0960
   80CHL1   H20 8377   3.671   0.903   7.941 -2.1890  1.5823 -1.7122
   80CHL1   C21 8378   3.657   1.119   7.923 -0.2830  0.5263 -0.1777
   80CHL1  H21A 8379   3.724   1.205   7.903 -1.0727  1.9850  2.8518
   80CHL1  H21B 8380   3.603   1.142   8.017 -1.1513 -1.6019 -0.1040
   80CHL1  H21C 8381   3.576   1.114   7.846 -0.6556  1.0703  0.1691
   80CHL1   C22 8382   3.843   0.999   8.046 -0.0474  0.0595  0.6622
   80CHL1  H22A 8383   3.904   0.907   8.057 -1.3424 -0.8054  0.9017
   80CHL1  H22B 8384   3.909   1.087   8.034  0.0672 -0.1276 -0.1790
   80CHL1   C23 8385   3.774   1.008   8.180  0.1922 -0.5889 -0.3838
   80CHL1  H23A 8386   3.741   1.112   8.199  2.8655  1.0840 -3.7825
   80CHL1  H23B 8387   3.683   0.943   8.183 -0.4052  0.2465 -0.0736
   80CHL1   C24 8388   3.880   0.982   8.286 -0.9157  0.3917  0.2203
   80CHL1  H24A 8389   3.914   0.878   8.269 -2.6574 -0.1659 -0.1182
   80CHL1  H24B 8390   3.971   1.043   8.273 -1.5875  0.8792 -2.8845
   80CHL1   C25 8391   3.818   0.974   8.426 -0.0679 -0.2157 -0.6450
   80CHL1   H25 8392   3.743   0.892   8.439 -0.9390  0.8507  1.5221
   80CHL1   C26 8393   3.930   0.953   8.533  0.3291 -0.1208  0.1060
   80CHL1  H26A 8394   3.974   1.053   8.553  1.0816 -0.9621  3.0720
   80CHL1  H26B 8395   3.893   0.918   8.631  3.0264 -0.2788  1.1632
   80CHL1  H26C 8396   4.010   0.891   8.487  0.7431  0.7000 -0.3016
   80CHL1   C27 8397   3.724   1.088   8.473 -0.0473 -1.0080 -0.3597
   80CHL1  H27A 8398   3.783   1.181   8.491 -0.9330 -0.4461 -0.2768
   80CHL1  H27B 8399   3.644   1.117   8.401  0.3299  0.4111 -0.2513
   80CHL1  H27C 8400   3.681   1.065   8.573  1.9016  2.1554  1.3674
   81CHL1    C3 8401   2.487   6.548   6.843  0.3170  0.2933 -0.0126
   81CHL1    H3 8402   2.569   6.616   6.874 -1.6502  1.5117  2.9298
   81CHL1    O3 8403   2.495   6.528   6.703 -0.5785 -0.6235 -0.1216
   81CHL1   H3' 8404   2.412   6.485   6.683 -0.5017 -1.5724  1.4488
   81CHL1    C4 8405   2.507   6.418   6.921  0.0902  1.0346  0.0834
   81CHL1   H4A 8406   2.446   6.337   6.876  1.8131  1.3794 -3.2185
   81CHL1   H4B 8407   2.604   6.368   6.900 -1.0660 -1.4192  0.1391
   81CHL1    C5 8408   2.485   6.438   7.071  0.5774  0.3396  1.1129
   81CHL1    C6 8409   2.574   6.395   7.163  0.2431 -0.2425 -0.2280
   81CHL1    H6 8410   2.666   6.342   7.135 -0.1672 -0.9915 -0.2019
   81CHL1    C7 8411   2.561   6.412   7.311  0.2055 -0.1741 -0.2982
   81CHL1   H7A 8412   2.587   6.318   7.365 -0.8200  1.1497  2.7105
   81CHL1   H7B 8413   2.615   6.502   7.347 -2.5942  1.1290  0.9790
   81CHL1    C8 8414   2.418   6.436   7.349  0.1928 -0.2435 -0.1433
   81CHL1    H8 8415   2.358   6.345   7.328  1.8409 -1.9636  2.0504
   81CHL1   C14 8416   2.407   6.458   7.498  0.1680 -0.1525  0.1441
   81CHL1   H14 8417   2.470   6.549   7.510  0.5566 -0.5328  1.0497
   81CHL1   C15 8418   2.469   6.361   7.598 -0.2416  0.4920  0.0815
   81CHL1  H15A 8419   2.454   6.251   7.583 -0.3496  0.5136  0.0276
   81CHL1  H15B 8420   2.579   6.361   7.609 -0.2729  2.6386  0.7415
   81CHL1   C16 8421   2.414   6.401   7.737 -0.0036  0.0505  0.0869
   81CHL1  H16A 8422   2.377   6.311   7.790 -1.0746  0.8278  0.7093
   81CHL1  H16B 8423   2.497   6.449   7.793 -0.9078 -0.0949  1.6103
   81CHL1   C17 8424   2.304   6.510   7.707  0.5721 -0.3705  0.4273
   81CHL1   H17 8425   2.358   6.605   7.729  1.2405 -0.6467 -0.0017
   81CHL1   C13 8426   2.272   6.501   7.561  0.4977 -1.0199 -0.0905
   81CHL1   C18 8427   2.173   6.390   7.532  0.2020  0.0840 -0.2335
   81CHL1  H18A 8428   2.073   6.422   7.568  0.7740 -1.0336  2.5868
   81CHL1  H18B 8429   2.159   6.368   7.424  0.0515 -2.2841  0.2189
   81CHL1  H18C 8430   2.201   6.300   7.590 -0.9953 -0.3173 -0.2539
   81CHL1   C12 8431   2.235   6.632   7.491 -0.0375 -0.2791  0.6795
   81CHL1  H12A 8432   2.141   6.675   7.529 -0.5332 -1.1338  0.4478
   81CHL1  H12B 8433   2.319   6.704   7.503 -1.2528  1.1837  0.5857
   81CHL1   C11 8434   2.229   6.615   7.343  0.4924 -0.3668  0.1117
   81CHL1  H11A 8435   2.143   6.553   7.312 -0.5076  1.3865 -0.7666
   81CHL1  H11B 8436   2.219   6.718   7.301 -1.8417  0.2158  1.8985
   81CHL1    C9 8437   2.356   6.549   7.272  0.3729  0.6707  0.1298
   81CHL1    H9 8438   2.424   6.635   7.294 -1.6138  2.1579  0.7278
   81CHL1   C10 8439   2.353   6.512   7.118 -0.9349 -0.5983  0.1517
   81CHL1   C19 8440   2.237   6.419   7.097 -0.4914 -0.1715  1.0455
   81CHL1  H19A 8441   2.247   6.322   7.149 -0.8927 -2.3559 -2.5787
   81CHL1  H19B 8442   2.142   6.476   7.109  0.3069  1.7948 -1.1152
   81CHL1  H19C 8443   2.232   6.383   6.992 -0.7566 -0.3770  1.1271
   81CHL1    C1 8444   2.335   6.642   7.033 -0.0053 -0.0320 -0.2460
   81CHL1   H1A 8445   2.240   6.697   7.049  0.7495  0.9187  1.1922
   81CHL1   H1B 8446   2.410   6.719   7.061 -1.3429  1.7937 -1.5049
   81CHL1    C2 8447   2.353   6.615   6.880 -0.1249 -0.6070 -0.2474
   81CHL1   H2A 8448   2.364   6.718   6.839  0.9450  0.1056  1.7330
   81CHL1   H2B 8449   2.259   6.571   6.840 -0.5381  2.0918 -2.6416
   81CHL1   C20 8450   2.199   6.506   7.815  0.4405 -0.4834  0.3161
   81CHL1   H20 8451   2.136   6.414   7.812  0.0657 -0.2111 -1.8443
   81CHL1   C21 8452   2.107   6.628   7.802 -1.1892  0.0033 -0.5813
   81CHL1  H21A 8453   2.035   6.630   7.886  1.0576  1.1035  1.4152
   81CHL1  H21B 8454   2.046   6.623   7.709 -0.6116 -2.0079 -0.8988
   81CHL1  H21C 8455   2.170   6.719   7.792  1.1075 -1.5323 -0.8342
   81CHL1   C22 8456   2.273   6.502   7.953 -0.1678  0.5210  0.2846
   81CHL1  H22A 8457   2.313   6.399   7.961 -4.6668 -1.6156 -1.4006
   81CHL1  H22B 8458   2.346   6.585   7.960  0.3206  0.3265 -1.7997
   81CHL1   C23 8459   2.180   6.512   8.079  0.3689  0.3279  0.3652
   81CHL1  H23A 8460   2.148   6.617   8.101  0.5994  0.9748 -2.1670
   81CHL1  H23B 8461   2.094   6.443   8.065 -0.4864  0.9860  2.0023
   81CHL1   C24 8462   2.255   6.465   8.205  0.0839  0.3519  0.0592
   81CHL1  H24A 8463   2.318   6.378   8.177 -0.7176 -0.4624  0.7215
   81CHL1  H24B 8464   2.323   6.551   8.216 -0.7170  1.0220 -0.1475
   81CHL1   C25 8465   2.196   6.428   8.335  0.3137 -0.4509 -0.8022
   81CHL1   H25 8466   2.276   6.413   8.410 -0.7389  1.9990  0.9495
   81CHL1   C26 8467   2.097   6.534   8.385 -0.3579  0.1874 -0.1501
   81CHL1  H26A 8468   2.027   6.562   8.302 -0.2306  0.9316 -0.0149
   81CHL1  H26B 8469   2.042   6.501   8.476  0.2091 -0.6862 -0.1151
   81CHL1  H26C 8470   2.160   6.624   8.405 -0.0573 -0.0098 -0.2103
   81CHL1   C27 8471   2.127   6.289   8.336 -0.1033 -0.0332  0.5156
   81CHL1  H27A 8472   2.087   6.277   8.439 -1.0049  0.8537  0.2834
   81CHL1  H27B 8473   2.046   6.288   8.260 -0.4101  2.1907  0.7566
   81CHL1  H27C 8474   2.208   6.214   8.327  1.4699  1.4623  1.5892
   82CHL1    C3 8475   0.572   6.663   7.034 -0.0447  0.2928 -0.0458
   82CHL1    H3 8476   0.470   6.619   7.030  0.3214 -1.2449  3.5688
   82CHL1    O3 8477   0.594   6.710   6.906 -0.0828 -0.5283  0.2044
   82CHL1   H3' 8478   0.671   6.766   6.919  0.2753 -0.8230 -0.5456
   82CHL1    C4 8479   0.565   6.779   7.130 -0.0509 -0.8010  0.5064
   82CHL1   H4A 8480   0.655   6.841   7.112  0.1358 -0.4405  2.4731
   82CHL1   H4B 8481   0.483   6.843   7.090  1.6567  0.1644 -1.6671
   82CHL1    C5 8482   0.565   6.735   7.273  0.1978 -0.0249 -0.5689
   82CHL1    C6 8483   0.457   6.770   7.353  0.6125 -0.1244  0.5212
   82CHL1    H6 8484   0.385   6.835   7.301  1.6156  0.0516 -0.7037
   82CHL1    C7 8485   0.442   6.734   7.496  0.1517 -0.1922  0.2699
   82CHL1   H7A 8486   0.408   6.822   7.555 -0.1510 -0.0790 -0.0723
   82CHL1   H7B 8487   0.367   6.652   7.500 -0.9455  0.6499 -1.5604
   82CHL1    C8 8488   0.579   6.682   7.555  0.4270 -0.1254 -0.3201
   82CHL1    H8 8489   0.642   6.773   7.567 -0.0740  0.1995 -0.1437
   82CHL1   C14 8490   0.545   6.614   7.690  0.0286 -0.3076  0.1650
   82CHL1   H14 8491   0.481   6.527   7.665 -0.5901  0.4414 -0.9916
   82CHL1   C15 8492   0.461   6.683   7.801 -0.1789 -0.1829  0.4954
   82CHL1  H15A 8493   0.509   6.781   7.822 -1.1153  0.2022  0.8501
   82CHL1  H15B 8494   0.355   6.702   7.773 -0.4653 -1.1261  0.8908
   82CHL1   C16 8495   0.491   6.589   7.921  0.0567  0.2135  0.1943
   82CHL1  H16A 8496   0.538   6.648   8.003 -2.7613  1.3031  1.1454
   82CHL1  H16B 8497   0.399   6.541   7.961 -0.3233  0.5260 -0.3031
   82CHL1   C17 8498   0.593   6.480   7.870  0.3079 -0.3603  0.3202
   82CHL1   H17 8499   0.532   6.392   7.841  0.5647  0.1710 -2.0955
   82CHL1   C13 8500   0.665   6.547   7.750 -0.1868  0.5604  0.4943
   82CHL1   C18 8501   0.772   6.661   7.790 -0.2366 -0.5172  0.6131
   82CHL1  H18A 8502   0.819   6.706   7.700  0.9917 -2.5188  0.1810
   82CHL1  H18B 8503   0.722   6.736   7.855 -0.7392 -0.3264  0.0181
   82CHL1  H18C 8504   0.851   6.613   7.851  1.2396  1.9042  0.7037
   82CHL1   C12 8505   0.727   6.444   7.651 -0.6300  0.1751  0.4982
   82CHL1  H12A 8506   0.823   6.401   7.686  0.7863  3.2482  0.7992
   82CHL1  H12B 8507   0.649   6.370   7.625 -0.0153 -0.3244  0.0636
   82CHL1   C11 8508   0.769   6.503   7.517  0.2513  0.6456  0.5300
   82CHL1  H11A 8509   0.858   6.569   7.526 -0.4967  1.6146  0.9104
   82CHL1  H11B 8510   0.798   6.425   7.443  3.4956  2.5673 -0.4364
   82CHL1    C9 8511   0.649   6.583   7.460 -0.4333 -0.3525 -0.8617
   82CHL1    H9 8512   0.564   6.512   7.450 -1.6497  0.9347  0.0171
   82CHL1   C10 8513   0.673   6.651   7.322 -0.0927  0.6104  0.1698
   82CHL1   C19 8514   0.810   6.728   7.312 -0.3345 -0.4758  0.0099
   82CHL1  H19A 8515   0.893   6.657   7.334  1.5275  1.3679 -0.7804
   82CHL1  H19B 8516   0.825   6.773   7.212  2.3825 -0.8927  0.1522
   82CHL1  H19C 8517   0.819   6.813   7.383  1.7455  0.8649 -1.7639
   82CHL1    C1 8518   0.686   6.534   7.223  0.2189  0.0411  0.2936
   82CHL1   H1A 8519   0.786   6.489   7.241  0.2521  0.5850  1.5837
   82CHL1   H1B 8520   0.604   6.463   7.247 -0.5536  1.1518  1.0249
   82CHL1    C2 8521   0.683   6.565   7.068  0.5970 -0.9999  0.0635
   82CHL1   H2A 8522   0.675   6.465   7.021  1.6411 -0.5087 -1.2305
   82CHL1   H2B 8523   0.783   6.604   7.040  0.2704  0.3189  0.6389
   82CHL1   C20 8524   0.683   6.430   7.984 -0.2747 -0.0652  0.8929
   82CHL1   H20 8525   0.754   6.512   8.009 -0.6232  1.1654 -1.7695
   82CHL1   C21 8526   0.745   6.291   7.946 -0.4897  0.3416  0.0073
   82CHL1  H21A 8527   0.806   6.256   8.032 -1.4069 -1.6880 -0.1183
   82CHL1  H21B 8528   0.815   6.290   7.859 -0.5522 -0.7160 -0.0458
   82CHL1  H21C 8529   0.666   6.224   7.906  0.3098  0.7339 -2.4433
   82CHL1   C22 8530   0.608   6.411   8.124  0.3932  0.2451  1.0070
   82CHL1  H22A 8531   0.561   6.507   8.152  0.9523  0.2879  1.8487
   82CHL1  H22B 8532   0.535   6.329   8.111  1.1353 -0.5170  1.4920
   82CHL1   C23 8533   0.701   6.369   8.235  0.2406 -0.7926 -0.7474
   82CHL1  H23A 8534   0.704   6.260   8.255  0.1610 -0.6912 -0.1492
   82CHL1  H23B 8535   0.806   6.396   8.211 -0.2726  1.2742 -0.9024
   82CHL1   C24 8536   0.673   6.436   8.371 -0.2530 -0.0474 -0.2660
   82CHL1  H24A 8537   0.717   6.538   8.363 -0.0549 -0.1988 -1.2323
   82CHL1  H24B 8538   0.564   6.452   8.383  0.0281  0.0469  2.8845
   82CHL1   C25 8539   0.729   6.363   8.495 -0.4367  0.1615  0.1226
   82CHL1   H25 8540   0.831   6.328   8.467  0.2381  1.6782  0.5722
   82CHL1   C26 8541   0.734   6.451   8.622 -0.4445  0.4910 -0.1994
   82CHL1  H26A 8542   0.776   6.389   8.705 -0.0389  0.9609 -0.0512
   82CHL1  H26B 8543   0.791   6.546   8.617 -0.7491  0.8488  2.0081
   82CHL1  H26C 8544   0.633   6.481   8.655 -1.0166 -0.7428 -0.7595
   82CHL1   C27 8545   0.629   6.245   8.511  0.4872 -0.1871  0.2247
   82CHL1  H27A 8546   0.521   6.265   8.527  0.4509 -1.2588  1.4536
   82CHL1  H27B 8547   0.650   6.166   8.435 -0.5528  0.5018 -0.8108
   82CHL1  H27C 8548   0.660   6.191   8.603  1.0695  1.9771  1.3610
   83CHL1    C3 8549   3.295   3.305   7.002  0.5564  0.4668  0.7939
   83CHL1    H3 8550   3.318   3.210   7.056  3.3334 -1.0933 -2.6931
   83CHL1    O3 8551   3.236   3.282   6.870 -1.1948 -0.3709  0.3902
   83CHL1   H3' 8552   3.149   3.321   6.883 -2.0317 -1.7782 -0.7047
   83CHL1    C4 8553   3.191   3.384   7.095  0.5508  0.8335  0.5646
   83CHL1   H4A 8554   3.156   3.476   7.045 -2.6725 -0.1305  0.8412
   83CHL1   H4B 8555   3.105   3.315   7.104  0.8039  0.7961  3.7073
   83CHL1    C5 8556   3.254   3.396   7.231 -0.7850 -0.5168 -0.0583
   83CHL1    C6 8557   3.193   3.343   7.342 -0.2448 -0.1069  0.3549
   83CHL1    H6 8558   3.112   3.270   7.332  0.1183 -0.4300 -0.2249
   83CHL1    C7 8559   3.259   3.355   7.478  0.4096  0.1388  0.7636
   83CHL1   H7A 8560   3.179   3.368   7.554  0.8373 -1.2433  1.4917
   83CHL1   H7B 8561   3.306   3.258   7.504  0.8400  0.1489  0.0386
   83CHL1    C8 8562   3.361   3.472   7.493  0.5847 -0.1170 -0.0850
   83CHL1    H8 8563   3.290   3.557   7.496  1.3554  0.6262 -1.5576
   83CHL1   C14 8564   3.442   3.458   7.616  0.2059 -0.4527  0.3059
   83CHL1   H14 8565   3.505   3.369   7.596 -0.4909 -0.7277 -0.6824
   83CHL1   C15 8566   3.373   3.424   7.746  1.1570 -0.5508 -0.7147
   83CHL1  H15A 8567   3.275   3.476   7.749  0.4316 -1.8506 -1.3321
   83CHL1  H15B 8568   3.354   3.315   7.751  2.1927 -0.6998  3.2065
   83CHL1   C16 8569   3.474   3.457   7.856  0.4016  0.0631  0.0464
   83CHL1  H16A 8570   3.432   3.527   7.932  0.8523  0.4510 -0.0588
   83CHL1  H16B 8571   3.499   3.364   7.911 -2.9332 -1.4927 -0.7904
   83CHL1   C17 8572   3.591   3.528   7.786  0.3907 -0.2680  0.0181
   83CHL1   H17 8573   3.666   3.451   7.757 -0.2070 -1.2052  0.8825
   83CHL1   C13 8574   3.532   3.572   7.642 -0.9397  0.2686  0.2074
   83CHL1   C18 8575   3.451   3.707   7.661 -1.0095  0.5388 -0.6480
   83CHL1  H18A 8576   3.364   3.725   7.595 -1.5757  3.1750  0.7042
   83CHL1  H18B 8577   3.408   3.716   7.762 -0.8826 -1.5819 -0.3514
   83CHL1  H18C 8578   3.525   3.789   7.651 -2.0825  1.6273  0.1730
   83CHL1   C12 8579   3.632   3.581   7.526 -0.5584  0.0983 -1.0847
   83CHL1  H12A 8580   3.704   3.665   7.534 -0.1011 -0.4607  1.3539
   83CHL1  H12B 8581   3.702   3.495   7.536  0.6318  1.0930 -0.5326
   83CHL1   C11 8582   3.568   3.593   7.392 -0.3599  0.2785  0.1872
   83CHL1  H11A 8583   3.515   3.690   7.389 -1.8975 -0.5222  0.3407
   83CHL1  H11B 8584   3.646   3.592   7.313 -2.2889  1.3754 -1.8952
   83CHL1    C9 8585   3.460   3.485   7.369 -0.4957 -0.1115  0.8207
   83CHL1    H9 8586   3.522   3.393   7.368  0.2967  0.3826 -1.1077
   83CHL1   C10 8587   3.385   3.484   7.235  0.6490 -0.0501  0.1483
   83CHL1   C19 8588   3.342   3.626   7.190  0.3106 -0.9050 -0.7013
   83CHL1  H19A 8589   3.277   3.673   7.266 -0.2907  0.7453 -2.1769
   83CHL1  H19B 8590   3.427   3.697   7.178 -0.8485  1.0796  1.8657
   83CHL1  H19C 8591   3.291   3.629   7.092  4.1052  0.6566 -2.8412
   83CHL1    C1 8592   3.482   3.418   7.128  0.5627 -0.1709  0.2512
   83CHL1   H1A 8593   3.565   3.490   7.109  2.3883 -2.1218  0.5159
   83CHL1   H1B 8594   3.523   3.325   7.171  1.8474 -0.0676 -0.6933
   83CHL1    C2 8595   3.425   3.381   6.983  0.0947 -0.5762 -0.2649
   83CHL1   H2A 8596   3.493   3.315   6.926 -0.6145 -2.5254  1.0389
   83CHL1   H2B 8597   3.417   3.472   6.920  2.5985  2.2635  3.1269
   83CHL1   C20 8598   3.656   3.630   7.877 -0.3434  0.0381 -0.6536
   83CHL1   H20 8599   3.583   3.714   7.887  1.0284  1.2588 -0.5838
   83CHL1   C21 8600   3.780   3.685   7.812 -1.3989 -0.3772  0.8005
   83CHL1  H21A 8601   3.848   3.729   7.888  0.8836  1.2794 -1.9882
   83CHL1  H21B 8602   3.756   3.757   7.731  1.9689  1.3793  1.1747
   83CHL1  H21C 8603   3.848   3.605   7.775 -0.3853  0.4897  0.7475
   83CHL1   C22 8604   3.697   3.575   8.019 -0.2006  0.2547 -0.0623
   83CHL1  H22A 8605   3.714   3.662   8.086 -1.2434  0.5554 -0.1775
   83CHL1  H22B 8606   3.612   3.527   8.071 -0.6251  1.6531  0.5651
   83CHL1   C23 8607   3.815   3.475   8.027 -0.3300  0.3529 -0.0616
   83CHL1  H23A 8608   3.797   3.382   7.967 -1.1765  1.5122 -1.6971
   83CHL1  H23B 8609   3.898   3.524   7.971 -0.1244 -0.2966 -0.3499
   83CHL1   C24 8610   3.862   3.448   8.166 -0.1541 -0.4573  0.4325
   83CHL1  H24A 8611   3.894   3.546   8.209  1.9040 -1.1047  0.4822
   83CHL1  H24B 8612   3.775   3.403   8.218  0.7970 -3.4228 -0.3402
   83CHL1   C25 8613   3.985   3.356   8.176 -0.3076 -0.1618 -0.8208
   83CHL1   H25 8614   4.073   3.392   8.119  1.4474 -0.1681  1.6864
   83CHL1   C26 8615   4.022   3.356   8.325  0.3495  0.6763  0.1510
   83CHL1  H26A 8616   4.082   3.264   8.338 -1.9701 -0.6590  2.0256
   83CHL1  H26B 8617   4.084   3.448   8.340  0.9641  0.3297 -0.1972
   83CHL1  H26C 8618   3.937   3.351   8.395 -1.4610  4.4797 -1.4543
   83CHL1   C27 8619   3.943   3.210   8.140 -0.4827 -0.9164  0.0877
   83CHL1  H27A 8620   3.925   3.205   8.031  0.9716  1.2313 -0.3152
   83CHL1  H27B 8621   4.027   3.149   8.179 -0.1902 -0.7258 -0.2505
   83CHL1  H27C 8622   3.843   3.190   8.186 -0.5904  1.8067  1.2918
   84CHL1    C3 8623   4.806   5.101   6.881 -0.0308  0.1985  0.4575
   84CHL1    H3 8624   4.913   5.132   6.882  0.7943 -2.1828 -1.9877
   84CHL1    O3 8625   4.766   5.103   6.746 -0.7223 -0.8087  0.6504
   84CHL1   H3' 8626   4.774   5.195   6.719 -3.2760 -0.4879  0.7411
   84CHL1    C4 8627   4.800   4.963   6.956  0.0268  0.3877  0.2021
   84CHL1   H4A 8628   4.696   4.926   6.948  0.3677 -0.6451  0.3588
   84CHL1   H4B 8629   4.872   4.899   6.900  1.8588  1.4682  1.2361
   84CHL1    C5 8630   4.847   4.967   7.103  0.4511 -0.8002 -0.0814
   84CHL1    C6 8631   4.941   4.883   7.148  0.6104 -0.0876 -0.0929
   84CHL1    H6 8632   4.997   4.829   7.070  0.6485 -0.7113  0.3622
   84CHL1    C7 8633   4.983   4.881   7.292  0.0959  0.5183  0.1763
   84CHL1   H7A 8634   5.016   4.779   7.318 -1.1243  0.0959  0.1249
   84CHL1   H7B 8635   5.079   4.937   7.287 -0.0919  0.7580 -3.3906
   84CHL1    C8 8636   4.870   4.934   7.378 -0.1836  0.2211 -1.1348
   84CHL1    H8 8637   4.781   4.868   7.385 -0.3388  0.5575  0.3867
   84CHL1   C14 8638   4.922   4.944   7.528  0.3801 -1.0675  1.2994
   84CHL1   H14 8639   5.015   5.005   7.534 -1.8526  2.6260  1.0586
   84CHL1   C15 8640   4.958   4.808   7.599  0.2919 -0.0889 -1.1043
   84CHL1  H15A 8641   4.879   4.730   7.589 -0.0215  0.1937 -0.8290
   84CHL1  H15B 8642   5.060   4.777   7.567  1.4438 -0.3777  2.4472
   84CHL1   C16 8643   4.969   4.852   7.748 -0.1450  0.4946  0.0982
   84CHL1  H16A 8644   4.913   4.775   7.806 -0.6456 -0.0710 -1.0928
   84CHL1  H16B 8645   5.073   4.858   7.787 -0.0213  0.7893 -0.2743
   84CHL1   C17 8646   4.905   4.988   7.762  0.2508  0.2779  1.2308
   84CHL1   H17 8647   4.987   5.063   7.769  0.1594  0.5382 -0.0897
   84CHL1   C13 8648   4.832   5.018   7.626 -0.1996  0.4570 -0.7230
   84CHL1   C18 8649   4.689   4.949   7.624 -0.4539 -1.1259 -0.2549
   84CHL1  H18A 8650   4.705   4.841   7.642  0.2102 -0.8955  0.5919
   84CHL1  H18B 8651   4.628   4.985   7.710 -0.1852  0.6337 -0.7487
   84CHL1  H18C 8652   4.621   4.968   7.538 -0.6197 -0.7273 -0.0378
   84CHL1   C12 8653   4.819   5.164   7.575 -0.1139  0.6215 -0.5311
   84CHL1  H12A 8654   4.756   5.221   7.647  2.5028  2.5792  0.3613
   84CHL1  H12B 8655   4.916   5.217   7.565 -0.9972  2.3592 -0.2590
   84CHL1   C11 8656   4.752   5.166   7.437  0.3288  0.2116 -0.7549
   84CHL1  H11A 8657   4.648   5.126   7.446  0.1910  1.0126  1.8865
   84CHL1  H11B 8658   4.746   5.275   7.417  3.1850  0.8558  1.2949
   84CHL1    C9 8659   4.832   5.074   7.332  0.1371  0.1536  0.5741
   84CHL1    H9 8660   4.930   5.127   7.330 -0.7860  1.9298 -0.4859
   84CHL1   C10 8661   4.772   5.074   7.191  0.3269 -0.4910 -0.0346
   84CHL1   C19 8662   4.625   5.028   7.195  0.7097  0.7655 -0.1289
   84CHL1  H19A 8663   4.565   5.120   7.215 -0.1827  0.0717  0.4495
   84CHL1  H19B 8664   4.581   4.995   7.099  0.4437  1.2234 -0.1709
   84CHL1  H19C 8665   4.608   4.950   7.272 -2.4645 -0.4054 -1.8370
   84CHL1    C1 8666   4.782   5.210   7.119 -0.7101 -0.4640 -0.2029
   84CHL1   H1A 8667   4.721   5.282   7.177  0.5330  2.5839 -2.4327
   84CHL1   H1B 8668   4.886   5.249   7.127  0.4241 -3.1804 -0.2982
   84CHL1    C2 8669   4.737   5.210   6.968 -0.0175 -0.0722  0.4615
   84CHL1   H2A 8670   4.763   5.309   6.925 -1.1038 -0.0495 -0.1587
   84CHL1   H2B 8671   4.626   5.206   6.964 -0.0500  0.6479  0.5543
   84CHL1   C20 8672   4.817   5.016   7.888 -0.4808  0.4705  0.5289
   84CHL1   H20 8673   4.713   4.978   7.876 -0.0775 -0.4469 -0.1790
   84CHL1   C21 8674   4.814   5.167   7.924  0.3994 -0.0434 -0.1126
   84CHL1  H21A 8675   4.738   5.175   8.005  0.4454  1.6804 -0.1958
   84CHL1  H21B 8676   4.789   5.233   7.838  1.6386  0.9089  0.2222
   84CHL1  H21C 8677   4.905   5.203   7.977 -0.4242 -2.0584  2.9663
   84CHL1   C22 8678   4.871   4.939   8.024  0.5242  0.3123 -0.0639
   84CHL1  H22A 8679   4.877   4.831   7.998  2.6425  0.8470 -2.1468
   84CHL1  H22B 8680   4.976   4.971   8.043  1.1722 -1.8325  0.2354
   84CHL1   C23 8681   4.786   4.965   8.151  0.0007  0.5667  0.0086
   84CHL1  H23A 8682   4.790   5.069   8.189  0.2569  0.9719 -1.0748
   84CHL1  H23B 8683   4.680   4.957   8.118  0.0807  1.0363 -0.3607
   84CHL1   C24 8684   4.820   4.871   8.267  0.4343  0.8493 -0.6966
   84CHL1  H24A 8685   4.842   4.769   8.229 -1.2531  0.5172 -0.8437
   84CHL1  H24B 8686   4.924   4.897   8.297  0.1962  1.3061 -0.2414
   84CHL1   C25 8687   4.732   4.872   8.390  0.2936 -0.3980  0.4313
   84CHL1   H25 8688   4.639   4.816   8.368 -0.4854  0.0484  2.3818
   84CHL1   C26 8689   4.808   4.798   8.498 -0.3306 -0.1609  0.5914
   84CHL1  H26A 8690   4.758   4.790   8.597 -1.5848  2.1518  0.2144
   84CHL1  H26B 8691   4.822   4.690   8.476 -0.4136 -0.2339  0.8831
   84CHL1  H26C 8692   4.908   4.844   8.516  0.2919 -1.4837  0.6691
   84CHL1   C27 8693   4.699   5.011   8.441  0.2450 -0.4663 -0.0409
   84CHL1  H27A 8694   4.638   5.067   8.366  0.8711 -0.0112 -0.2165
   84CHL1  H27B 8695   4.641   5.012   8.535  0.3025  1.5512  0.0134
   84CHL1  H27C 8696   4.784   5.076   8.470 -0.5350 -0.2647  1.9622
   85CHL1    C3 8697   5.692   2.438   6.617 -0.5803  0.2220  0.0245
   85CHL1    H3 8698   5.728   2.542   6.635 -1.4350  0.5452 -0.0790
   85CHL1    O3 8699   5.673   2.425   6.472  0.2953  0.1913  0.5280
   85CHL1   H3' 8700   5.617   2.350   6.451  2.0754 -1.7119  2.1647
   85CHL1    C4 8701   5.792   2.321   6.661 -0.2573 -0.3659 -0.6620
   85CHL1   H4A 8702   5.743   2.222   6.651 -0.5891 -0.2199 -0.5013
   85CHL1   H4B 8703   5.888   2.324   6.604 -0.3297 -1.4025 -0.8529
   85CHL1    C5 8704   5.809   2.321   6.817 -0.6608  0.1421  0.0920
   85CHL1    C6 8705   5.929   2.340   6.879 -0.1328  0.1882  0.1742
   85CHL1    H6 8706   6.022   2.352   6.822  0.2602  1.2946  1.0236
   85CHL1    C7 8707   5.937   2.351   7.032  0.0938  0.2914 -0.0946
   85CHL1   H7A 8708   6.031   2.302   7.063 -1.3256 -1.7602  1.2490
   85CHL1   H7B 8709   5.949   2.456   7.064  1.0403  0.5691 -1.3156
   85CHL1    C8 8710   5.814   2.288   7.107 -0.0170  1.5822 -0.6293
   85CHL1    H8 8711   5.814   2.178   7.087 -2.8257  0.9886  2.0365
   85CHL1   C14 8712   5.832   2.309   7.262  0.1048 -1.0070 -0.1512
   85CHL1   H14 8713   5.841   2.419   7.275 -0.4729 -0.8869 -0.7036
   85CHL1   C15 8714   5.955   2.250   7.327 -0.2585 -0.4370 -0.2111
   85CHL1  H15A 8715   5.978   2.146   7.296  0.9706 -0.0087 -0.7981
   85CHL1  H15B 8716   6.046   2.313   7.320 -1.6857  1.8662  0.6624
   85CHL1   C16 8717   5.923   2.260   7.475  0.2804 -0.1648  0.3666
   85CHL1  H16A 8718   5.951   2.167   7.529  1.8130  0.2100  0.2537
   85CHL1  H16B 8719   5.977   2.339   7.531  1.2427 -0.7216  0.2474
   85CHL1   C17 8720   5.770   2.284   7.489 -0.1441  0.1171 -0.3026
   85CHL1   H17 8721   5.762   2.394   7.499 -2.4038  0.1762 -2.0772
   85CHL1   C13 8722   5.716   2.251   7.347  0.2752  0.7256 -0.8435
   85CHL1   C18 8723   5.692   2.096   7.321 -0.1308 -0.8120 -0.0768
   85CHL1  H18A 8724   5.595   2.058   7.359 -1.3972 -0.1556 -2.4684
   85CHL1  H18B 8725   5.685   2.077   7.212  0.4221  0.8683 -0.4442
   85CHL1  H18C 8726   5.780   2.036   7.354  0.5912 -0.0506 -0.5599
   85CHL1   C12 8727   5.607   2.339   7.298  0.3070  0.8773 -0.0025
   85CHL1  H12A 8728   5.515   2.321   7.359  1.0766 -1.5325  0.5508
   85CHL1  H12B 8729   5.624   2.448   7.308 -1.6005  1.4509 -2.1375
   85CHL1   C11 8730   5.569   2.325   7.145  0.1711  0.0853 -0.1162
   85CHL1  H11A 8731   5.537   2.219   7.139 -0.4920  0.3665 -2.6941
   85CHL1  H11B 8732   5.485   2.394   7.125  1.2658  0.8399 -2.5443
   85CHL1    C9 8733   5.696   2.358   7.057  0.1580 -0.3515  0.3653
   85CHL1    H9 8734   5.720   2.465   7.072 -3.0434  0.2488  2.1745
   85CHL1   C10 8735   5.673   2.330   6.902 -0.7214  0.2941  0.6993
   85CHL1   C19 8736   5.615   2.184   6.887 -0.7948  0.8692  0.1228
   85CHL1  H19A 8737   5.516   2.171   6.935 -0.3744 -1.2335  0.5413
   85CHL1  H19B 8738   5.604   2.145   6.784 -0.9290 -1.5102  0.9669
   85CHL1  H19C 8739   5.673   2.105   6.940 -1.2106 -0.0738 -0.8046
   85CHL1    C1 8740   5.579   2.433   6.844 -0.0115 -0.3826 -0.1596
   85CHL1   H1A 8741   5.482   2.419   6.897  0.2914  0.7198  0.7278
   85CHL1   H1B 8742   5.623   2.531   6.873  2.0914 -1.1638 -0.5269
   85CHL1    C2 8743   5.559   2.433   6.689 -0.2332  0.0355 -0.0642
   85CHL1   H2A 8744   5.501   2.516   6.645 -0.9888 -1.3832 -1.8735
   85CHL1   H2B 8745   5.502   2.346   6.650  0.1601 -0.2026 -0.1214
   85CHL1   C20 8746   5.710   2.217   7.615 -0.2148 -0.5543 -0.3162
   85CHL1   H20 8747   5.744   2.111   7.616 -0.6959 -0.7708 -2.2165
   85CHL1   C21 8748   5.560   2.229   7.598 -0.1988  0.4050 -0.3704
   85CHL1  H21A 8749   5.516   2.157   7.526  1.8866 -1.2346 -0.1227
   85CHL1  H21B 8750   5.532   2.332   7.570 -1.6993 -0.3531 -1.8452
   85CHL1  H21C 8751   5.505   2.200   7.690 -0.6944  1.3324 -0.3618
   85CHL1   C22 8752   5.757   2.296   7.738 -0.5094  0.4527 -0.0419
   85CHL1  H22A 8753   5.868   2.304   7.735 -0.3582 -0.8910  0.9250
   85CHL1  H22B 8754   5.720   2.400   7.725 -0.4059  0.6331  1.0336
   85CHL1   C23 8755   5.724   2.229   7.871 -0.5149  0.2826  0.2485
   85CHL1  H23A 8756   5.613   2.221   7.872 -0.6658  1.9064 -0.5345
   85CHL1  H23B 8757   5.776   2.130   7.868 -0.6890  0.1081  1.8960
   85CHL1   C24 8758   5.769   2.303   7.997 -0.3995  0.4698  0.3576
   85CHL1  H24A 8759   5.868   2.264   8.029 -0.4074  1.6532  1.9638
   85CHL1  H24B 8760   5.794   2.409   7.976 -0.9075  0.2359 -1.5988
   85CHL1   C25 8761   5.675   2.283   8.119 -0.2370  0.2860 -0.0979
   85CHL1   H25 8762   5.570   2.305   8.088 -0.4141 -2.2165 -1.5643
   85CHL1   C26 8763   5.677   2.135   8.160  0.5441 -0.3925  0.0435
   85CHL1  H26A 8764   5.667   2.066   8.074 -3.0783  0.7952 -0.6625
   85CHL1  H26B 8765   5.776   2.122   8.209  0.1910 -3.6900  0.0872
   85CHL1  H26C 8766   5.606   2.111   8.241  1.1815 -1.0163  0.4345
   85CHL1   C27 8767   5.707   2.369   8.240 -0.9537  0.2386 -0.3666
   85CHL1  H27A 8768   5.812   2.352   8.272 -1.0594  0.3055  0.0200
   85CHL1  H27B 8769   5.697   2.477   8.217 -0.3656  0.0177 -1.7856
   85CHL1  H27C 8770   5.635   2.336   8.318 -0.2011 -1.7379 -0.4483
   86CHL1    C3 8771   0.300   5.091   6.933 -0.0911 -0.0903  0.3664
   86CHL1    H3 8772   0.361   5.001   6.956 -0.4863 -1.1397 -2.3598
   86CHL1    O3 8773   0.244   5.084   6.801 -0.0465 -0.0450  0.1471
   86CHL1   H3' 8774   0.202   5.166   6.777 -2.5642 -1.8840 -2.3615
   86CHL1    C4 8775   0.183   5.110   7.025  0.5223 -0.6686 -0.1543
   86CHL1   H4A 8776   0.137   5.207   6.997 -0.4115 -1.0354  0.0748
   86CHL1   H4B 8777   0.102   5.035   7.014  0.1861 -0.2063 -0.8927
   86CHL1    C5 8778   0.233   5.116   7.168 -0.5582 -0.4960  0.2763
   86CHL1    C6 8779   0.189   5.040   7.265  0.5306 -0.1097  0.6185
   86CHL1    H6 8780   0.119   4.961   7.234 -0.8643  1.3678 -0.1295
   86CHL1    C7 8781   0.222   5.045   7.413 -0.2351 -0.4830 -0.2610
   86CHL1   H7A 8782   0.142   5.022   7.486 -1.0436  0.5421 -0.7967
   86CHL1   H7B 8783   0.296   4.968   7.444  1.0970  0.8648  0.0564
   86CHL1    C8 8784   0.308   5.175   7.441 -0.0134  0.1043  0.4173
   86CHL1    H8 8785   0.242   5.264   7.435  0.9310  0.8964  1.3754
   86CHL1   C14 8786   0.380   5.165   7.576  0.4369 -0.1901 -0.5890
   86CHL1   H14 8787   0.453   5.081   7.565 -1.7343 -2.2264 -0.1848
   86CHL1   C15 8788   0.291   5.129   7.697 -0.0506 -0.3633 -0.5816
   86CHL1  H15A 8789   0.195   5.183   7.687 -1.0817 -1.8323  0.8241
   86CHL1  H15B 8790   0.257   5.023   7.703  1.1427 -0.6817  1.5355
   86CHL1   C16 8791   0.377   5.171   7.821 -0.3888  0.1089 -0.2596
   86CHL1  H16A 8792   0.317   5.237   7.887 -1.2279 -0.6922 -0.1931
   86CHL1  H16B 8793   0.412   5.081   7.876 -1.5530 -0.0798  0.2126
   86CHL1   C17 8794   0.494   5.251   7.758  0.2634 -0.1682 -0.2160
   86CHL1   H17 8795   0.574   5.175   7.745 -0.3841 -0.6977 -1.2001
   86CHL1   C13 8796   0.461   5.289   7.617  0.4769  0.0861 -0.1990
   86CHL1   C18 8797   0.378   5.417   7.625 -0.4903 -0.4128 -0.1478
   86CHL1  H18A 8798   0.330   5.448   7.530 -0.5807 -0.2425 -0.0471
   86CHL1  H18B 8799   0.307   5.417   7.711  1.9631 -0.9260  2.0078
   86CHL1  H18C 8800   0.440   5.504   7.656  1.3467 -0.2461 -3.7316
   86CHL1   C12 8801   0.575   5.307   7.517 -0.9370  0.0415  0.2580
   86CHL1  H12A 8802   0.620   5.407   7.536  0.0022 -0.4521  0.6849
   86CHL1  H12B 8803   0.658   5.234   7.518 -1.5393 -0.6906 -0.8357
   86CHL1   C11 8804   0.518   5.312   7.374  0.1211 -0.7963  0.3971
   86CHL1  H11A 8805   0.471   5.412   7.360  0.9774 -0.6098 -1.4620
   86CHL1  H11B 8806   0.603   5.319   7.303 -1.6446 -2.1127 -1.9828
   86CHL1    C9 8807   0.415   5.201   7.331 -0.4505  0.2342  0.4164
   86CHL1    H9 8808   0.470   5.105   7.333  0.8033  0.9544  0.9374
   86CHL1   C10 8809   0.349   5.225   7.191 -1.2437 -0.0756 -0.4205
   86CHL1   C19 8810   0.285   5.371   7.189  0.7826  0.4868 -0.3191
   86CHL1  H19A 8811   0.242   5.397   7.090  0.1262  3.1274  0.5822
   86CHL1  H19B 8812   0.201   5.378   7.261 -0.5654  0.4388 -1.8190
   86CHL1  H19C 8813   0.351   5.459   7.205  0.6996  0.3069  1.1845
   86CHL1    C1 8814   0.457   5.221   7.083 -0.6417  0.1772 -0.8211
   86CHL1   H1A 8815   0.516   5.314   7.092  1.9710 -1.2789 -1.7848
   86CHL1   H1B 8816   0.531   5.140   7.103 -1.0961 -0.3704 -1.3109
   86CHL1    C2 8817   0.393   5.209   6.942 -0.7721  0.4688  0.5814
   86CHL1   H2A 8818   0.474   5.196   6.867 -1.0570 -0.8360  0.4908
   86CHL1   H2B 8819   0.339   5.302   6.914  1.6701  1.1648 -2.3470
   86CHL1   C20 8820   0.561   5.355   7.861  0.5720 -0.8597 -0.4159
   86CHL1   H20 8821   0.508   5.452   7.860  0.6325 -0.8139  0.3673
   86CHL1   C21 8822   0.699   5.403   7.813 -0.4337  0.0187 -0.5848
   86CHL1  H21A 8823   0.692   5.470   7.725 -0.2767 -0.4171 -0.9329
   86CHL1  H21B 8824   0.755   5.310   7.789 -0.6216  0.0492 -1.1511
   86CHL1  H21C 8825   0.748   5.445   7.904  1.4690 -0.0545 -1.5150
   86CHL1   C22 8826   0.572   5.303   8.009 -0.4937  0.1672  0.4300
   86CHL1  H22A 8827   0.469   5.268   8.034 -1.1513 -0.8196 -3.0329
   86CHL1  H22B 8828   0.633   5.210   8.015  3.9827  2.8731  0.9289
   86CHL1   C23 8829   0.612   5.401   8.117  0.8942 -0.4081  0.1735
   86CHL1  H23A 8830   0.722   5.416   8.125  0.4070  2.7696  3.2747
   86CHL1  H23B 8831   0.555   5.495   8.101  0.0655 -0.9921 -0.3888
   86CHL1   C24 8832   0.559   5.353   8.256 -0.1878 -0.3935 -0.1752
   86CHL1  H24A 8833   0.450   5.336   8.253 -0.2531  0.0867 -0.9721
   86CHL1  H24B 8834   0.611   5.256   8.272  0.3236 -0.3065 -1.2274
   86CHL1   C25 8835   0.610   5.443   8.373 -0.5473 -0.3047 -0.1170
   86CHL1   H25 8836   0.718   5.461   8.354 -0.7789  0.2664 -0.9586
   86CHL1   C26 8837   0.555   5.590   8.373  0.0698  0.0569  0.0311
   86CHL1  H26A 8838   0.582   5.638   8.276  0.6143 -2.5997 -1.2233
   86CHL1  H26B 8839   0.445   5.581   8.382  0.1405 -1.9571 -0.7678
   86CHL1  H26C 8840   0.593   5.651   8.458  2.1363 -0.0631 -0.7551
   86CHL1   C27 8841   0.601   5.379   8.514 -0.3767 -0.0785  0.0619
   86CHL1  H27A 8842   0.493   5.363   8.537 -0.8360  2.3839 -0.0234
   86CHL1  H27B 8843   0.657   5.284   8.511  0.9183  0.6892 -1.6352
   86CHL1  H27C 8844   0.648   5.441   8.594  0.0905 -1.2956  0.7608
   87CHL1    C3 8845   3.219   4.672   7.073  0.2802 -0.8536  0.1819
   87CHL1    H3 8846   3.233   4.562   7.079 -1.4605 -1.0633  1.0513
   87CHL1    O3 8847   3.221   4.733   6.942 -0.1856 -0.2551 -0.4013
   87CHL1   H3' 8848   3.201   4.826   6.946  3.1119  0.5548  0.1768
   87CHL1    C4 8849   3.093   4.715   7.136 -0.1712  0.5238 -0.9290
   87CHL1   H4A 8850   3.077   4.825   7.136 -1.7792  0.3463  0.5982
   87CHL1   H4B 8851   3.007   4.677   7.076 -0.2638  0.4239 -0.7341
   87CHL1    C5 8852   3.073   4.670   7.281 -0.2931 -0.1000  0.8250
   87CHL1    C6 8853   2.971   4.592   7.325  0.9711  0.0136 -0.4081
   87CHL1    H6 8854   2.899   4.549   7.254  0.7010 -0.1157 -0.0584
   87CHL1    C7 8855   2.943   4.561   7.471  0.5809  0.1521  0.8941
   87CHL1   H7A 8856   2.836   4.578   7.494  0.3156  0.1523 -0.2588
   87CHL1   H7B 8857   2.961   4.453   7.491 -1.3525 -0.0688  1.6075
   87CHL1    C8 8858   3.026   4.637   7.573 -0.1600 -0.6188 -0.1394
   87CHL1    H8 8859   2.988   4.740   7.586 -0.3760 -0.8524  1.2817
   87CHL1   C14 8860   3.025   4.565   7.711  0.3221 -0.2354  0.3935
   87CHL1   H14 8861   3.093   4.480   7.689  0.6999  0.6614 -2.3864
   87CHL1   C15 8862   2.889   4.526   7.769 -0.1477 -0.3164  0.1377
   87CHL1  H15A 8863   2.831   4.619   7.753  0.3704 -0.1100 -0.6088
   87CHL1  H15B 8864   2.844   4.433   7.728 -4.1522  0.0692  3.0591
   87CHL1   C16 8865   2.920   4.507   7.914 -0.7045  0.6958  0.1637
   87CHL1  H16A 8866   2.855   4.563   7.985  0.2993 -0.0685  1.7521
   87CHL1  H16B 8867   2.898   4.404   7.948  1.0094  0.1538 -0.2669
   87CHL1   C17 8868   3.075   4.549   7.932  0.7363 -0.3833 -0.2007
   87CHL1   H17 8869   3.128   4.452   7.921  0.2274 -0.7178  0.2845
   87CHL1   C13 8870   3.107   4.642   7.813  0.3382 -0.4510  0.2955
   87CHL1   C18 8871   3.056   4.791   7.843 -0.2403  0.6627  0.0345
   87CHL1  H18A 8872   3.050   4.845   7.746 -1.7574  0.3294 -0.0764
   87CHL1  H18B 8873   2.960   4.795   7.899 -0.0757  1.7368  0.2665
   87CHL1  H18C 8874   3.129   4.839   7.912  0.6532  0.8548 -1.0042
   87CHL1   C12 8875   3.256   4.643   7.767  0.2339 -1.0962  0.5825
   87CHL1  H12A 8876   3.315   4.711   7.832  0.0606  1.3769 -1.6702
   87CHL1  H12B 8877   3.301   4.542   7.773 -2.2889 -2.2818  0.8960
   87CHL1   C11 8878   3.272   4.713   7.629  0.5254  0.1603  0.1255
   87CHL1  H11A 8879   3.243   4.819   7.644  1.2520  0.9480 -3.2324
   87CHL1  H11B 8880   3.373   4.703   7.585  0.9110  0.2778  0.9660
   87CHL1    C9 8881   3.174   4.657   7.519  0.3921 -0.4788 -1.1006
   87CHL1    H9 8882   3.226   4.559   7.510 -0.2981 -1.0119  0.3251
   87CHL1   C10 8883   3.174   4.725   7.380  0.1502 -0.0128  0.6771
   87CHL1   C19 8884   3.157   4.877   7.400  0.2562 -1.0129  0.1167
   87CHL1  H19A 8885   3.143   4.939   7.309 -1.2166 -0.8158  0.4577
   87CHL1  H19B 8886   3.075   4.898   7.472 -1.6619 -0.2838 -2.1486
   87CHL1  H19C 8887   3.253   4.916   7.441 -0.0773  0.3602 -0.3561
   87CHL1    C1 8888   3.319   4.702   7.314  0.0731 -0.1078  1.2579
   87CHL1   H1A 8889   3.390   4.759   7.378 -1.1493  0.3566  2.2466
   87CHL1   H1B 8890   3.341   4.593   7.312 -3.1629 -0.8947 -1.8970
   87CHL1    C2 8891   3.326   4.736   7.164  0.1125  0.1595  0.6050
   87CHL1   H2A 8892   3.424   4.709   7.120  0.8824  1.0742  1.7122
   87CHL1   H2B 8893   3.308   4.845   7.155 -0.0158  0.2683  1.9285
   87CHL1   C20 8894   3.101   4.592   8.072  0.1597 -0.0382 -0.2307
   87CHL1   H20 8895   3.058   4.693   8.088  1.0759  0.1204  1.3518
   87CHL1   C21 8896   3.256   4.595   8.090  0.3413  0.2955  0.5295
   87CHL1  H21A 8897   3.312   4.683   8.053  0.1374  0.1194 -0.2063
   87CHL1  H21B 8898   3.292   4.501   8.043 -2.4618  0.4012 -2.0933
   87CHL1  H21C 8899   3.287   4.585   8.197 -0.1923  1.2190  0.7803
   87CHL1   C22 8900   3.052   4.504   8.188 -0.4616 -0.6174  0.4779
   87CHL1  H22A 8901   2.955   4.457   8.160 -0.2842 -0.8148  0.1961
   87CHL1  H22B 8902   3.119   4.415   8.187  0.2983 -0.0500  0.1540
   87CHL1   C23 8903   3.055   4.565   8.326 -0.8608 -0.0967 -0.4034
   87CHL1  H23A 8904   3.035   4.485   8.400  0.9701 -0.4818 -0.2650
   87CHL1  H23B 8905   3.156   4.602   8.353 -1.9307  2.6362  0.1004
   87CHL1   C24 8906   2.947   4.670   8.356 -0.1128 -0.2097 -0.0925
   87CHL1  H24A 8907   2.985   4.763   8.309 -0.6100 -0.5671 -1.2424
   87CHL1  H24B 8908   2.857   4.633   8.303 -0.1094 -0.5626  0.1459
   87CHL1   C25 8909   2.897   4.693   8.501  0.4727 -0.0369 -0.4634
   87CHL1   H25 8910   2.812   4.763   8.499  1.3854  1.1760  0.8882
   87CHL1   C26 8911   2.837   4.566   8.561 -0.3328 -1.0136 -0.7620
   87CHL1  H26A 8912   2.909   4.483   8.541  1.5300  0.2897  0.3041
   87CHL1  H26B 8913   2.824   4.590   8.668 -0.6934  1.1746 -1.2564
   87CHL1  H26C 8914   2.742   4.546   8.506 -2.0314  2.7515  0.5050
   87CHL1   C27 8915   3.019   4.752   8.587 -0.0026  0.1857  0.2392
   87CHL1  H27A 8916   2.999   4.760   8.696  1.9073 -0.5180  0.6853
   87CHL1  H27B 8917   3.107   4.685   8.579 -2.1259 -2.9331  0.7548
   87CHL1  H27C 8918   3.032   4.851   8.540 -0.6108 -0.4030 -1.2274
   88CHL1    C3 8919   4.756   1.847   7.019 -0.5979 -0.4857 -1.1940
   88CHL1    H3 8920   4.859   1.808   7.030 -0.5491  0.1984  1.4852
   88CHL1    O3 8921   4.710   1.812   6.895  0.4383 -0.3068  0.0387
   88CHL1   H3' 8922   4.745   1.886   6.844  2.4251 -1.4315 -0.3536
   88CHL1    C4 8923   4.673   1.771   7.127  0.6318  0.0387 -0.4670
   88CHL1   H4A 8924   4.568   1.802   7.108 -0.8248 -3.2840  1.3382
   88CHL1   H4B 8925   4.683   1.662   7.107  0.9870  0.2300 -1.3750
   88CHL1    C5 8926   4.709   1.809   7.269 -0.6341 -0.3549 -0.3510
   88CHL1    C6 8927   4.762   1.725   7.364  0.1641  0.3115 -0.2617
   88CHL1    H6 8928   4.780   1.618   7.346  0.2209  0.3431 -0.3937
   88CHL1    C7 8929   4.790   1.768   7.502 -0.6859  0.5864  0.1269
   88CHL1   H7A 8930   4.750   1.695   7.575 -0.2059  0.9981  0.8170
   88CHL1   H7B 8931   4.901   1.774   7.510 -0.6334  0.4471 -0.4469
   88CHL1    C8 8932   4.729   1.904   7.542  0.3845  0.3172 -0.6920
   88CHL1    H8 8933   4.618   1.901   7.551  0.0150  2.6674 -3.0854
   88CHL1   C14 8934   4.788   1.956   7.677 -0.1109 -0.3829 -0.1595
   88CHL1   H14 8935   4.895   1.961   7.647 -0.7633  1.8589 -2.4255
   88CHL1   C15 8936   4.769   1.866   7.799 -0.2227  0.0536  0.0945
   88CHL1  H15A 8937   4.671   1.814   7.800 -0.3915  0.3335  1.6707
   88CHL1  H15B 8938   4.845   1.785   7.794  0.4632  0.5549  1.6505
   88CHL1   C16 8939   4.796   1.960   7.917  0.0151  0.2775  0.2628
   88CHL1  H16A 8940   4.706   1.948   7.981 -0.2206 -2.0563 -0.3985
   88CHL1  H16B 8941   4.892   1.929   7.964  0.9432 -0.3732 -1.9379
   88CHL1   C17 8942   4.810   2.100   7.858  0.0646 -0.5713 -0.1026
   88CHL1   H17 8943   4.911   2.137   7.830 -0.0643  0.0076  0.1884
   88CHL1   C13 8944   4.744   2.088   7.718  0.7080  0.2440 -0.8443
   88CHL1   C18 8945   4.584   2.104   7.745  0.2083  0.5332  0.0202
   88CHL1  H18A 8946   4.577   2.208   7.783 -0.4644  0.2934  0.5762
   88CHL1  H18B 8947   4.522   2.101   7.653 -2.1747 -0.4109  1.5446
   88CHL1  H18C 8948   4.546   2.029   7.817 -2.1893  1.2189 -0.4467
   88CHL1   C12 8949   4.799   2.175   7.609  0.7081  0.5906 -0.1737
   88CHL1  H12A 8950   4.785   2.284   7.626 -1.4656  0.4100 -0.5482
   88CHL1  H12B 8951   4.910   2.165   7.598  0.8043  1.6609 -0.2434
   88CHL1   C11 8952   4.731   2.149   7.472 -0.0188  0.4028  0.6788
   88CHL1  H11A 8953   4.623   2.174   7.481 -0.4457 -1.5228  1.4894
   88CHL1  H11B 8954   4.780   2.203   7.389  0.4623  0.0795  0.7482
   88CHL1    C9 8955   4.764   2.000   7.433 -0.5994 -0.4396 -0.1121
   88CHL1    H9 8956   4.874   1.998   7.419 -0.4838  0.0465  0.6454
   88CHL1   C10 8957   4.708   1.957   7.296  0.0339  0.2402 -0.2890
   88CHL1   C19 8958   4.556   1.997   7.287  0.2747 -0.5291  0.5433
   88CHL1  H19A 8959   4.546   2.106   7.307 -0.2139 -0.6677  1.0835
   88CHL1  H19B 8960   4.505   1.990   7.188  1.8785  0.7916 -0.4415
   88CHL1  H19C 8961   4.496   1.937   7.358  2.3783 -4.4123 -0.7023
   88CHL1    C1 8962   4.797   2.030   7.189 -0.1125 -0.1983  0.6744
   88CHL1   H1A 8963   4.800   2.141   7.196 -0.3713 -0.2098  1.0227
   88CHL1   H1B 8964   4.901   1.995   7.201  0.0794  0.9515  3.0259
   88CHL1    C2 8965   4.755   1.996   7.046  0.2899  0.0881 -0.2181
   88CHL1   H2A 8966   4.820   2.045   6.970  1.0474 -1.0544 -0.3326
   88CHL1   H2B 8967   4.650   2.025   7.024 -0.7054 -0.8565  2.7018
   88CHL1   C20 8968   4.763   2.217   7.944 -0.2880  0.3558 -1.1439
   88CHL1   H20 8969   4.661   2.189   7.977  0.3126  1.7688  2.2692
   88CHL1   C21 8970   4.773   2.353   7.876  1.0390  0.7581 -0.1503
   88CHL1  H21A 8971   4.768   2.435   7.950  0.0748  1.2429 -0.7411
   88CHL1  H21B 8972   4.694   2.356   7.799  2.4338 -1.1795 -1.7877
   88CHL1  H21C 8973   4.864   2.365   7.813  1.0401  0.9246 -0.1168
   88CHL1   C22 8974   4.840   2.216   8.080  0.0519 -0.6021  0.7076
   88CHL1  H22A 8975   4.859   2.111   8.111 -0.4147 -1.4005 -1.5038
   88CHL1  H22B 8976   4.940   2.265   8.073 -0.0494 -0.6118 -1.5654
   88CHL1   C23 8977   4.754   2.291   8.189  0.3202  0.0020 -0.3298
   88CHL1  H23A 8978   4.743   2.397   8.158 -1.9234  0.4614  1.6878
   88CHL1  H23B 8979   4.652   2.247   8.182  0.2969  0.2557 -2.6517
   88CHL1   C24 8980   4.826   2.280   8.328  0.5622 -0.0458  0.3847
   88CHL1  H24A 8981   4.825   2.172   8.354 -1.3771 -0.6186 -1.7539
   88CHL1  H24B 8982   4.928   2.320   8.308  0.7634 -1.4132 -1.5757
   88CHL1   C25 8983   4.751   2.358   8.439 -0.0660  0.2512  0.0737
   88CHL1   H25 8984   4.766   2.466   8.417 -0.7819  0.5065  0.7638
   88CHL1   C26 8985   4.604   2.334   8.453 -0.7661  0.4192  0.4892
   88CHL1  H26A 8986   4.550   2.357   8.359  0.4573 -0.7127 -0.5470
   88CHL1  H26B 8987   4.591   2.224   8.463 -2.5771  0.7152  1.8818
   88CHL1  H26C 8988   4.564   2.394   8.537 -0.0954  0.7629  0.5707
   88CHL1   C27 8989   4.813   2.332   8.584  0.3989 -0.6800  0.3953
   88CHL1  H27A 8990   4.756   2.246   8.624 -1.2919  0.7078  1.1071
   88CHL1  H27B 8991   4.922   2.310   8.580  0.1215 -2.1663  0.5215
   88CHL1  H27C 8992   4.806   2.420   8.652 -0.8142 -0.0685 -0.4911
   89CHL1    C3 8993   3.845   6.757   6.888  0.2652 -0.9777  0.0901
   89CHL1    H3 8994   3.950   6.731   6.914  0.9979  1.2827 -0.4392
   89CHL1    O3 8995   3.837   6.793   6.755 -0.1911 -0.2572  0.4398
   89CHL1   H3' 8996   3.744   6.787   6.731 -0.7124  1.3663  1.8863
   89CHL1    C4 8997   3.765   6.629   6.906  0.2843  0.1549 -0.7847
   89CHL1   H4A 8998   3.662   6.645   6.868 -0.4949  2.2038  1.8884
   89CHL1   H4B 8999   3.791   6.542   6.841  1.9514  0.6286 -0.7925
   89CHL1    C5 9000   3.753   6.594   7.058  0.1999 -0.1803  0.4845
   89CHL1    C6 9001   3.790   6.477   7.099 -0.0530  0.8020  0.4988
   89CHL1    H6 9002   3.824   6.405   7.022 -1.9615  1.1415 -0.7400
   89CHL1    C7 9003   3.801   6.437   7.242  0.3041  0.1719 -0.8925
   89CHL1   H7A 9004   3.766   6.333   7.262  0.7769 -0.1339 -1.6215
   89CHL1   H7B 9005   3.907   6.454   7.271 -0.1786  0.2515  0.9584
   89CHL1    C8 9006   3.713   6.521   7.341 -0.7658 -0.3515  0.8024
   89CHL1    H8 9007   3.607   6.497   7.319 -0.7935 -1.9910  2.4404
   89CHL1   C14 9008   3.743   6.493   7.490 -0.3094 -0.2928 -0.6917
   89CHL1   H14 9009   3.850   6.516   7.505  0.1677 -0.5253 -3.2829
   89CHL1   C15 9010   3.728   6.351   7.541 -0.9020 -0.2743  0.3400
   89CHL1  H15A 9011   3.630   6.314   7.504 -0.3194 -0.8671 -0.6509
   89CHL1  H15B 9012   3.809   6.282   7.509  1.2345  0.9898  2.6602
   89CHL1   C16 9013   3.719   6.380   7.692  1.0847  0.4336 -0.7979
   89CHL1  H16A 9014   3.626   6.332   7.728  2.6999 -1.4250  1.1251
   89CHL1  H16B 9015   3.796   6.328   7.752  0.6221  0.3447 -0.2680
   89CHL1   C17 9016   3.730   6.530   7.716  0.5351 -1.2177  0.2019
   89CHL1   H17 9017   3.836   6.559   7.733 -0.1065  1.2975  0.3793
   89CHL1   C13 9018   3.676   6.584   7.593 -0.2113 -0.6251  0.5584
   89CHL1   C18 9019   3.521   6.574   7.575 -0.0800 -0.3419  0.5292
   89CHL1  H18A 9020   3.479   6.482   7.620 -1.5156  0.1564  0.2560
   89CHL1  H18B 9021   3.470   6.653   7.635 -1.3406 -0.8373  0.1238
   89CHL1  H18C 9022   3.482   6.572   7.472  1.3491 -0.9427 -0.0258
   89CHL1   C12 9023   3.723   6.727   7.555 -0.2545 -0.6215 -0.0070
   89CHL1  H12A 9024   3.670   6.802   7.617  0.2916 -1.8425  2.0332
   89CHL1  H12B 9025   3.833   6.736   7.566 -0.6550  2.0588  3.1796
   89CHL1   C11 9026   3.685   6.768   7.410  0.6682  0.8864  0.8659
   89CHL1  H11A 9027   3.576   6.779   7.389  1.1786  1.2693 -1.8812
   89CHL1  H11B 9028   3.718   6.873   7.401 -0.2082  1.0818 -0.3265
   89CHL1    C9 9029   3.749   6.673   7.308  0.6427  0.0178  0.2634
   89CHL1    H9 9030   3.859   6.680   7.318  0.7503 -0.9841 -0.0964
   89CHL1   C10 9031   3.714   6.708   7.162 -0.5632  0.0679  0.5219
   89CHL1   C19 9032   3.562   6.733   7.140  0.2039  0.3222  0.2176
   89CHL1  H19A 9033   3.519   6.692   7.046 -1.4708  2.4597 -0.0292
   89CHL1  H19B 9034   3.503   6.680   7.218 -1.2322  1.9438  0.2895
   89CHL1  H19C 9035   3.528   6.837   7.158 -0.0578 -0.0249  1.9191
   89CHL1    C1 9036   3.788   6.841   7.125 -0.7921  0.7973 -0.7074
   89CHL1   H1A 9037   3.737   6.926   7.174 -2.1373  1.5654 -3.2706
   89CHL1   H1B 9038   3.897   6.845   7.146 -0.4941  1.4151 -2.1998
   89CHL1    C2 9039   3.788   6.870   6.966  0.1659 -0.7654 -0.0482
   89CHL1   H2A 9040   3.851   6.960   6.951 -3.4391  2.0327  0.3608
   89CHL1   H2B 9041   3.682   6.885   6.939  0.3858  2.7835  0.5207
   89CHL1   C20 9042   3.669   6.577   7.854  0.2201 -0.3652 -0.7490
   89CHL1   H20 9043   3.558   6.589   7.847 -0.1913 -0.6688  3.0240
   89CHL1   C21 9044   3.727   6.722   7.876 -0.6576  0.8503 -0.1623
   89CHL1  H21A 9045   3.838   6.729   7.873 -0.6543  0.4332 -1.5733
   89CHL1  H21B 9046   3.690   6.767   7.971  0.6361 -0.3713  0.9767
   89CHL1  H21C 9047   3.687   6.792   7.801 -1.8946  0.2635 -0.0845
   89CHL1   C22 9048   3.701   6.479   7.976  0.2702  0.3025  0.3860
   89CHL1  H22A 9049   3.667   6.376   7.951 -3.0974  0.7614  2.4458
   89CHL1  H22B 9050   3.811   6.490   7.987  0.3072  1.1589 -0.6612
   89CHL1   C23 9051   3.629   6.513   8.105 -0.1217  0.3026  0.0617
   89CHL1  H23A 9052   3.667   6.611   8.142 -0.9094  0.5172  0.3310
   89CHL1  H23B 9053   3.519   6.528   8.092 -0.3469 -0.2805  1.1901
   89CHL1   C24 9054   3.648   6.415   8.221 -0.0501  0.0940 -0.1331
   89CHL1  H24A 9055   3.586   6.325   8.205 -1.8415  1.2263  0.2039
   89CHL1  H24B 9056   3.752   6.379   8.236  0.3064  1.2862  0.4627
   89CHL1   C25 9057   3.611   6.480   8.357  0.1894  0.7743 -0.2128
   89CHL1   H25 9058   3.676   6.569   8.371 -1.3589  1.4641  3.9011
   89CHL1   C26 9059   3.466   6.521   8.385 -0.0112  0.3267  0.0644
   89CHL1  H26A 9060   3.396   6.435   8.392  2.3202 -1.7743 -0.8756
   89CHL1  H26B 9061   3.454   6.566   8.486  2.1884 -2.7890  1.8898
   89CHL1  H26C 9062   3.427   6.591   8.308 -0.3233  1.3152  1.0984
   89CHL1   C27 9063   3.658   6.396   8.472 -0.9732  0.1772  0.0594
   89CHL1  H27A 9064   3.767   6.380   8.459 -0.9632  0.3649 -0.0843
   89CHL1  H27B 9065   3.631   6.448   8.567 -3.1165  0.0528 -0.4381
   89CHL1  H27C 9066   3.607   6.298   8.457  0.8292 -0.7079 -0.5687
   90CHL1    C3 9067   6.028   3.814   6.862 -0.4961  0.2929  0.0859
   90CHL1    H3 9068   6.122   3.866   6.892  0.0687 -1.9827  2.6595
   90CHL1    O3 9069   6.028   3.789   6.719  0.3676 -0.0668 -0.1231
   90CHL1   H3' 9070   5.934   3.780   6.704  0.3630  1.1434 -0.9446
   90CHL1    C4 9071   6.027   3.677   6.945 -0.9147 -0.7254 -0.7007
   90CHL1   H4A 9072   5.938   3.615   6.922  0.9228 -3.7486 -0.1095
   90CHL1   H4B 9073   6.113   3.618   6.907 -0.8282 -0.8492 -0.3160
   90CHL1    C5 9074   6.042   3.699   7.101  0.3930 -0.5564  0.5122
   90CHL1    C6 9075   6.138   3.649   7.177 -0.3259  0.6823  0.3179
   90CHL1    H6 9076   6.216   3.586   7.133  0.4307  0.9887  1.1771
   90CHL1    C7 9077   6.136   3.675   7.325 -0.5699 -0.0675 -0.3730
   90CHL1   H7A 9078   6.145   3.577   7.376 -0.4015 -0.1207 -0.5065
   90CHL1   H7B 9079   6.221   3.742   7.350 -0.5386 -0.0486 -0.5281
   90CHL1    C8 9080   6.001   3.735   7.384  0.0710 -0.6434 -0.0735
   90CHL1    H8 9081   5.925   3.655   7.370 -0.0688 -0.3029 -1.4279
   90CHL1   C14 9082   6.007   3.766   7.527 -0.1545 -0.5701 -0.1843
   90CHL1   H14 9083   6.075   3.854   7.535 -0.9817  0.4389 -3.1494
   90CHL1   C15 9084   6.063   3.664   7.622  0.1230  0.0294  0.6966
   90CHL1  H15A 9085   6.025   3.562   7.599  0.7351 -0.5669  2.1925
   90CHL1  H15B 9086   6.172   3.658   7.604 -0.1776 -1.3712 -0.9526
   90CHL1   C16 9087   6.022   3.708   7.759 -0.0394  0.4167 -0.5305
   90CHL1  H16A 9088   5.963   3.630   7.812  0.2858  1.8635  2.1814
   90CHL1  H16B 9089   6.106   3.735   7.826 -1.2639  0.5607  1.0111
   90CHL1   C17 9090   5.920   3.827   7.734  0.5095 -0.4130  0.4047
   90CHL1   H17 9091   5.978   3.922   7.738 -0.1128 -0.0701  1.6196
   90CHL1   C13 9092   5.871   3.809   7.587  0.0849  0.4230 -0.2322
   90CHL1   C18 9093   5.761   3.705   7.573  1.0970  0.8085 -0.4325
   90CHL1  H18A 9094   5.775   3.624   7.647  0.8134  2.2867  1.3151
   90CHL1  H18B 9095   5.669   3.763   7.596  0.2507 -0.1017 -1.4165
   90CHL1  H18C 9096   5.747   3.658   7.473  3.1680  0.0921 -0.4155
   90CHL1   C12 9097   5.846   3.942   7.520 -0.1068 -0.1892  0.1910
   90CHL1  H12A 9098   5.750   3.987   7.554 -0.2839 -0.8044  0.5177
   90CHL1  H12B 9099   5.929   4.008   7.553 -0.0468  0.0200 -0.3731
   90CHL1   C11 9100   5.846   3.932   7.366 -0.5766 -0.0784 -0.4076
   90CHL1  H11A 9101   5.742   3.913   7.332 -0.6681  1.4230 -1.0570
   90CHL1  H11B 9102   5.852   4.039   7.338 -2.6383  0.1975  0.0184
   90CHL1    C9 9103   5.963   3.850   7.295  0.4468  0.5156 -0.4593
   90CHL1    H9 9104   6.055   3.912   7.290  0.5853  0.1868 -2.3598
   90CHL1   C10 9105   5.938   3.803   7.149  0.1448  0.4413  0.1493
   90CHL1   C19 9106   5.805   3.725   7.141  0.2702  0.0965 -0.5904
   90CHL1  H19A 9107   5.770   3.710   7.036  0.2583  1.9671 -0.8990
   90CHL1  H19B 9108   5.806   3.633   7.202 -0.8092  0.0885 -0.5710
   90CHL1  H19C 9109   5.725   3.783   7.192  2.2485  2.2012  0.2836
   90CHL1    C1 9110   5.944   3.935   7.059  1.0007  0.1286 -0.6322
   90CHL1   H1A 9111   5.865   4.002   7.101 -1.9782 -2.3556 -1.8849
   90CHL1   H1B 9112   6.041   3.983   7.083 -0.2502  2.4279  0.2549
   90CHL1    C2 9113   5.913   3.908   6.912 -0.7034 -0.1163 -0.1104
   90CHL1   H2A 9114   5.937   4.001   6.855 -3.5935 -0.6565 -2.4073
   90CHL1   H2B 9115   5.813   3.872   6.882 -0.3644 -1.6428  0.5143
   90CHL1   C20 9116   5.815   3.851   7.849  0.4553 -0.3733  0.7064
   90CHL1   H20 9117   5.727   3.786   7.831  0.7423 -0.0214 -2.7666
   90CHL1   C21 9118   5.769   3.996   7.862  0.5045  0.1717  0.2528
   90CHL1  H21A 9119   5.854   4.063   7.890  2.4347 -2.6335  1.5852
   90CHL1  H21B 9120   5.694   4.009   7.943  0.6887  1.8883  0.2004
   90CHL1  H21C 9121   5.724   4.037   7.769  0.4053 -1.9349 -0.6898
   90CHL1   C22 9122   5.874   3.827   7.985  0.2114  0.7266 -0.4240
   90CHL1  H22A 9123   5.916   3.724   7.987  0.3586  0.7625 -1.1986
   90CHL1  H22B 9124   5.954   3.899   8.012  0.7062 -0.1148  0.4147
   90CHL1   C23 9125   5.765   3.816   8.098  0.0051  0.4396 -0.0926
   90CHL1  H23A 9126   5.714   3.911   8.127 -0.4385  0.8847 -2.1742
   90CHL1  H23B 9127   5.688   3.748   8.057  0.0401 -0.3051  1.0177
   90CHL1   C24 9128   5.822   3.743   8.224 -0.6946 -0.4644  0.6472
   90CHL1  H24A 9129   5.732   3.724   8.286  1.0594 -1.5385  3.0230
   90CHL1  H24B 9130   5.859   3.639   8.209 -1.3120 -1.2135  3.6198
   90CHL1   C25 9131   5.929   3.817   8.304 -0.3710 -0.2117  0.9868
   90CHL1   H25 9132   6.007   3.858   8.236  0.0764  0.5820  1.9647
   90CHL1   C26 9133   5.871   3.921   8.399  0.1045 -0.7212 -0.2296
   90CHL1  H26A 9134   5.804   3.868   8.471  1.0530 -2.2051 -0.3786
   90CHL1  H26B 9135   5.949   3.974   8.457 -0.1933 -2.3325  1.7669
   90CHL1  H26C 9136   5.809   3.993   8.342 -0.7657 -1.8143 -0.7221
   90CHL1   C27 9137   6.011   3.716   8.391  0.3122 -0.8446  0.1089
   90CHL1  H27A 9138   6.092   3.766   8.449  1.9231 -3.5219  0.3600
   90CHL1  H27B 9139   5.938   3.655   8.448  0.8464  0.0045  1.7725
   90CHL1  H27C 9140   6.068   3.647   8.325  0.4813 -1.8135  1.2369
   91CHL1    C3 9141   2.457   1.086   6.956  0.2720 -0.1249 -0.9983
   91CHL1    H3 9142   2.492   0.983   6.983  1.5623  0.8539  1.3420
   91CHL1    O3 9143   2.451   1.094   6.816  0.0381 -0.0641 -0.2096
   91CHL1   H3' 9144   2.437   1.187   6.797  2.4508  0.3098 -0.4768
   91CHL1    C4 9145   2.320   1.105   7.017 -0.7872 -0.2743 -0.0934
   91CHL1   H4A 9146   2.298   1.213   7.005  0.7369  0.0420 -0.3063
   91CHL1   H4B 9147   2.250   1.044   6.957  0.7497 -0.5888 -1.6721
   91CHL1    C5 9148   2.329   1.074   7.163 -0.2220  0.1119  0.1902
   91CHL1    C6 9149   2.255   0.983   7.222  1.3960  0.1203  0.5620
   91CHL1    H6 9150   2.188   0.931   7.152  2.2212  0.7391 -0.7234
   91CHL1    C7 9151   2.244   0.954   7.369 -0.4954  0.3650  0.2050
   91CHL1   H7A 9152   2.137   0.953   7.398 -0.4550 -0.8237  0.3617
   91CHL1   H7B 9153   2.293   0.857   7.390  1.0884  1.3582  1.3113
   91CHL1    C8 9154   2.328   1.054   7.451 -0.4388 -0.2912 -0.4410
   91CHL1    H8 9155   2.269   1.147   7.467 -2.4902 -1.9287  2.2073
   91CHL1   C14 9156   2.368   1.002   7.583 -0.2201  0.3306 -0.6976
   91CHL1   H14 9157   2.443   0.921   7.569 -0.6121 -0.1680  0.0068
   91CHL1   C15 9158   2.252   0.936   7.656 -0.1058  1.0364  0.1060
   91CHL1  H15A 9159   2.155   0.990   7.654 -0.1658  1.0093  1.6358
   91CHL1  H15B 9160   2.231   0.830   7.629  0.8987  1.0869 -0.9612
   91CHL1   C16 9161   2.302   0.922   7.800 -0.2561 -0.2613 -1.1460
   91CHL1  H16A 9162   2.235   0.972   7.874  0.6907 -0.7250  0.0608
   91CHL1  H16B 9163   2.300   0.817   7.838  0.0375  0.4075  0.8567
   91CHL1   C17 9164   2.446   0.990   7.801 -0.0218  0.1993 -0.5986
   91CHL1   H17 9165   2.519   0.908   7.782  1.3106  1.2109 -0.0052
   91CHL1   C13 9166   2.445   1.086   7.685 -0.2607 -0.3132  0.2358
   91CHL1   C18 9167   2.367   1.212   7.724 -0.4612 -0.5003  0.5238
   91CHL1  H18A 9168   2.269   1.183   7.767 -1.1458  2.1785  0.9935
   91CHL1  H18B 9169   2.421   1.266   7.804 -1.0032 -0.1608  0.6666
   91CHL1  H18C 9170   2.352   1.294   7.650  0.9388 -0.3127  0.4165
   91CHL1   C12 9171   2.580   1.124   7.615 -0.7243 -0.0898  0.0993
   91CHL1  H12A 9172   2.632   1.205   7.670  0.5808  0.6835 -2.1351
   91CHL1  H12B 9173   2.639   1.030   7.610 -0.1278  0.3012 -0.2225
   91CHL1   C11 9174   2.568   1.169   7.466 -0.2087  0.1691  0.2126
   91CHL1  H11A 9175   2.527   1.272   7.476  0.5832  0.7880 -2.1145
   91CHL1  H11B 9176   2.664   1.188   7.413 -0.7828  2.8686 -0.0251
   91CHL1    C9 9177   2.460   1.093   7.384 -0.2047  0.3564  0.0487
   91CHL1    H9 9178   2.514   0.999   7.360 -0.8409 -0.2347  0.9102
   91CHL1   C10 9179   2.430   1.153   7.242 -0.6858 -0.1890  0.2841
   91CHL1   C19 9180   2.373   1.293   7.264  0.3699  0.1728  0.1493
   91CHL1  H19A 9181   2.443   1.358   7.321 -0.5533  1.5587 -0.2577
   91CHL1  H19B 9182   2.367   1.349   7.168  0.4392 -0.7406 -0.4002
   91CHL1  H19C 9183   2.272   1.279   7.308  1.0713 -2.1773  1.1826
   91CHL1    C1 9184   2.567   1.172   7.162  0.6054 -0.3699 -0.0710
   91CHL1   H1A 9185   2.622   1.260   7.203  1.3806 -1.5743  1.6380
   91CHL1   H1B 9186   2.637   1.088   7.183  2.9122  2.0234  2.8180
   91CHL1    C2 9187   2.553   1.188   7.010  0.5179  0.3172 -0.6049
   91CHL1   H2A 9188   2.648   1.196   6.952 -0.1182  3.0570 -1.3910
   91CHL1   H2B 9189   2.497   1.283   6.995  1.3470  0.7896 -0.7870
   91CHL1   C20 9190   2.491   1.038   7.937 -0.0725 -0.3475  0.5101
   91CHL1   H20 9191   2.433   1.126   7.972  2.9275  2.1927 -0.4600
   91CHL1   C21 9192   2.639   1.097   7.943 -0.2032 -0.0943  0.2908
   91CHL1  H21A 9193   2.642   1.196   7.892  1.7531 -0.3903 -0.2581
   91CHL1  H21B 9194   2.708   1.024   7.896  1.4845 -0.8313  3.5784
   91CHL1  H21C 9195   2.660   1.125   8.049  1.8793  1.5189 -0.4951
   91CHL1   C22 9196   2.489   0.920   8.042  0.0020  0.0085  0.5248
   91CHL1  H22A 9197   2.382   0.892   8.046 -0.5777  2.0030  0.3529
   91CHL1  H22B 9198   2.551   0.843   7.991 -0.9091  0.8595 -2.0110
   91CHL1   C23 9199   2.503   0.946   8.191  0.1405  0.6348  1.0435
   91CHL1  H23A 9200   2.490   0.851   8.245  0.4427 -0.5517 -0.8651
   91CHL1  H23B 9201   2.607   0.986   8.201  1.1121 -1.6555  0.6969
   91CHL1   C24 9202   2.406   1.049   8.248  0.2262 -0.2797  0.0290
   91CHL1  H24A 9203   2.385   1.139   8.186  2.2437 -0.1429 -0.5270
   91CHL1  H24B 9204   2.303   1.008   8.250 -0.9079  2.3702  1.6742
   91CHL1   C25 9205   2.422   1.103   8.389  0.8269 -0.4627 -0.6855
   91CHL1   H25 9206   2.525   1.146   8.393  0.0463  1.4212  0.8190
   91CHL1   C26 9207   2.335   1.233   8.424 -0.3405  0.4845 -0.3733
   91CHL1  H26A 9208   2.231   1.195   8.425  0.1451 -1.0341 -2.3192
   91CHL1  H26B 9209   2.377   1.281   8.515 -1.3270  0.8851 -0.1078
   91CHL1  H26C 9210   2.346   1.306   8.341 -0.3129 -1.1740 -1.8787
   91CHL1   C27 9211   2.420   1.001   8.501 -0.6542  0.5014 -0.0438
   91CHL1  H27A 9212   2.413   1.052   8.600  1.5334 -0.9465  0.9159
   91CHL1  H27B 9213   2.328   0.941   8.492 -1.4589  1.9141 -2.0998
   91CHL1  H27C 9214   2.510   0.938   8.514 -0.0573  1.4923  0.8419
   92CHL1    C3 9215   6.337   3.404   6.626  0.3672  0.8373  0.2873
   92CHL1    H3 9216   6.321   3.511   6.647 -1.3227  0.8751 -0.9752
   92CHL1    O3 9217   6.338   3.388   6.485 -0.4392  0.5414 -0.0431
   92CHL1   H3' 9218   6.347   3.298   6.453 -1.1820  1.8024 -4.6390
   92CHL1    C4 9219   6.465   3.341   6.685  0.4506 -0.2011 -0.1099
   92CHL1   H4A 9220   6.473   3.238   6.643 -2.2432  0.4803 -2.5771
   92CHL1   H4B 9221   6.550   3.395   6.639  0.1983 -0.0275 -0.3708
   92CHL1    C5 9222   6.475   3.341   6.837 -0.2673  0.5286  0.6788
   92CHL1    C6 9223   6.575   3.396   6.906 -0.0831 -0.0070  0.1323
   92CHL1    H6 9224   6.655   3.446   6.849  0.2511 -0.1979  0.4328
   92CHL1    C7 9225   6.580   3.405   7.054  0.9191  0.4070 -0.5361
   92CHL1   H7A 9226   6.684   3.397   7.092  0.8058  2.1905  0.2819
   92CHL1   H7B 9227   6.537   3.501   7.091 -1.1549 -0.7903  0.3597
   92CHL1    C8 9228   6.475   3.303   7.130 -0.3797 -0.1816  0.2856
   92CHL1    H8 9229   6.519   3.201   7.123 -1.1257 -0.3977 -2.0844
   92CHL1   C14 9230   6.448   3.339   7.281  0.2361 -0.5809  1.1240
   92CHL1   H14 9231   6.402   3.440   7.277  0.3464 -0.5264  1.2300
   92CHL1   C15 9232   6.576   3.357   7.372 -0.0437 -0.6097  0.1762
   92CHL1  H15A 9233   6.657   3.288   7.341 -1.0630 -0.8290 -2.2939
   92CHL1  H15B 9234   6.617   3.458   7.350 -0.3160 -1.1641 -3.6482
   92CHL1   C16 9235   6.511   3.336   7.511 -0.2899 -0.6051  0.6827
   92CHL1  H16A 9236   6.565   3.251   7.557 -0.0139 -0.3822  0.7730
   92CHL1  H16B 9237   6.530   3.426   7.572 -0.5259 -1.0918  1.4845
   92CHL1   C17 9238   6.357   3.295   7.492  0.2359 -0.1929  0.1130
   92CHL1   H17 9239   6.310   3.395   7.483  0.0345 -0.3671 -0.8677
   92CHL1   C13 9240   6.351   3.247   7.346 -0.4494  0.4288  0.6005
   92CHL1   C18 9241   6.418   3.100   7.345 -0.2536  0.1482 -0.4540
   92CHL1  H18A 9242   6.427   3.043   7.250  0.0188 -0.5449 -0.0205
   92CHL1  H18B 9243   6.513   3.096   7.404 -0.7242  3.3332  0.7343
   92CHL1  H18C 9244   6.346   3.034   7.396 -0.8272 -1.1480 -2.8033
   92CHL1   C12 9245   6.212   3.241   7.277 -1.1318 -0.1562  0.6539
   92CHL1  H12A 9246   6.139   3.169   7.321 -2.6541  0.4995 -0.6734
   92CHL1  H12B 9247   6.161   3.340   7.278  1.6585  1.3840  1.0098
   92CHL1   C11 9248   6.227   3.211   7.119 -0.4778  0.1920 -0.3436
   92CHL1  H11A 9249   6.252   3.103   7.123 -1.5842 -0.1444 -1.8100
   92CHL1  H11B 9250   6.130   3.222   7.066  0.2481  0.0677 -1.7249
   92CHL1    C9 9251   6.342   3.296   7.047  0.4981  0.2209  0.3044
   92CHL1    H9 9252   6.310   3.403   7.052  1.6007  0.5537  0.5760
   92CHL1   C10 9253   6.359   3.267   6.897  0.4331  0.2444 -1.2414
   92CHL1   C19 9254   6.373   3.111   6.876 -0.8113  0.0886  0.7315
   92CHL1  H19A 9255   6.377   3.076   6.771 -2.3923 -0.5921  0.8666
   92CHL1  H19B 9256   6.470   3.083   6.923 -0.3328 -0.2622 -0.4258
   92CHL1  H19C 9257   6.288   3.061   6.926  0.7784 -2.0977  1.4121
   92CHL1    C1 9258   6.235   3.318   6.830  0.0663 -0.4393  0.8140
   92CHL1   H1A 9259   6.156   3.249   6.866  2.0180 -2.8091  0.7921
   92CHL1   H1B 9260   6.207   3.421   6.862  1.8931  0.9114 -1.5732
   92CHL1    C2 9261   6.226   3.315   6.677  0.4420  0.9592  0.2256
   92CHL1   H2A 9262   6.130   3.355   6.639 -0.6969 -1.4382  0.3680
   92CHL1   H2B 9263   6.240   3.218   6.624  1.3495  3.1684 -4.0623
   92CHL1   C20 9264   6.301   3.218   7.616 -0.1590  0.5062  0.5356
   92CHL1   H20 9265   6.336   3.114   7.600 -2.2243  0.0327 -1.2993
   92CHL1   C21 9266   6.147   3.216   7.610 -0.6343  0.4049 -1.0077
   92CHL1  H21A 9267   6.101   3.161   7.695  1.8825 -1.8834 -0.9742
   92CHL1  H21B 9268   6.113   3.163   7.518  2.5721 -0.1592 -1.9983
   92CHL1  H21C 9269   6.112   3.320   7.595 -0.6274  0.6247  0.3810
   92CHL1   C22 9270   6.357   3.262   7.752 -0.3094 -0.2124  0.3129
   92CHL1  H22A 9271   6.468   3.262   7.752 -0.2966  0.3852 -0.2493
   92CHL1  H22B 9272   6.338   3.372   7.759 -0.1661  0.0241 -2.1163
   92CHL1   C23 9273   6.322   3.172   7.872  0.6259 -0.1595  0.2056
   92CHL1  H23A 9274   6.234   3.112   7.839  1.3788 -1.0759 -0.1826
   92CHL1  H23B 9275   6.405   3.100   7.888 -0.8965 -1.6783  1.8331
   92CHL1   C24 9276   6.312   3.254   8.002  0.0413 -0.4096 -0.6200
   92CHL1  H24A 9277   6.310   3.184   8.089 -1.2135  0.5967  0.1956
   92CHL1  H24B 9278   6.408   3.309   8.012 -0.9122  2.0149 -3.3278
   92CHL1   C25 9279   6.185   3.335   8.038 -0.8349 -0.5705  0.5503
   92CHL1   H25 9280   6.177   3.407   7.954  0.6724 -0.3280  0.5729
   92CHL1   C26 9281   6.057   3.262   8.028 -0.3909  0.3691 -0.3352
   92CHL1  H26A 9282   6.032   3.229   7.925  1.6095  1.2366 -1.1583
   92CHL1  H26B 9283   6.065   3.169   8.088  0.6239  1.0503  0.6282
   92CHL1  H26C 9284   5.976   3.325   8.072  0.2188  1.9739 -1.4220
   92CHL1   C27 9285   6.201   3.419   8.169 -0.0384 -0.4909 -0.1814
   92CHL1  H27A 9286   6.124   3.498   8.167  0.1785 -0.2341  0.7954
   92CHL1  H27B 9287   6.177   3.361   8.261 -1.8700 -0.4586 -0.6055
   92CHL1  H27C 9288   6.301   3.469   8.169 -0.4327  0.3143  0.6531
   93CHL1    C3 9289   2.433   2.249   6.949 -0.0603  0.6881 -0.0946
   93CHL1    H3 9290   2.528   2.300   6.976  0.0835  1.1478 -1.3688
   93CHL1    O3 9291   2.409   2.240   6.809 -0.4008  0.2369  0.1230
   93CHL1   H3' 9292   2.345   2.170   6.794 -0.4053  0.1394  0.5982
   93CHL1    C4 9293   2.426   2.112   7.016 -0.4217 -0.3236 -0.2635
   93CHL1   H4A 9294   2.329   2.060   6.997 -0.4994 -0.4612  0.4908
   93CHL1   H4B 9295   2.508   2.049   6.976 -0.4679 -1.9009  1.9396
   93CHL1    C5 9296   2.433   2.126   7.167  0.4250 -0.5057  0.0842
   93CHL1    C6 9297   2.522   2.048   7.235  0.2404 -0.1954 -0.1085
   93CHL1    H6 9298   2.586   1.988   7.169  1.2640  2.0975 -1.2930
   93CHL1    C7 9299   2.538   2.039   7.387  0.0270  0.7161 -0.2135
   93CHL1   H7A 9300   2.549   1.932   7.412 -3.1290  0.1336 -0.9081
   93CHL1   H7B 9301   2.635   2.086   7.415 -0.2207  1.0050  0.1658
   93CHL1    C8 9302   2.413   2.108   7.454 -0.2803  0.3577 -0.2371
   93CHL1    H8 9303   2.331   2.033   7.455 -1.1165  1.2452  0.6128
   93CHL1   C14 9304   2.444   2.143   7.599 -0.2634  1.1331 -0.4175
   93CHL1   H14 9305   2.521   2.222   7.589 -0.7058  1.6279  0.0058
   93CHL1   C15 9306   2.497   2.037   7.692  0.0582  0.2647  0.2933
   93CHL1  H15A 9307   2.442   1.941   7.685  1.2095 -0.5399  1.7704
   93CHL1  H15B 9308   2.603   2.016   7.671 -0.5291 -2.4339 -0.3701
   93CHL1   C16 9309   2.472   2.089   7.835 -0.4508  0.3680 -0.2815
   93CHL1  H16A 9310   2.424   2.016   7.904  1.5902 -0.7234  0.0596
   93CHL1  H16B 9311   2.561   2.114   7.897 -0.6787 -3.4050  1.8460
   93CHL1   C17 9312   2.395   2.222   7.822  0.4044 -0.0786 -0.8533
   93CHL1   H17 9313   2.469   2.305   7.815 -0.9599  1.3229  0.4014
   93CHL1   C13 9314   2.332   2.211   7.683  0.2513 -0.3633  0.6197
   93CHL1   C18 9315   2.212   2.118   7.692 -0.7660  0.8070  0.2615
   93CHL1  H18A 9316   2.226   2.037   7.767  0.1836  0.5627 -0.1646
   93CHL1  H18B 9317   2.125   2.179   7.722 -0.1593  2.5112 -1.2757
   93CHL1  H18C 9318   2.182   2.071   7.596 -4.2809  1.1066  1.0739
   93CHL1   C12 9319   2.303   2.343   7.612 -0.7024 -0.5580  0.5496
   93CHL1  H12A 9320   2.210   2.389   7.651 -0.4272 -0.5767  1.2414
   93CHL1  H12B 9321   2.390   2.412   7.615 -0.2772 -0.9910 -0.9011
   93CHL1   C11 9322   2.265   2.319   7.462  1.1855 -0.4976 -0.5236
   93CHL1  H11A 9323   2.175   2.255   7.473  1.9477 -1.4401  0.5444
   93CHL1  H11B 9324   2.224   2.410   7.414 -0.5505 -0.4243  0.9744
   93CHL1    C9 9325   2.367   2.236   7.380 -0.1974  0.7088 -0.1118
   93CHL1    H9 9326   2.454   2.303   7.392 -1.9501  2.9989  0.5369
   93CHL1   C10 9327   2.328   2.215   7.233 -0.4309 -0.2279 -0.1475
   93CHL1   C19 9328   2.183   2.156   7.230  0.3400 -0.5066 -0.1556
   93CHL1  H19A 9329   2.186   2.066   7.294  3.6175 -2.0040 -2.1246
   93CHL1  H19B 9330   2.105   2.231   7.256 -0.6933 -1.3070 -0.8589
   93CHL1  H19C 9331   2.165   2.130   7.123  0.8047  3.0221 -1.2382
   93CHL1    C1 9332   2.328   2.350   7.157  0.2813 -0.1589  0.6148
   93CHL1   H1A 9333   2.243   2.415   7.188 -1.0082 -0.8885 -1.1913
   93CHL1   H1B 9334   2.421   2.403   7.186  1.3167 -1.8426  0.4462
   93CHL1    C2 9335   2.319   2.334   7.006 -0.7162  0.3016  0.6294
   93CHL1   H2A 9336   2.323   2.431   6.951  0.8935  0.1028  0.3378
   93CHL1   H2B 9337   2.217   2.299   6.983 -0.6482 -0.8490  1.9636
   93CHL1   C20 9338   2.308   2.244   7.947 -0.1127 -0.1196 -0.6335
   93CHL1   H20 9339   2.222   2.174   7.941 -1.4449  1.4680 -0.9147
   93CHL1   C21 9340   2.241   2.387   7.932  0.3018 -0.1924  0.0780
   93CHL1  H21A 9341   2.166   2.386   7.850  0.6388 -1.6313 -0.2280
   93CHL1  H21B 9342   2.323   2.457   7.904 -0.0519  0.7094  1.2023
   93CHL1  H21C 9343   2.188   2.418   8.025  0.7390  4.5973 -1.0167
   93CHL1   C22 9344   2.375   2.220   8.088  0.1368  0.2496  0.3789
   93CHL1  H22A 9345   2.480   2.182   8.087  0.4462  0.7575 -3.5225
   93CHL1  H22B 9346   2.394   2.322   8.127  2.5376 -0.3731  1.0476
   93CHL1   C23 9347   2.277   2.152   8.188  0.7065  0.8730 -0.0867
   93CHL1  H23A 9348   2.182   2.210   8.190  1.0806  1.4872  0.7044
   93CHL1  H23B 9349   2.247   2.054   8.145  0.3215  1.1147 -0.3813
   93CHL1   C24 9350   2.334   2.137   8.330 -0.6575  0.1684  0.0199
   93CHL1  H24A 9351   2.393   2.044   8.345  1.8013  1.7209  0.6995
   93CHL1  H24B 9352   2.410   2.218   8.335 -0.3935 -0.0939  0.3475
   93CHL1   C25 9353   2.240   2.147   8.451 -1.2817 -1.0505 -0.0226
   93CHL1   H25 9354   2.185   2.243   8.442  0.2827  0.4762  4.1360
   93CHL1   C26 9355   2.159   2.022   8.446 -0.7735  0.0099 -0.2007
   93CHL1  H26A 9356   2.085   2.033   8.528  0.7960 -0.9335  1.4359
   93CHL1  H26B 9357   2.112   1.995   8.350 -1.2067 -0.1081  0.0418
   93CHL1  H26C 9358   2.220   1.933   8.477 -0.9607 -0.1624 -0.3307
   93CHL1   C27 9359   2.313   2.149   8.585  0.8999 -1.3768  0.1618
   93CHL1  H27A 9360   2.396   2.222   8.573 -2.5296  3.0879  0.7403
   93CHL1  H27B 9361   2.249   2.199   8.661  2.4458 -1.1615  1.3760
   93CHL1  H27C 9362   2.355   2.050   8.615  0.8338 -1.0352  1.4718
   94CHL1    C3 9363   2.630   4.686   7.027 -0.2180  0.5582  1.1897
   94CHL1    H3 9364   2.726   4.644   7.064 -0.3935 -2.0355 -1.0092
   94CHL1    O3 9365   2.619   4.651   6.888  0.1612  0.1393  0.1054
   94CHL1   H3' 9366   2.552   4.582   6.889  1.1563 -0.9427  2.9844
   94CHL1    C4 9367   2.519   4.611   7.097  0.0765 -0.3443 -0.6714
   94CHL1   H4A 9368   2.423   4.623   7.044  0.2944 -4.0362 -2.1652
   94CHL1   H4B 9369   2.539   4.503   7.085  1.6459 -0.1939  0.2252
   94CHL1    C5 9370   2.522   4.648   7.249  0.5476 -0.1467  0.6179
   94CHL1    C6 9371   2.506   4.552   7.336 -0.4131 -1.4639 -0.3136
   94CHL1    H6 9372   2.499   4.447   7.302 -0.2001 -1.1719 -1.2997
   94CHL1    C7 9373   2.505   4.586   7.484  0.1478  0.2684  1.0311
   94CHL1   H7A 9374   2.422   4.536   7.539 -3.5921  3.3453 -1.2686
   94CHL1   H7B 9375   2.597   4.533   7.514 -0.6881 -1.3388  0.8946
   94CHL1    C8 9376   2.510   4.735   7.523  0.2435 -0.6866  0.7322
   94CHL1    H8 9377   2.406   4.776   7.522  0.2855 -0.5576 -0.5317
   94CHL1   C14 9378   2.553   4.751   7.667  0.2779 -0.7048 -0.0900
   94CHL1   H14 9379   2.662   4.725   7.668  0.1727 -1.1598  1.0432
   94CHL1   C15 9380   2.483   4.660   7.778 -0.3629  0.3176  0.5399
   94CHL1  H15A 9381   2.372   4.664   7.770 -0.4703 -0.2975  1.5676
   94CHL1  H15B 9382   2.509   4.552   7.780 -1.6205 -0.0110  0.3281
   94CHL1   C16 9383   2.522   4.723   7.909 -0.0222 -0.0485 -0.1792
   94CHL1  H16A 9384   2.432   4.757   7.965  1.2272  2.6281  0.3544
   94CHL1  H16B 9385   2.589   4.656   7.966 -0.4686 -1.8043 -1.6236
   94CHL1   C17 9386   2.597   4.859   7.868 -0.0046 -0.6560  0.6681
   94CHL1   H17 9387   2.706   4.835   7.868  0.2713  0.5472  0.1358
   94CHL1   C13 9388   2.543   4.893   7.726 -1.0089 -0.3316  1.0340
   94CHL1   C18 9389   2.395   4.943   7.733 -0.1856  0.3299  0.0337
   94CHL1  H18A 9390   2.399   5.041   7.785  6.6240  0.4084  0.2654
   94CHL1  H18B 9391   2.368   4.977   7.631 -0.7147  0.6092  0.2657
   94CHL1  H18C 9392   2.319   4.873   7.774 -0.5797 -0.0389 -1.2585
   94CHL1   C12 9393   2.637   4.979   7.624  0.7005  0.2735 -0.4080
   94CHL1  H12A 9394   2.632   5.087   7.647 -1.7675 -0.2944  2.3408
   94CHL1  H12B 9395   2.743   4.948   7.641  0.3857  0.7650  3.1517
   94CHL1   C11 9396   2.595   4.969   7.477  0.1704  0.2339  0.3406
   94CHL1  H11A 9397   2.499   5.023   7.458  0.0630  0.3177  1.0992
   94CHL1  H11B 9398   2.674   5.017   7.415 -2.4736  1.1983 -2.5438
   94CHL1    C9 9399   2.588   4.819   7.426 -0.1151  0.2391  0.5157
   94CHL1    H9 9400   2.690   4.776   7.430  1.0451  2.9185  1.3327
   94CHL1   C10 9401   2.536   4.800   7.279  0.2667  0.2225  0.2188
   94CHL1   C19 9402   2.393   4.854   7.258 -0.2031  0.4497  0.5580
   94CHL1  H19A 9403   2.384   4.963   7.279  1.7373  0.8653 -0.5080
   94CHL1  H19B 9404   2.360   4.839   7.153 -0.7334  2.6092  0.3669
   94CHL1  H19C 9405   2.313   4.806   7.320 -0.1601  0.0498  0.3086
   94CHL1    C1 9406   2.642   4.870   7.189  1.0862  0.2068  0.5504
   94CHL1   H1A 9407   2.653   4.979   7.204 -1.4111  0.9207 -1.9492
   94CHL1   H1B 9408   2.737   4.823   7.221  0.1215 -1.6990  0.7903
   94CHL1    C2 9409   2.631   4.842   7.048  0.6934 -0.1463  0.0842
   94CHL1   H2A 9410   2.712   4.883   6.985  0.2575 -1.6187 -1.4927
   94CHL1   H2B 9411   2.534   4.881   7.010 -0.3813 -1.6799  1.0759
   94CHL1   C20 9412   2.601   4.978   7.968  0.1216  0.7577 -0.5401
   94CHL1   H20 9413   2.501   5.022   7.988  0.2936  0.6953  0.4945
   94CHL1   C21 9414   2.711   5.090   7.933  0.2165  0.2281  0.3417
   94CHL1  H21A 9415   2.681   5.134   7.836 -3.7339 -0.6339  1.0102
   94CHL1  H21B 9416   2.808   5.035   7.933  0.6836  0.9904  1.9625
   94CHL1  H21C 9417   2.714   5.174   8.005  1.1586  0.5106 -0.0064
   94CHL1   C22 9418   2.638   4.921   8.104 -0.2683 -0.3401 -0.9285
   94CHL1  H22A 9419   2.556   4.849   8.124  0.0918 -0.7080 -0.7511
   94CHL1  H22B 9420   2.732   4.864   8.120 -0.0321  0.3879  0.4606
   94CHL1   C23 9421   2.622   5.028   8.220 -0.4475  0.3095  0.2610
   94CHL1  H23A 9422   2.719   5.082   8.232 -0.5155  0.3998  0.4108
   94CHL1  H23B 9423   2.541   5.101   8.198 -0.7133  0.5647  1.9261
   94CHL1   C24 9424   2.595   4.961   8.360 -0.2109 -1.0272  0.6778
   94CHL1  H24A 9425   2.485   4.951   8.371 -0.4329 -1.4893 -1.6016
   94CHL1  H24B 9426   2.641   4.861   8.362 -0.0388 -1.1790 -3.3450
   94CHL1   C25 9427   2.635   5.050   8.482  0.3202 -0.0521  0.9504
   94CHL1   H25 9428   2.602   5.154   8.459  2.5169  0.6859  0.9361
   94CHL1   C26 9429   2.581   4.991   8.606 -0.4383 -0.2971  0.0510
   94CHL1  H26A 9430   2.602   5.065   8.686 -2.7934  0.9551 -0.3935
   94CHL1  H26B 9431   2.472   4.972   8.601 -0.0459 -3.0891  0.4654
   94CHL1  H26C 9432   2.615   4.889   8.635 -3.6890 -0.8860  2.4201
   94CHL1   C27 9433   2.786   5.077   8.500  0.2479 -0.5435 -0.9330
   94CHL1  H27A 9434   2.827   5.138   8.417  3.1307 -0.3206  0.5070
   94CHL1  H27B 9435   2.797   5.135   8.595 -2.9536  0.2304 -0.9340
   94CHL1  H27C 9436   2.843   4.982   8.498  1.1273 -0.0412 -3.7374
   95CHL1    C3 9437   6.763   4.418   6.739  0.1865  0.1709 -0.3627
   95CHL1    H3 9438   6.854   4.363   6.770 -1.9334 -2.6922  1.2742
   95CHL1    O3 9439   6.754   4.415   6.595  0.0871  0.3062  0.2121
   95CHL1   H3' 9440   6.661   4.437   6.580 -0.7095 -3.1807 -0.9780
   95CHL1    C4 9441   6.642   4.341   6.798  0.2137 -0.0271 -0.9360
   95CHL1   H4A 9442   6.548   4.388   6.763  0.0488  0.1563 -0.2576
   95CHL1   H4B 9443   6.646   4.236   6.761  1.1192 -1.5420  2.9953
   95CHL1    C5 9444   6.642   4.334   6.946  0.2380 -0.0357  0.1442
   95CHL1    C6 9445   6.628   4.220   7.016 -0.6958 -0.1650 -0.0135
   95CHL1    H6 9446   6.613   4.127   6.958 -1.5058  0.3170 -0.6007
   95CHL1    C7 9447   6.622   4.210   7.164  0.4822  0.3395  0.6016
   95CHL1   H7A 9448   6.551   4.132   7.199 -0.2978  0.2683 -1.0442
   95CHL1   H7B 9449   6.725   4.177   7.189  0.4454  0.0069  0.3171
   95CHL1    C8 9450   6.594   4.348   7.235 -0.0956 -0.1107 -0.0861
   95CHL1    H8 9451   6.486   4.364   7.213 -0.4251 -0.8790  0.8944
   95CHL1   C14 9452   6.634   4.333   7.382 -0.1465  0.2612 -0.4827
   95CHL1   H14 9453   6.742   4.305   7.380 -0.6945 -1.9553 -2.2294
   95CHL1   C15 9454   6.574   4.221   7.468  0.1588 -0.3220  0.1922
   95CHL1  H15A 9455   6.469   4.209   7.435 -0.1213 -1.9041  1.5203
   95CHL1  H15B 9456   6.622   4.123   7.449  0.9502 -0.4586  2.5691
   95CHL1   C16 9457   6.585   4.278   7.613  0.1121  0.0188 -0.1690
   95CHL1  H16A 9458   6.484   4.279   7.657 -0.3314  1.6342 -1.1313
   95CHL1  H16B 9459   6.654   4.223   7.681  0.8174  2.7550  1.5046
   95CHL1   C17 9460   6.647   4.420   7.600 -0.0806 -0.1828 -0.4256
   95CHL1   H17 9461   6.756   4.400   7.599  0.0088  0.1584  0.7253
   95CHL1   C13 9462   6.618   4.462   7.460  0.2697  0.4322  0.3643
   95CHL1   C18 9463   6.479   4.527   7.452 -0.6963 -0.2578 -0.7588
   95CHL1  H18A 9464   6.435   4.551   7.353 -0.8332  1.3898 -0.3177
   95CHL1  H18B 9465   6.401   4.470   7.508 -1.4662  1.4385 -0.0331
   95CHL1  H18C 9466   6.484   4.623   7.508  0.7607  0.5203 -2.1661
   95CHL1   C12 9467   6.718   4.560   7.399 -0.3177 -0.3828 -0.3602
   95CHL1  H12A 9468   6.703   4.656   7.455 -1.8900 -1.2025  0.7092
   95CHL1  H12B 9469   6.825   4.531   7.406  0.0868  1.2856  1.4434
   95CHL1   C11 9470   6.675   4.591   7.255  0.1710  0.2616  0.6678
   95CHL1  H11A 9471   6.577   4.638   7.231  0.5292  0.6398 -0.0868
   95CHL1  H11B 9472   6.758   4.657   7.223  2.3258 -2.6475 -0.1197
   95CHL1    C9 9473   6.681   4.460   7.170  0.1175  0.5209 -0.1922
   95CHL1    H9 9474   6.787   4.427   7.184  0.2826  1.3130  0.4614
   95CHL1   C10 9475   6.654   4.472   7.015 -0.5878 -0.4414 -0.7225
   95CHL1   C19 9476   6.522   4.550   6.991 -0.5247 -0.4889 -0.3426
   95CHL1  H19A 9477   6.534   4.657   7.017  1.1485 -0.9593  0.9694
   95CHL1  H19B 9478   6.506   4.556   6.881  2.0315  0.0684 -0.7457
   95CHL1  H19C 9479   6.430   4.512   7.040 -0.6621 -0.5008 -0.6026
   95CHL1    C1 9480   6.769   4.545   6.948 -0.2105  0.3004 -0.3004
   95CHL1   H1A 9481   6.772   4.645   6.994 -2.8862 -0.2315  1.2220
   95CHL1   H1B 9482   6.860   4.491   6.983  1.0832  1.8671 -1.1030
   95CHL1    C2 9483   6.760   4.558   6.793 -0.6292  0.2262  0.3033
   95CHL1   H2A 9484   6.857   4.607   6.767 -1.5672  1.7805 -0.4328
   95CHL1   H2B 9485   6.679   4.627   6.761 -0.9190 -0.4222 -0.3750
   95CHL1   C20 9486   6.623   4.521   7.715  0.4553 -0.0562  0.5544
   95CHL1   H20 9487   6.644   4.621   7.671  0.5525 -0.7443 -1.0076
   95CHL1   C21 9488   6.731   4.488   7.821  0.7531  0.0197  0.3535
   95CHL1  H21A 9489   6.832   4.493   7.775  0.8699  0.2026  0.6283
   95CHL1  H21B 9490   6.728   4.382   7.855  2.4774 -0.8701 -1.9897
   95CHL1  H21C 9491   6.718   4.564   7.900 -1.4984  1.3184 -1.1523
   95CHL1   C22 9492   6.488   4.526   7.785 -0.5431  0.0319 -0.1646
   95CHL1  H22A 9493   6.411   4.492   7.712 -1.0201  0.6823  0.0288
   95CHL1  H22B 9494   6.497   4.442   7.858  0.7142 -1.9933 -2.4926
   95CHL1   C23 9495   6.455   4.660   7.848 -0.7016 -0.1301  0.2526
   95CHL1  H23A 9496   6.549   4.696   7.896 -1.5653  1.2327  0.9793
   95CHL1  H23B 9497   6.443   4.723   7.758 -1.2317 -0.0837  0.3553
   95CHL1   C24 9498   6.337   4.663   7.945 -0.3406  0.0900 -0.1506
   95CHL1  H24A 9499   6.243   4.649   7.887 -0.4850 -0.4429  0.2078
   95CHL1  H24B 9500   6.356   4.584   8.020  0.5224 -0.4156 -0.8750
   95CHL1   C25 9501   6.343   4.795   8.028  0.1004 -0.3620  0.4366
   95CHL1   H25 9502   6.244   4.790   8.078 -0.0381 -0.6237  0.1362
   95CHL1   C26 9503   6.451   4.795   8.133 -0.5378 -0.9126 -0.0700
   95CHL1  H26A 9504   6.431   4.714   8.206 -1.7315 -1.1671 -0.6480
   95CHL1  H26B 9505   6.554   4.786   8.090  1.4866  1.2607  3.8132
   95CHL1  H26C 9506   6.439   4.890   8.188  0.6431 -1.2486  0.8020
   95CHL1   C27 9507   6.346   4.923   7.936  0.5935 -0.0574 -0.2501
   95CHL1  H27A 9508   6.443   4.932   7.884  0.2319 -0.3089 -0.9848
   95CHL1  H27B 9509   6.266   4.909   7.859 -1.1577  1.6733  1.1244
   95CHL1  H27C 9510   6.311   5.014   7.989 -1.1353 -1.1034  0.4882
   96CHL1    C3 9511   6.129   2.933   6.616 -0.8246  0.8892  0.2409
   96CHL1    H3 9512   6.209   3.000   6.654  1.1566 -1.9764  1.5146
   96CHL1    O3 9513   6.100   2.958   6.481 -0.0717  0.2548 -0.2044
   96CHL1   H3' 9514   6.034   2.893   6.455 -0.9426  0.6230  0.9583
   96CHL1    C4 9515   6.195   2.791   6.636  0.0870  0.0932  0.7313
   96CHL1   H4A 9516   6.121   2.716   6.599 -0.3217  0.8548 -0.0417
   96CHL1   H4B 9517   6.289   2.778   6.578 -0.5547  3.3333 -1.2974
   96CHL1    C5 9518   6.231   2.774   6.787 -0.0539  0.7393  0.4530
   96CHL1    C6 9519   6.357   2.747   6.823  0.9191 -0.4970 -0.4879
   96CHL1    H6 9520   6.434   2.735   6.745  1.9742  1.3761  0.1980
   96CHL1    C7 9521   6.402   2.722   6.961 -0.1675  0.8373 -0.3399
   96CHL1   H7A 9522   6.466   2.632   6.973 -0.9454  0.3621  0.3178
   96CHL1   H7B 9523   6.468   2.805   6.997 -0.0828  0.8754 -0.5794
   96CHL1    C8 9524   6.283   2.696   7.060 -0.0037 -0.7028 -0.3664
   96CHL1    H8 9525   6.253   2.590   7.044  0.6344 -1.2176  1.5441
   96CHL1   C14 9526   6.338   2.720   7.199 -0.1342  0.4375 -0.5838
   96CHL1   H14 9527   6.364   2.826   7.221  0.6032  0.0235  0.6459
   96CHL1   C15 9528   6.456   2.638   7.253  1.1491  0.8745  0.1814
   96CHL1  H15A 9529   6.445   2.533   7.216  2.7542  0.2219  1.4332
   96CHL1  H15B 9530   6.552   2.678   7.215  1.8885 -0.2561  0.7997
   96CHL1   C16 9531   6.449   2.645   7.406  0.3317 -0.1515 -0.0214
   96CHL1  H16A 9532   6.438   2.543   7.449 -3.8206  1.0999  2.5092
   96CHL1  H16B 9533   6.528   2.699   7.463  0.3252  0.1559 -0.3031
   96CHL1   C17 9534   6.313   2.725   7.435 -0.4300  0.1446  0.2464
   96CHL1   H17 9535   6.343   2.833   7.436  1.8554 -0.4184  1.8093
   96CHL1   C13 9536   6.224   2.701   7.309  0.3260  0.4035 -0.0768
   96CHL1   C18 9537   6.183   2.552   7.318  0.4179  0.0011  0.8939
   96CHL1  H18A 9538   6.076   2.545   7.345  0.7427 -1.5397  1.9246
   96CHL1  H18B 9539   6.178   2.504   7.217 -3.2112  0.4243  0.7286
   96CHL1  H18C 9540   6.235   2.481   7.386  1.1530 -1.1966 -0.8258
   96CHL1   C12 9541   6.104   2.797   7.282  0.2414 -0.7236 -0.5026
   96CHL1  H12A 9542   6.027   2.784   7.361 -1.6063  1.5633 -1.8145
   96CHL1  H12B 9543   6.137   2.902   7.293 -1.9130 -0.2865  3.4370
   96CHL1   C11 9544   6.048   2.772   7.143  0.1213  0.4385  0.5167
   96CHL1  H11A 9545   6.009   2.668   7.142  0.1676  0.4224  0.3422
   96CHL1  H11B 9546   5.960   2.836   7.117 -0.0547 -0.4126 -1.0925
   96CHL1    C9 9547   6.163   2.786   7.036 -0.0141 -0.7533 -0.4661
   96CHL1    H9 9548   6.199   2.890   7.052 -1.1967 -0.2441 -0.9418
   96CHL1   C10 9549   6.113   2.788   6.890 -0.3046  0.5479 -0.4212
   96CHL1   C19 9550   6.015   2.665   6.877 -0.0346 -0.7421  0.5101
   96CHL1  H19A 9551   5.984   2.652   6.771 -0.2538 -0.5697  0.5522
   96CHL1  H19B 9552   6.073   2.575   6.907  0.1073 -0.0284  2.4879
   96CHL1  H19C 9553   5.915   2.675   6.925 -0.3108  1.6683 -0.4442
   96CHL1    C1 9554   6.028   2.918   6.853 -0.4073  0.5770  0.8198
   96CHL1   H1A 9555   5.930   2.920   6.905  0.5323 -0.4369  2.7504
   96CHL1   H1B 9556   6.088   3.004   6.892 -0.5022  2.8468 -3.3686
   96CHL1    C2 9557   6.000   2.941   6.697  0.1569 -0.1312  0.1336
   96CHL1   H2A 9558   5.960   3.045   6.691  0.6338  0.0574  0.1146
   96CHL1   H2B 9559   5.933   2.863   6.656  1.6960 -1.1909 -0.4708
   96CHL1   C20 9560   6.240   2.707   7.572  0.0567  0.4796  0.1724
   96CHL1   H20 9561   6.156   2.634   7.576  0.1918  0.3029 -0.1213
   96CHL1   C21 9562   6.179   2.848   7.612  0.6670  0.2115  0.5169
   96CHL1  H21A 9563   6.113   2.843   7.701  2.2072 -0.3219  1.6719
   96CHL1  H21B 9564   6.120   2.886   7.526  0.7340  0.9202  0.7809
   96CHL1  H21C 9565   6.256   2.921   7.646 -0.2827  1.0684  0.8549
   96CHL1   C22 9566   6.342   2.667   7.677  0.9216 -0.0816  0.5331
   96CHL1  H22A 9567   6.394   2.574   7.645  1.3579  0.3329  0.0199
   96CHL1  H22B 9568   6.421   2.745   7.679  0.0419  0.8462  3.2223
   96CHL1   C23 9569   6.291   2.638   7.818 -0.0001 -0.5458  0.0456
   96CHL1  H23A 9570   6.202   2.702   7.838  0.2401 -0.0968 -0.3142
   96CHL1  H23B 9571   6.251   2.534   7.818  0.0916 -0.6211 -2.3385
   96CHL1   C24 9572   6.390   2.668   7.931 -0.3956 -0.4697 -0.3542
   96CHL1  H24A 9573   6.480   2.606   7.910  1.2145  0.1307  3.7874
   96CHL1  H24B 9574   6.422   2.773   7.912 -2.5122  0.3106  0.1321
   96CHL1   C25 9575   6.342   2.636   8.080  0.9216  0.8478  0.8244
   96CHL1   H25 9576   6.347   2.526   8.097 -2.3496  0.5408  0.3179
   96CHL1   C26 9577   6.425   2.708   8.187 -0.1723  0.0515 -0.6737
   96CHL1  H26A 9578   6.529   2.671   8.174 -0.0768 -0.1037  0.4274
   96CHL1  H26B 9579   6.418   2.818   8.174 -3.4222 -0.0807 -0.9151
   96CHL1  H26C 9580   6.384   2.679   8.287  0.3419  2.1541  0.1921
   96CHL1   C27 9581   6.198   2.671   8.098 -0.1208  0.7258 -0.6283
   96CHL1  H27A 9582   6.179   2.772   8.057  0.5359  1.0794 -0.0838
   96CHL1  H27B 9583   6.138   2.593   8.046 -0.3507  1.0123 -0.7902
   96CHL1  H27C 9584   6.172   2.663   8.206  1.0232 -0.8934 -0.4358
   97OSM      N 9585   3.431   2.866  10.710  0.6338  0.0217  0.5392
   97OSM    C15 9586   3.402   3.017  10.737 -0.1766 -0.7461  0.0675
   97OSM   H15A 9587   3.298   3.036  10.758 -0.3434  0.8955 -1.9268
   97OSM   H15B 9588   3.434   3.071  10.649 -0.7979  1.9969  1.4173
   97OSM   H15C 9589   3.473   3.045  10.813 -0.3694 -1.5652  0.5671
   97OSM    C14 9590   3.371   2.819  10.579  0.3284  0.4401  0.3895
   97OSM   H14A 9591   3.268   2.796  10.602  0.1494  1.8559  1.0808
   97OSM   H14B 9592   3.432   2.736  10.546  0.8847  1.3170 -0.8619
   97OSM   H14C 9593   3.391   2.890  10.501 -0.9093  0.8091  0.3956
   97OSM    C13 9594   3.579   2.853  10.689  0.2858  0.0334  0.2237
   97OSM   H13A 9595   3.608   2.922  10.611 -0.7438 -0.5723 -0.7223
   97OSM   H13B 9596   3.609   2.753  10.663  2.2843  0.6300  0.0371
   97OSM   H13C 9597   3.639   2.875  10.777 -1.8217 -0.2642  1.8065
   97OSM    C12 9598   3.388   2.792  10.829  0.0334  0.7825  0.3321
   97OSM   H12A 9599   3.431   2.828  10.921 -1.1210 -0.2433  1.2962
   97OSM   H12B 9600   3.422   2.690  10.819  0.4998  0.7196  2.2007
   97OSM    C11 9601   3.239   2.774  10.859  0.2729 -0.3173  0.0030
   97OSM   H11A 9602   3.194   2.874  10.879  2.5975  0.9496 -0.7853
   97OSM   H11B 9603   3.231   2.715  10.953  0.9483 -3.8526 -1.9647
   97OSM      P 9604   3.173   2.546  10.752  0.3624  0.1122  0.1637
   97OSM    O13 9605   3.288   2.509  10.832 -0.1569 -0.8154 -0.1283
   97OSM    O14 9606   3.042   2.479  10.785 -0.4550  0.3030  0.6754
   97OSM    O11 9607   3.209   2.510  10.604 -0.1447  0.1398  0.0805
   97OSM    O12 9608   3.165   2.702  10.752 -0.2830  0.2614 -0.1722
   97OSM    C1S 9609   3.141   2.558  10.487  0.2130 -0.1349 -0.1200
   97OSM    H1S 9610   3.189   2.646  10.438  0.4059 -0.7890 -1.1485
   97OSM    H1T 9611   3.037   2.578  10.520  0.7995 -1.7332  3.0274
   97OSM     NF 9612   3.093   2.498  10.246  0.5137  0.4764 -0.0743
   97OSM    HNF 9613   3.010   2.456  10.211  2.0245 -0.7600 -2.4513
   97OSM    C2S 9614   3.137   2.447  10.371  0.3118 -0.1886  0.2883
   97OSM    H2S 9615   3.238   2.410  10.344  0.0350 -0.0403 -0.9764
   97OSM    C3S 9616   3.063   2.314  10.415  0.3173  0.2325 -0.1541
   97OSM    H3S 9617   2.952   2.321  10.424  0.3403  1.2927 -0.4842
   97OSM     O3 9618   3.111   2.259  10.538  0.7292 -0.1398  0.1064
   97OSM    HO3 9619   3.171   2.329  10.566  1.8403 -0.9304 -0.2501
   97OSM    C4S 9620   3.089   2.210  10.312 -0.0411  0.5039  0.3263
   97OSM    H4S 9621   3.195   2.188  10.291 -0.1608 -0.7225  0.8979
   97OSM    C5S 9622   3.003   2.132  10.248  0.4807 -0.0917  0.4318
   97OSM    H5S 9623   2.894   2.141  10.258 -0.0471 -3.5669 -0.7242
   97OSM    C6S 9624   3.059   2.027  10.149  0.8310 -0.4614  0.0883
   97OSM    H6S 9625   3.009   1.932  10.176 -2.2258  0.6390 -1.3154
   97OSM    H6T 9626   3.168   2.006  10.160  1.0694 -1.4205 -3.1080
   97OSM    C7S 9627   3.035   2.071  10.001 -0.1253 -0.3361 -0.3528
   97OSM    H7S 9628   2.930   2.102   9.981 -0.0429  0.7998  0.8254
   97OSM    H7T 9629   3.058   1.971   9.956  1.1910 -0.8911  1.4530
   97OSM    C8S 9630   3.131   2.174   9.948 -0.6440 -0.8015  0.2335
   97OSM    H8S 9631   3.237   2.164   9.982 -0.3572  1.0862  0.0460
   97OSM    H8T 9632   3.100   2.272   9.990  1.3171  0.4916 -1.1101
   97OSM    C9S 9633   3.142   2.189   9.794  1.2329 -0.5679 -0.7337
   97OSM    H9S 9634   3.172   2.292   9.765  1.5698  0.0816  1.7080
   97OSM    H9T 9635   3.039   2.170   9.755  0.9714  3.9698 -3.0705
   97OSM   C10S 9636   3.246   2.104   9.718 -0.4365  0.8365  0.1268
   97OSM   H10S 9637   3.244   2.003   9.764 -0.2359  0.4176 -0.7705
   97OSM   H10T 9638   3.348   2.145   9.735  0.6407 -1.3683 -0.6587
   97OSM   C11S 9639   3.226   2.090   9.562 -0.7881  0.3118 -0.1759
   97OSM   H11S 9640   3.304   2.019   9.526 -0.7049  0.1576  0.2943
   97OSM   H11T 9641   3.228   2.190   9.515 -2.8920  0.5866  0.1799
   97OSM   C12S 9642   3.092   2.026   9.536  0.5229 -0.1240 -0.1103
   97OSM   H12S 9643   3.014   2.095   9.574  2.1400  0.7629  1.7988
   97OSM   H12T 9644   3.093   1.934   9.599  4.2947 -0.1431  0.0137
   97OSM   C13S 9645   3.065   1.977   9.394  0.2897 -0.4481 -0.0243
   97OSM   H13S 9646   2.963   1.933   9.392  0.2422 -0.3151 -0.7160
   97OSM   H13T 9647   3.137   1.895   9.373 -2.4195 -3.1576  0.4839
   97OSM   C14S 9648   3.075   2.102   9.297  0.0093  0.5943  0.2076
   97OSM   H14S 9649   3.182   2.127   9.283  0.3575  0.5353  2.3267
   97OSM   H14T 9650   3.023   2.179   9.358 -2.3279 -1.0148  0.3702
   97OSM   C15S 9651   3.009   2.089   9.156  0.2719 -0.0662  0.4540
   97OSM   H15S 9652   2.903   2.057   9.169  0.1337  0.4629  0.6318
   97OSM   H15T 9653   3.049   2.007   9.092  0.6302  2.0267 -2.1912
   97OSM   C16S 9654   3.017   2.213   9.068  0.6935 -0.7679  0.7869
   97OSM   H16S 9655   2.957   2.292   9.119 -1.7508 -1.2778 -1.0735
   97OSM   H16T 9656   2.955   2.184   8.979 -1.0860 -2.8811  2.5878
   97OSM   C17S 9657   3.160   2.258   9.037 -0.4814  0.5537 -0.2820
   97OSM   H17S 9658   3.225   2.168   9.030 -1.2927 -0.0710  0.1301
   97OSM   H17T 9659   3.202   2.322   9.117  0.1824 -1.0522  0.6880
   97OSM   C18S 9660   3.170   2.337   8.911  0.0644 -0.1239  1.1880
   97OSM   H18S 9661   3.107   2.428   8.915  0.0017  0.1065 -2.0028
   97OSM   H18T 9662   3.124   2.284   8.824  0.6564 -3.1098  2.5718
   97OSM   H18U 9663   3.267   2.372   8.869 -0.8024 -0.8718 -1.7205
   97OSM    C1F 9664   3.153   2.592  10.180 -0.0987  0.6025 -0.2683
   97OSM     OF 9665   3.270   2.620  10.206  0.3502 -0.4734  0.3865
   97OSM    C2F 9666   3.078   2.640  10.065  0.7745 -0.1136 -0.3114
   97OSM    H2F 9667   2.974   2.664  10.094  0.3291 -0.0673 -1.8844
   97OSM    H2G 9668   3.061   2.558   9.991 -1.7320  2.8014 -3.2517
   97OSM    C3F 9669   3.155   2.746   9.987  0.2778 -0.4846  0.1605
   97OSM    H3F 9670   3.240   2.685   9.950  0.6061 -0.0277  0.1529
   97OSM    H3G 9671   3.188   2.828  10.055 -0.4572  2.2358 -2.5583
   97OSM    C4F 9672   3.077   2.804   9.861 -0.1767 -0.5313  1.1382
   97OSM    H4F 9673   3.135   2.884   9.809  0.0048 -0.9730  0.6597
   97OSM    H4G 9674   2.979   2.850   9.887  0.5344  1.4356  0.5696
   97OSM    C5F 9675   3.057   2.694   9.755  0.6989  0.3547 -0.1256
   97OSM    H5F 9676   2.988   2.618   9.797  0.9518  0.3797  0.3452
   97OSM    H5G 9677   3.156   2.645   9.745  1.5199  1.7466  0.7500
   97OSM    C6F 9678   3.015   2.747   9.614  0.1963  0.1523  0.5551
   97OSM    H6F 9679   3.088   2.821   9.575 -0.6943  1.1600  0.7690
   97OSM    H6G 9680   2.917   2.797   9.619  0.1903  0.0636  1.7515
   97OSM    C7F 9681   3.007   2.626   9.515  0.1738  0.4144  0.0296
   97OSM    H7F 9682   2.970   2.659   9.415  0.5368 -0.5063 -0.4174
   97OSM    H7G 9683   2.946   2.547   9.564  0.2516 -0.4945 -1.2903
   97OSM    C8F 9684   3.140   2.567   9.472 -0.6490  0.2003  0.5831
   97OSM    H8F 9685   3.117   2.479   9.409 -0.5663 -0.5451  1.5605
   97OSM    H8G 9686   3.196   2.520   9.556 -1.1277 -1.6245 -0.0748
   97OSM    C9F 9687   3.232   2.661   9.400  0.1863 -0.2745  0.0318
   97OSM    H9F 9688   3.322   2.688   9.457  1.8763 -0.7651 -2.2458
   97OSM   C10F 9689   3.232   2.710   9.275 -0.5164  0.4809 -0.6992
   97OSM   H10F 9690   3.317   2.777   9.253  1.0389 -1.9308 -2.5568
   97OSM   C11F 9691   3.140   2.677   9.149 -0.3102  0.0280 -0.1937
   97OSM   H11F 9692   3.078   2.589   9.174 -0.6643  0.1096 -0.7657
   97OSM   H11G 9693   3.202   2.634   9.068 -0.1876  0.3587 -0.2747
   97OSM   C12F 9694   3.077   2.804   9.087  0.0128 -0.4783  0.0377
   97OSM   H12F 9695   3.156   2.878   9.060 -0.6926  0.1257 -0.3806
   97OSM   H12G 9696   3.022   2.850   9.172 -0.4610 -0.9540 -0.0091
   97OSM   C13F 9697   2.985   2.785   8.968  0.3029  0.3823 -0.2229
   97OSM   H13F 9698   2.904   2.860   8.956  1.0699  1.1738 -0.5452
   97OSM   H13G 9699   2.926   2.694   8.993  0.8643 -0.0519 -0.4694
   97OSM   C14F 9700   3.046   2.753   8.828 -0.1988 -0.5962  0.1166
   97OSM   H14F 9701   2.958   2.756   8.760 -1.1515 -0.9374  1.3016
   97OSM   H14G 9702   3.101   2.657   8.816  1.6068  0.3283  0.6067
   97OSM   C15F 9703   3.132   2.863   8.770 -0.2802  0.0666 -0.4341
   97OSM   H15F 9704   3.184   2.817   8.684  0.3925  0.7990 -0.4351
   97OSM   H15G 9705   3.211   2.899   8.840 -0.7723  0.3252  0.0010
   97OSM   C16F 9706   3.060   2.985   8.713  0.4518 -0.3630 -0.9641
   97OSM   H16F 9707   2.964   2.951   8.670 -0.3391 -0.1598  0.5817
   97OSM   H16G 9708   3.127   3.023   8.632  0.8855 -0.8988 -0.8626
   97OSM   C17F 9709   3.056   3.105   8.802 -0.0754 -0.7828  0.5093
   97OSM   H17F 9710   3.161   3.142   8.802 -0.6537  1.0158 -1.0019
   97OSM   H17G 9711   3.027   3.080   8.906 -1.5879  0.4076  0.4054
   97OSM   C18F 9712   2.976   3.225   8.747 -0.3903 -0.3423  0.1078
   97OSM   H18F 9713   3.000   3.314   8.808  0.3294 -0.9906  0.7947
   97OSM   H18G 9714   2.865   3.213   8.749 -0.5675  1.1533  0.2510
   97OSM   H18H 9715   3.012   3.260   8.648 -0.4037 -0.3191  0.1110
   98OSM      N 9716   1.681   3.578  11.299 -0.7165  0.5533  0.2819
   98OSM    C15 9717   1.615   3.452  11.350 -0.7780 -0.2901  0.1104
   98OSM   H15A 9718   1.685   3.370  11.341  1.7123  1.4705  1.8740
   98OSM   H15B 9719   1.521   3.442  11.298 -0.9927 -0.1647  0.4687
   98OSM   H15C 9720   1.586   3.464  11.453  1.4494  0.7332  0.6973
   98OSM    C14 9721   1.681   3.556  11.154  0.5268 -0.6918  0.1765
   98OSM   H14A 9722   1.712   3.639  11.092  1.4049 -1.1000  0.0456
   98OSM   H14B 9723   1.583   3.531  11.118  0.8463 -3.1025  0.8225
   98OSM   H14C 9724   1.750   3.476  11.131 -0.0534 -0.9237 -0.7712
   98OSM    C13 9725   1.590   3.694  11.326 -0.3124  0.0806 -0.3078
   98OSM   H13A 9726   1.497   3.677  11.273  0.5434  1.1386 -2.2673
   98OSM   H13B 9727   1.626   3.780  11.271  0.5276  0.1553  0.3500
   98OSM   H13C 9728   1.572   3.706  11.431 -1.8768 -1.0596 -0.4067
   98OSM    C12 9729   1.816   3.601  11.349 -0.5777  0.4584  1.1029
   98OSM   H12A 9730   1.814   3.601  11.457 -2.0824 -0.5667  1.1103
   98OSM   H12B 9731   1.852   3.700  11.327  0.2690  0.4463  2.3393
   98OSM    C11 9732   1.923   3.499  11.319  0.1707 -0.6350 -0.1361
   98OSM   H11A 9733   1.875   3.400  11.334 -1.7856  0.4411  1.0398
   98OSM   H11B 9734   1.999   3.524  11.396 -1.9621  1.2798  1.5017
   98OSM      P 9735   2.048   3.637  11.123 -0.1752  0.5316 -0.0499
   98OSM    O13 9736   2.030   3.751  11.215  0.1808  0.3349 -0.2222
   98OSM    O14 9737   2.181   3.605  11.069  0.2450  0.3878 -0.9258
   98OSM    O11 9738   1.968   3.656  10.987 -0.0148  0.0126 -0.1716
   98OSM    O12 9739   1.971   3.508  11.185  1.1250  0.1222 -0.0992
   98OSM    C1S 9740   2.005   3.755  10.886  0.1406 -0.2786 -0.0833
   98OSM    H1S 9741   2.099   3.802  10.923  0.1763 -0.0798 -0.4267
   98OSM    H1T 9742   1.918   3.824  10.884  0.3895  0.0241 -0.6698
   98OSM     NF 9743   2.053   3.794  10.642 -0.2128  0.2384  0.5211
   98OSM    HNF 9744   1.973   3.820  10.589  1.5461  0.9167 -1.9798
   98OSM    C2S 9745   2.027   3.693  10.744  0.0649 -1.0609  0.8043
   98OSM    H2S 9746   2.119   3.631  10.735 -1.8652 -3.8969 -1.1230
   98OSM    C3S 9747   1.909   3.602  10.704 -0.2932 -0.5494  0.4057
   98OSM    H3S 9748   1.815   3.661  10.711  0.4458  0.6089  0.9270
   98OSM     O3 9749   1.881   3.491  10.794 -0.0940 -0.0240 -0.1153
   98OSM    HO3 9750   1.908   3.530  10.877  0.3094  0.5063 -0.4967
   98OSM    C4S 9751   1.928   3.548  10.564 -0.0738  0.1286 -0.2767
   98OSM    H4S 9752   1.980   3.451  10.560 -1.4643 -0.6768  0.3892
   98OSM    C5S 9753   1.891   3.583  10.436  0.2972  0.1052 -0.4043
   98OSM    H5S 9754   1.810   3.656  10.423  1.0732  0.7435 -1.8917
   98OSM    C6S 9755   1.920   3.502  10.313  0.0407  0.1081  0.2943
   98OSM    H6S 9756   1.855   3.412  10.321 -0.7553  0.4228 -1.9823
   98OSM    H6T 9757   2.028   3.481  10.308  0.0058  0.0044 -0.0404
   98OSM    C7S 9758   1.878   3.571  10.186 -0.5424  0.3395 -0.2771
   98OSM    H7S 9759   1.925   3.670  10.171  0.7694 -0.2783 -0.3565
   98OSM    H7T 9760   1.770   3.589  10.163  0.1126  2.5197 -1.9257
   98OSM    C8S 9761   1.916   3.483  10.065 -0.1185 -0.2258 -0.1508
   98OSM    H8S 9762   1.881   3.378  10.076  1.3159 -0.6184  0.8863
   98OSM    H8T 9763   2.026   3.474  10.057 -0.1548 -0.8555  0.0163
   98OSM    C9S 9764   1.864   3.537   9.932 -0.1604 -0.2130 -0.6447
   98OSM    H9S 9765   1.898   3.642   9.913 -0.3617  0.2628  1.4665
   98OSM    H9T 9766   1.753   3.537   9.928 -0.1739 -2.2755 -1.5078
   98OSM   C10S 9767   1.919   3.449   9.819  0.2674  0.4106  0.2501
   98OSM   H10S 9768   1.883   3.344   9.818 -2.0758  1.1419  1.1225
   98OSM   H10T 9769   2.030   3.453   9.823  0.5391 -1.5657 -2.6034
   98OSM   C11S 9770   1.877   3.506   9.682  0.4353  0.1593  0.8425
   98OSM   H11S 9771   1.915   3.609   9.667 -0.6368  0.7044  1.7122
   98OSM   H11T 9772   1.767   3.518   9.673  0.4768 -0.1010  0.0053
   98OSM   C12S 9773   1.905   3.418   9.562 -0.2114  0.5121 -0.6760
   98OSM   H12S 9774   1.837   3.428   9.474 -0.2777  0.1835 -0.6633
   98OSM   H12T 9775   1.905   3.314   9.600 -0.3308 -0.1594 -2.4370
   98OSM   C13S 9776   2.049   3.436   9.505  0.0287  0.6808  1.2007
   98OSM   H13S 9777   2.127   3.396   9.574  1.8762  5.0664  1.9783
   98OSM   H13T 9778   2.084   3.534   9.468  0.0039 -0.1488 -1.2069
   98OSM   C14S 9779   2.055   3.356   9.372 -0.1208  0.0799 -0.0027
   98OSM   H14S 9780   2.006   3.259   9.397  0.1854 -0.0045  0.2799
   98OSM   H14T 9781   2.160   3.323   9.360  0.0654 -0.7054  2.9694
   98OSM   C15S 9782   2.005   3.430   9.249 -0.5358  0.1169 -0.0426
   98OSM   H15S 9783   2.068   3.521   9.242  1.0378 -0.9903 -0.8542
   98OSM   H15T 9784   1.903   3.468   9.274 -1.4673 -2.1249 -0.1802
   98OSM   C16S 9785   1.996   3.344   9.115  0.1614  0.1121  0.1129
   98OSM   H16S 9786   2.094   3.308   9.077  0.6272  1.8561 -0.4260
   98OSM   H16T 9787   1.955   3.410   9.035 -0.2319 -0.5047 -0.2012
   98OSM   C17S 9788   1.899   3.221   9.124  0.3571 -0.1861 -0.0294
   98OSM   H17S 9789   1.800   3.232   9.172 -0.1845 -5.1188  0.4016
   98OSM   H17T 9790   1.945   3.145   9.191 -0.2112  0.6820  1.3926
   98OSM   C18S 9791   1.865   3.140   8.993 -0.4202  0.4338 -0.1490
   98OSM   H18S 9792   1.960   3.109   8.945 -0.4321  0.0739  0.0554
   98OSM   H18T 9793   1.812   3.198   8.914 -0.7001  2.0909  1.2042
   98OSM   H18U 9794   1.813   3.046   9.021 -1.1396 -0.2122 -3.3056
   98OSM    C1F 9795   2.173   3.853  10.637 -0.0077 -0.3983  0.1757
   98OSM     OF 9796   2.265   3.831  10.711 -0.0031  0.3326 -0.0944
   98OSM    C2F 9797   2.171   3.957  10.536 -0.1534 -0.4749  0.7308
   98OSM    H2F 9798   2.248   4.036  10.550 -1.3852  0.6291  1.5563
   98OSM    H2G 9799   2.072   4.008  10.536  0.3228  0.4900  0.0704
   98OSM    C3F 9800   2.190   3.903  10.393  0.0824 -0.0623 -0.1349
   98OSM    H3F 9801   2.114   3.823  10.377 -0.7752  0.6555  0.2149
   98OSM    H3G 9802   2.297   3.880  10.378  0.4859  0.9598  1.0963
   98OSM    C4F 9803   2.157   4.009  10.280  0.0049  0.1117 -0.0110
   98OSM    H4F 9804   2.233   4.089  10.296  0.7199 -0.9459  2.2995
   98OSM    H4G 9805   2.055   4.052  10.286 -0.5519 -0.2943 -3.9867
   98OSM    C5F 9806   2.175   3.959  10.137  0.1002 -0.5433  0.5280
   98OSM    H5F 9807   2.079   3.912  10.106 -0.1898  0.3806  0.0015
   98OSM    H5G 9808   2.255   3.882  10.125  0.5775  0.0599 -0.2670
   98OSM    C6F 9809   2.203   4.075  10.038 -0.4099  0.4166  1.1236
   98OSM    H6F 9810   2.294   4.131  10.069  1.2349 -1.6597  0.2597
   98OSM    H6G 9811   2.111   4.138  10.044 -0.9833 -0.5266  2.7944
   98OSM    C7F 9812   2.214   4.021   9.891  1.1272  0.1394 -0.5679
   98OSM    H7F 9813   2.124   3.962   9.865 -0.0670  1.9282 -0.6609
   98OSM    H7G 9814   2.293   3.942   9.895  0.6827 -0.2430  2.0132
   98OSM    C8F 9815   2.238   4.131   9.787 -0.2670  0.1598 -0.0788
   98OSM    H8F 9816   2.303   4.209   9.832 -1.2098  0.5171  0.7041
   98OSM    H8G 9817   2.137   4.163   9.754 -0.0285  1.4190  0.3868
   98OSM    C9F 9818   2.322   4.068   9.674 -0.1144 -0.0682  0.1098
   98OSM    H9F 9819   2.428   4.079   9.702 -0.8575  0.5423  3.0779
   98OSM   C10F 9820   2.280   4.013   9.556 -0.9242  0.4731 -0.6838
   98OSM   H10F 9821   2.361   3.975   9.492 -2.2801 -0.8262 -1.6968
   98OSM   C11F 9822   2.148   3.995   9.491  0.3216  1.0180  0.1034
   98OSM   H11F 9823   2.070   4.042   9.555  2.4301  1.3749  2.5384
   98OSM   H11G 9824   2.124   3.887   9.476  1.7880  0.5914  0.6830
   98OSM   C12F 9825   2.130   4.038   9.341 -0.6098  0.1113  0.2297
   98OSM   H12F 9826   2.027   3.999   9.328 -1.5683  2.7590 -0.8427
   98OSM   H12G 9827   2.201   3.992   9.269  1.3397 -0.3980  2.3947
   98OSM   C13F 9828   2.109   4.183   9.323  0.2360 -0.0422 -1.1413
   98OSM   H13F 9829   2.211   4.220   9.346  1.0183 -0.4189 -3.6459
   98OSM   H13G 9830   2.038   4.228   9.395  3.4904  2.0474  1.0111
   98OSM   C14F 9831   2.069   4.234   9.182  0.0504  0.3522 -0.2039
   98OSM   H14F 9832   2.016   4.332   9.184 -0.6766 -0.0421  0.4774
   98OSM   H14G 9833   1.996   4.165   9.135 -0.7050 -0.1730  1.6212
   98OSM   C15F 9834   2.191   4.252   9.088 -0.2825 -0.6657  0.1395
   98OSM   H15F 9835   2.274   4.193   9.132 -0.9539 -1.6820  0.0830
   98OSM   H15G 9836   2.223   4.358   9.097 -0.9219 -0.6469  3.6291
   98OSM   C16F 9837   2.144   4.208   8.946 -0.5420 -1.1427 -0.5146
   98OSM   H16F 9838   2.049   4.263   8.931 -0.5468 -1.1976 -0.6825
   98OSM   H16G 9839   2.123   4.099   8.941 -0.4361 -1.1489 -0.8737
   98OSM   C17F 9840   2.242   4.216   8.827  0.3479  0.1788  0.0194
   98OSM   H17F 9841   2.202   4.171   8.733 -1.0542 -0.5117  0.9142
   98OSM   H17G 9842   2.339   4.167   8.850 -0.2106 -1.1200 -0.3015
   98OSM   C18F 9843   2.266   4.364   8.790 -0.0741 -0.1391 -0.5403
   98OSM   H18F 9844   2.348   4.422   8.837 -0.9090  0.5812  0.0555
   98OSM   H18G 9845   2.174   4.425   8.796  0.7553  1.1899 -0.8776
   98OSM   H18H 9846   2.297   4.367   8.683  2.1057 -0.7723  0.0134
   99OSM      N 9847   6.565   5.097  11.012 -0.0912 -0.5513  0.2249
   99OSM    C15 9848   6.583   5.229  11.083 -0.2146  0.2927 -0.3451
   99OSM   H15A 9849   6.662   5.225  11.157  1.9067 -0.1595 -2.5127
   99OSM   H15B 9850   6.498   5.268  11.137  0.0852  1.0038 -0.3730
   99OSM   H15C 9851   6.609   5.304  11.010 -1.4343  0.9439 -0.1411
   99OSM    C14 9852   6.694   5.083  10.936  0.2042  0.2074  0.0484
   99OSM   H14A 9853   6.704   4.994  10.876  0.8470  0.9796 -1.0339
   99OSM   H14B 9854   6.775   5.082  11.008 -1.1539 -1.5805  1.6455
   99OSM   H14C 9855   6.702   5.160  10.861 -0.2240  0.1937 -0.0117
   99OSM    C13 9856   6.557   4.990  11.120  0.0453  0.5956  0.1184
   99OSM   H13A 9857   6.544   4.893  11.074  0.0166  1.8688 -2.8455
   99OSM   H13B 9858   6.476   5.013  11.187 -1.0522  0.3889 -1.0883
   99OSM   H13C 9859   6.651   4.982  11.172 -0.5190 -0.4157  1.0358
   99OSM    C12 9860   6.455   5.103  10.914 -0.3507 -0.2394 -0.3348
   99OSM   H12A 9861   6.364   5.120  10.971  0.0648  0.1440  0.2255
   99OSM   H12B 9862   6.451   5.005  10.868  3.3244 -2.0441  2.5773
   99OSM    C11 9863   6.447   5.213  10.803  0.7067 -0.9949 -0.3745
   99OSM   H11A 9864   6.369   5.195  10.727  1.1424 -3.0096 -0.3891
   99OSM   H11B 9865   6.540   5.214  10.743  0.1675 -1.0769 -1.2187
   99OSM      P 9866   6.289   5.382  10.937  0.1307  0.2623  0.0833
   99OSM    O13 9867   6.237   5.277  11.023  0.3689 -0.5848 -0.0651
   99OSM    O14 9868   6.316   5.507  11.004 -0.3950 -0.7798  0.2071
   99OSM    O11 9869   6.195   5.417  10.820 -0.1257 -0.2544 -0.0468
   99OSM    O12 9870   6.414   5.339  10.863  0.2625 -0.2406 -0.2532
   99OSM    C1S 9871   6.234   5.502  10.712  0.1010 -0.5069  0.3429
   99OSM    H1S 9872   6.337   5.542  10.724  0.5546 -1.0637 -1.3704
   99OSM    H1T 9873   6.168   5.591  10.707  1.0886  0.2479  0.3449
   99OSM     NF 9874   6.226   5.496  10.449 -0.1344  1.0046 -0.7273
   99OSM    HNF 9875   6.136   5.517  10.414 -1.4906 -2.1350  0.5092
   99OSM    C2S 9876   6.216   5.416  10.572 -0.6787  0.0869  0.4229
   99OSM    H2S 9877   6.299   5.343  10.578  0.2610  1.2615  3.2741
   99OSM    C3S 9878   6.083   5.327  10.576  1.0115 -0.3588  0.1709
   99OSM    H3S 9879   5.997   5.394  10.593  2.4731  1.1776  1.9520
   99OSM     O3 9880   6.063   5.231  10.681 -0.1333 -0.2473  0.2794
   99OSM    HO3 9881   6.122   5.266  10.748  0.0391  0.7402 -0.3674
   99OSM    C4S 9882   6.047   5.245  10.449 -0.6045  0.1025  0.3121
   99OSM    H4S 9883   6.135   5.212  10.391 -1.3168  1.2433 -1.5105
   99OSM    C5S 9884   5.926   5.213  10.395 -0.3749 -0.4758  0.1186
   99OSM    H5S 9885   5.834   5.251  10.442  0.0161 -1.2359  1.5556
   99OSM    C6S 9886   5.902   5.139  10.266  0.2993  0.0647 -0.0647
   99OSM    H6S 9887   5.797   5.102  10.257  0.4087 -0.5983  1.1639
   99OSM    H6T 9888   5.972   5.054  10.258 -0.6140 -0.7760  0.5835
   99OSM    C7S 9889   5.913   5.229  10.141  0.8788 -0.9598 -0.0835
   99OSM    H7S 9890   6.015   5.273  10.143 -0.1726  1.7416 -0.9749
   99OSM    H7T 9891   5.846   5.316  10.157 -0.9005 -2.3191  0.1855
   99OSM    C8S 9892   5.888   5.156  10.010  0.2895  0.1221 -0.8707
   99OSM    H8S 9893   5.785   5.117   9.993  1.2942 -2.1626 -2.0998
   99OSM    H8T 9894   5.960   5.073  10.023 -0.5318 -0.3850  0.8171
   99OSM    C9S 9895   5.926   5.252   9.890  0.0288  0.7821 -0.2960
   99OSM    H9S 9896   6.014   5.315   9.915  0.7450 -0.9177  1.8474
   99OSM    H9T 9897   5.845   5.325   9.868  1.3980  1.9554 -1.6569
   99OSM   C10S 9898   5.961   5.168   9.762  0.2127  0.8399  0.0591
   99OSM   H10S 9899   6.037   5.091   9.786  0.2000  0.3509 -1.3976
   99OSM   H10T 9900   6.004   5.231   9.682  1.2951  0.0217 -0.0114
   99OSM   C11S 9901   5.834   5.108   9.698 -0.4076  0.2946  0.7595
   99OSM   H11S 9902   5.758   5.189   9.703  1.3559  1.9679  1.9990
   99OSM   H11T 9903   5.796   5.025   9.760 -1.0906  0.2502  0.2952
   99OSM   C12S 9904   5.856   5.045   9.562  0.7552 -0.2954 -0.7074
   99OSM   H12S 9905   5.881   5.127   9.491  2.3254  0.9443  1.1576
   99OSM   H12T 9906   5.945   4.979   9.547 -0.1997 -1.6490 -0.5900
   99OSM   C13S 9907   5.732   4.971   9.513 -0.3713 -0.3057 -0.0747
   99OSM   H13S 9908   5.705   4.887   9.581  1.4411 -1.0454 -0.2357
   99OSM   H13T 9909   5.765   4.923   9.419  1.9402 -0.5979  0.8130
   99OSM   C14S 9910   5.616   5.058   9.491  0.4991 -0.3583  0.0394
   99OSM   H14S 9911   5.647   5.139   9.422 -1.1961  0.2481 -0.0614
   99OSM   H14T 9912   5.587   5.092   9.592 -1.7858 -0.8563 -0.4024
   99OSM   C15S 9913   5.491   4.987   9.430  0.1980 -0.4510  0.0160
   99OSM   H15S 9914   5.514   4.951   9.327 -1.3664 -1.4216 -0.0319
   99OSM   H15T 9915   5.415   5.065   9.409 -1.4305 -1.9103  0.2451
   99OSM   C16S 9916   5.433   4.875   9.513  0.4697  0.7277 -0.9702
   99OSM   H16S 9917   5.511   4.798   9.531 -1.0126 -0.9139 -1.3266
   99OSM   H16T 9918   5.358   4.826   9.447 -1.4721  0.3784  1.3537
   99OSM   C17S 9919   5.368   4.918   9.640 -0.3736  0.0914 -0.4420
   99OSM   H17S 9920   5.306   5.008   9.622 -0.0508  0.3936 -0.0789
   99OSM   H17T 9921   5.452   4.940   9.710 -0.7737  1.3450 -0.3273
   99OSM   C18S 9922   5.279   4.809   9.706  0.0172 -0.5315  0.4455
   99OSM   H18S 9923   5.268   4.825   9.816  2.6373 -1.7621  0.9654
   99OSM   H18T 9924   5.325   4.708   9.704 -0.6419 -0.8270 -0.8499
   99OSM   H18U 9925   5.181   4.814   9.655  0.9913 -0.6054 -1.5486
   99OSM    C1F 9926   6.340   5.547  10.404  0.5629 -0.0833 -0.1578
   99OSM     OF 9927   6.446   5.546  10.471  0.3029  0.3845 -0.2088
   99OSM    C2F 9928   6.336   5.616  10.277 -0.1900 -0.1947  0.4498
   99OSM    H2F 9929   6.294   5.719  10.285  1.7633  0.7260 -0.4075
   99OSM    H2G 9930   6.279   5.560  10.200  0.6345 -0.3430 -0.0705
   99OSM    C3F 9931   6.479   5.651  10.225  0.1070  0.5692  0.1783
   99OSM    H3F 9932   6.513   5.727  10.298 -1.3005  0.9552  0.4623
   99OSM    H3G 9933   6.555   5.570  10.230 -0.0232  0.4270 -0.1667
   99OSM    C4F 9934   6.468   5.711  10.086  0.3216  0.4165 -0.2513
   99OSM    H4F 9935   6.417   5.810  10.088  1.4835  1.0195  0.0744
   99OSM    H4G 9936   6.397   5.645  10.032 -0.9793  1.1590  0.4774
   99OSM    C5F 9937   6.600   5.736  10.009  0.3976  0.0304  0.0829
   99OSM    H5F 9938   6.656   5.641  10.005  0.7051  0.2321 -0.3545
   99OSM    H5G 9939   6.670   5.795  10.072  0.8728  1.0699 -1.3714
   99OSM    C6F 9940   6.580   5.795   9.869  0.3072 -0.2171  0.1229
   99OSM    H6F 9941   6.542   5.899   9.875 -3.2896 -1.3713 -0.2666
   99OSM    H6G 9942   6.500   5.733   9.824  0.1806 -1.4670  1.9233
   99OSM    C7F 9943   6.713   5.778   9.783  0.6161 -0.0360 -0.2650
   99OSM    H7F 9944   6.743   5.671   9.780  1.2062  0.1428 -2.0984
   99OSM    H7G 9945   6.802   5.819   9.836  0.0055  2.9587 -1.3424
   99OSM    C8F 9946   6.692   5.839   9.639 -0.0465 -0.3387  0.2844
   99OSM    H8F 9947   6.787   5.888   9.606 -0.2550  0.4843  0.8752
   99OSM    H8G 9948   6.617   5.922   9.634  1.6104  1.2552  0.7441
   99OSM    C9F 9949   6.644   5.740   9.539 -0.4099 -0.1960 -0.3961
   99OSM    H9F 9950   6.614   5.642   9.580 -0.8457  0.3700  0.6501
   99OSM   C10F 9951   6.643   5.757   9.409 -0.4541 -0.2203  0.6613
   99OSM   H10F 9952   6.620   5.668   9.349  3.7723 -1.8902  1.1482
   99OSM   C11F 9953   6.684   5.884   9.326 -0.2007  0.2478  0.2112
   99OSM   H11F 9954   6.761   5.937   9.388 -0.0361 -1.3160  1.3964
   99OSM   H11G 9955   6.600   5.957   9.321 -0.5813 -0.2825 -2.9458
   99OSM   C12F 9956   6.737   5.874   9.183  0.2807  0.3884 -0.2228
   99OSM   H12F 9957   6.673   5.829   9.104  3.0868 -1.4389 -1.6241
   99OSM   H12G 9958   6.832   5.819   9.198 -0.3868 -0.0236  3.2282
   99OSM   C13F 9959   6.792   6.014   9.128 -0.4011  0.1024  0.4847
   99OSM   H13F 9960   6.876   6.045   9.193 -1.5769  1.0112  1.6148
   99OSM   H13G 9961   6.709   6.086   9.145  0.6859  1.6881 -0.5415
   99OSM   C14F 9962   6.836   6.012   8.981 -0.0691  0.1937 -0.1340
   99OSM   H14F 9963   6.765   5.945   8.929 -0.2732 -1.4368  2.1031
   99OSM   H14G 9964   6.933   5.959   8.970 -1.6572 -2.6571 -1.5452
   99OSM   C15F 9965   6.830   6.159   8.927 -0.0045  0.4652 -0.2046
   99OSM   H15F 9966   6.917   6.215   8.969  0.8069 -1.0611  0.2596
   99OSM   H15G 9967   6.740   6.216   8.955  1.6983  2.3053  1.9039
   99OSM   C16F 9968   6.845   6.156   8.768 -0.7514 -0.5062  0.3152
   99OSM   H16F 9969   6.784   6.074   8.723  0.3758 -1.4959  0.5261
   99OSM   H16G 9970   6.946   6.117   8.742 -0.6069 -0.6955  1.1449
   99OSM   C17F 9971   6.824   6.292   8.700  0.7183 -0.2788 -0.1349
   99OSM   H17F 9972   6.821   6.280   8.589  0.6198 -1.0851 -0.0498
   99OSM   H17G 9973   6.913   6.352   8.728  0.8865  0.1482 -1.5003
   99OSM   C18F 9974   6.693   6.376   8.734 -0.3486 -0.7576  0.4141
   99OSM   H18F 9975   6.696   6.406   8.841 -0.0807 -0.0593  0.2153
   99OSM   H18G 9976   6.602   6.316   8.710 -1.0126  0.9217 -1.5258
   99OSM   H18H 9977   6.684   6.466   8.670  1.1681  0.5509  1.9626
  100OSM      N 9978   6.483   4.503  10.478  0.9852  0.2582 -0.5399
  100OSM    C15 9979   6.496   4.374  10.557 -0.0763  0.3122 -0.1478
  100OSM   H15A 9980   6.463   4.283  10.510 -1.0760 -1.0096  2.9232
  100OSM   H15B 9981   6.455   4.392  10.655  2.3129  0.3321  0.9028
  100OSM   H15C 9982   6.603   4.363  10.565  0.0481 -1.1479 -2.7022
  100OSM    C14 9983   6.531   4.471  10.345 -0.1787 -0.1511 -0.2547
  100OSM   H14A 9984   6.483   4.381  10.312 -0.4595 -0.3798  0.7594
  100OSM   H14B 9985   6.636   4.444  10.344 -0.5754 -1.8296  0.8075
  100OSM   H14C 9986   6.508   4.543  10.267 -0.3778  1.0453  0.8696
  100OSM    C13 9987   6.334   4.535  10.478  0.4611 -0.3453 -0.4041
  100OSM   H13A 9988   6.324   4.625  10.418 -0.0839 -0.1640 -0.0423
  100OSM   H13B 9989   6.291   4.559  10.574 -2.4040  1.3620 -2.0022
  100OSM   H13C 9990   6.283   4.450  10.434 -0.3465  0.6617 -1.4756
  100OSM    C12 9991   6.567   4.628  10.521  0.1848  0.4617  0.3560
  100OSM   H12A 9992   6.538   4.656  10.621  2.4027 -0.4735  1.3310
  100OSM   H12B 9993   6.543   4.703  10.447  2.4509 -0.8184 -1.8457
  100OSM    C11 9994   6.718   4.601  10.531  1.2098 -0.0796  0.3923
  100OSM   H11A 9995   6.774   4.696  10.536  1.5524 -0.3110  1.0166
  100OSM   H11B 9996   6.753   4.550  10.438 -1.6785  1.0205 -1.4565
  100OSM      P 9997   6.876   4.556  10.728 -0.0908 -0.0851  0.0608
  100OSM    O13 9998   6.861   4.688  10.803  0.2116 -0.1533 -0.0735
  100OSM    O14 9999   6.922   4.442  10.806 -0.2123 -0.2982 -0.4525
  100OSM    O1110000   6.990   4.579  10.621  0.0884  0.7532 -0.2778
  100OSM    O1210001   6.747   4.520  10.649 -0.5030 -0.3090  0.2633
  100OSM    C1S10002   7.088   4.471  10.596  0.1487 -0.1859 -0.4816
  100OSM    H1S10003   7.048   4.368  10.615 -0.9417  0.3287  0.1058
  100OSM    H1T10004   7.176   4.491  10.660 -1.5813  3.0614  1.1236
  100OSM     NF10005   7.186   4.334  10.432  0.0014 -0.5354 -0.3422
  100OSM    HNF10006   7.286   4.332  10.435  0.0525 -0.7887  4.0950
  100OSM    C2S10007   7.129   4.462  10.446 -0.1382 -0.5587 -0.6760
  100OSM    H2S10008   7.039   4.477  10.383 -1.3324 -0.3860  0.9880
  100OSM    C3S10009   7.224   4.584  10.406 -0.8490  0.8996 -0.3856
  100OSM    H3S10010   7.317   4.577  10.466 -1.7238 -0.8627  0.8611
  100OSM     O310011   7.165   4.711  10.439 -0.0034  0.5300  0.4357
  100OSM    HO310012   7.083   4.699  10.487 -1.4308  1.0353 -1.7412
  100OSM    C4S10013   7.272   4.573  10.259  0.6854 -0.0412 -0.2485
  100OSM    H4S10014   7.335   4.484  10.249  1.5145  0.0668  2.9227
  100OSM    C5S10015   7.227   4.656  10.164  0.4920  0.5525  0.3378
  100OSM    H5S10016   7.152   4.730  10.196 -0.3910  1.0632 -2.5933
  100OSM    C6S10017   7.267   4.649  10.016  0.5823 -0.1191  0.1734
  100OSM    H6S10018   7.284   4.754   9.983  1.5769 -0.4867 -0.5247
  100OSM    H6T10019   7.170   4.618   9.971  0.1270 -1.6102  2.0435
  100OSM    C7S10020   7.389   4.573   9.982 -0.8349  0.3706  0.2789
  100OSM    H7S10021   7.387   4.462   9.991 -3.4734  0.3744  0.6436
  100OSM    H7T10022   7.482   4.608  10.031 -1.4739 -1.0491  2.6879
  100OSM    C8S10023   7.429   4.613   9.840  0.1456 -0.4221  0.2613
  100OSM    H8S10024   7.524   4.567   9.805 -0.7370 -2.4761  0.4759
  100OSM    H8T10025   7.448   4.722   9.855 -0.9746 -0.4302  2.0379
  100OSM    C9S10026   7.319   4.575   9.745  0.6067 -0.2737 -0.2015
  100OSM    H9S10027   7.252   4.498   9.790  0.1395  0.7911  0.9912
  100OSM    H9T10028   7.363   4.511   9.665 -2.5021 -0.4021 -1.9564
  100OSM   C10S10029   7.238   4.688   9.673  0.1733 -0.2998 -1.0210
  100OSM   H10S10030   7.216   4.774   9.739  0.7171 -1.1636  0.3323
  100OSM   H10T10031   7.143   4.644   9.636  0.2953  1.1526 -3.2254
  100OSM   C11S10032   7.308   4.745   9.548  0.1089 -0.5328 -0.0396
  100OSM   H11S10033   7.345   4.670   9.475 -0.3818 -0.8408  0.0201
  100OSM   H11T10034   7.397   4.800   9.585  0.2317 -0.4140 -0.4993
  100OSM   C12S10035   7.220   4.855   9.470 -0.2095  0.0030 -0.2960
  100OSM   H12S10036   7.235   4.961   9.497  1.0175 -0.2111 -0.0504
  100OSM   H12T10037   7.115   4.827   9.491  0.0858  0.8779  2.7710
  100OSM   C13S10038   7.224   4.854   9.326  0.3322 -0.5623  0.6338
  100OSM   H13S10039   7.139   4.910   9.281  0.0948 -2.0017 -0.7918
  100OSM   H13T10040   7.209   4.752   9.285 -0.1311 -0.5059  0.6564
  100OSM   C14S10041   7.364   4.899   9.269  0.3523  0.2631  0.0793
  100OSM   H14S10042   7.434   4.832   9.323  1.0461 -1.1071 -2.3548
  100OSM   H14T10043   7.404   4.999   9.297  1.0117  0.1713 -0.5036
  100OSM   C15S10044   7.381   4.870   9.120  0.4436 -0.4481  0.5847
  100OSM   H15S10045   7.358   4.765   9.093 -2.0479  0.2352 -0.2342
  100OSM   H15T10046   7.489   4.883   9.099  0.8800 -0.7960  2.4750
  100OSM   C16S10047   7.278   4.945   9.028 -0.3892 -0.1117 -0.2727
  100OSM   H16S10048   7.278   5.048   9.069  0.1099  0.0821 -0.7480
  100OSM   H16T10049   7.182   4.890   9.026  0.6178 -2.1435  1.9826
  100OSM   C17S10050   7.336   4.939   8.885  0.4781 -0.4288  0.8632
  100OSM   H17S10051   7.361   4.832   8.865  0.7977 -0.2353  0.2343
  100OSM   H17T10052   7.426   5.002   8.870  2.1102 -3.1088 -1.5779
  100OSM   C18S10053   7.227   4.974   8.780 -0.0276 -0.5678 -0.3280
  100OSM   H18S10054   7.186   4.892   8.716 -1.4896  1.5459 -2.2705
  100OSM   H18T10055   7.268   5.042   8.702  2.8676 -0.1813  1.3976
  100OSM   H18U10056   7.142   5.026   8.829 -1.2390 -1.3512 -1.5110
  100OSM    C1F10057   7.130   4.214  10.422  0.4746  0.3963  0.1925
  100OSM     OF10058   7.007   4.212  10.400 -0.0008 -0.1630  0.1059
  100OSM    C2F10059   7.216   4.099  10.435 -0.0183  0.0845 -0.4312
  100OSM    H2F10060   7.235   4.079  10.542 -3.5165  0.7748  0.4635
  100OSM    H2G10061   7.309   4.114  10.377 -0.4345  0.4852 -1.0182
  100OSM    C3F10062   7.133   3.966  10.408  0.2857  0.5249 -0.4147
  100OSM    H3F10063   7.034   3.977  10.456  0.3476  2.9733 -0.7458
  100OSM    H3G10064   7.182   3.872  10.442  0.5046  0.2446 -1.4689
  100OSM    C4F10065   7.098   3.937  10.262 -0.7958 -0.1864  0.5547
  100OSM    H4F10066   7.051   4.025  10.211  0.0071 -0.8565 -1.4099
  100OSM    H4G10067   7.010   3.869  10.258 -1.6885  0.8724  1.1394
  100OSM    C5F10068   7.220   3.893  10.182  0.2874 -0.5238  0.2593
  100OSM    H5F10069   7.281   3.813  10.228 -0.2077 -1.6580 -0.9826
  100OSM    H5G10070   7.281   3.984  10.164  0.6880 -0.3562  2.2078
  100OSM    C6F10071   7.160   3.837  10.053  0.0259 -0.4515 -0.5579
  100OSM    H6F10072   7.137   3.928   9.993 -2.3032  0.6972  1.8558
  100OSM    H6G10073   7.065   3.784  10.072 -0.9687  1.2865 -0.4346
  100OSM    C7F10074   7.267   3.754   9.980 -0.1469 -0.2909  0.1278
  100OSM    H7F10075   7.287   3.665  10.044 -0.6027 -0.9443 -0.6196
  100OSM    H7G10076   7.353   3.824   9.980 -1.2112  1.1974  3.1731
  100OSM    C8F10077   7.221   3.707   9.840  0.2074  0.7328 -0.2728
  100OSM    H8F10078   7.166   3.797   9.804  1.1798  1.0332 -1.0562
  100OSM    H8G10079   7.147   3.624   9.849 -0.1716  0.8657 -1.8957
  100OSM    C9F10080   7.339   3.677   9.753 -0.2144 -0.3532 -0.2525
  100OSM    H9F10081   7.419   3.611   9.790  0.4071  1.0093  0.8966
  100OSM   C10F10082   7.366   3.738   9.636 -0.3103 -0.2310 -0.8620
  100OSM   H10F10083   7.454   3.699   9.582  0.7208  1.0443 -0.1658
  100OSM   C11F10084   7.296   3.851   9.573 -0.5043  0.3948 -0.2600
  100OSM   H11F10085   7.348   3.949   9.581 -0.2601  0.3996 -1.6905
  100OSM   H11G10086   7.190   3.858   9.607 -0.1272 -0.0089  1.0529
  100OSM   C12F10087   7.283   3.827   9.425  0.7039 -0.0733  0.1488
  100OSM   H12F10088   7.216   3.909   9.392  1.5200  0.8388  0.7105
  100OSM   H12G10089   7.232   3.730   9.404 -0.8751  0.9900 -1.2214
  100OSM   C13F10090   7.419   3.850   9.360  0.5882 -0.0894  0.2376
  100OSM   H13F10091   7.447   3.751   9.318 -0.1717  0.7372 -2.4210
  100OSM   H13G10092   7.495   3.895   9.427 -0.0590  3.5591 -1.2402
  100OSM   C14F10093   7.407   3.946   9.238  0.0486  0.1500 -0.6390
  100OSM   H14F10094   7.360   4.042   9.267  1.5534  1.3282 -1.9080
  100OSM   H14G10095   7.338   3.890   9.170 -1.9515  0.9774  0.6241
  100OSM   C15F10096   7.538   3.966   9.150 -0.0907  0.7260  0.0893
  100OSM   H15F10097   7.627   3.972   9.217 -0.6941 -0.4344  1.0317
  100OSM   H15G10098   7.539   4.056   9.084 -0.5574  0.5006 -0.2317
  100OSM   C16F10099   7.553   3.860   9.041 -0.1152 -0.1775  0.9082
  100OSM   H16F10100   7.460   3.857   8.980  0.9059  1.7914 -0.8777
  100OSM   H16G10101   7.556   3.765   9.098  0.1033 -0.6296  0.1429
  100OSM   C17F10102   7.679   3.880   8.945 -0.3406 -0.0047 -0.6359
  100OSM   H17F10103   7.771   3.849   9.000  0.1800  1.0933 -0.8717
  100OSM   H17G10104   7.690   3.986   8.915  3.2224  0.3206  1.2681
  100OSM   C18F10105   7.683   3.800   8.817  0.0864 -0.0681  0.1964
  100OSM   H18F10106   7.605   3.842   8.750 -1.0135  1.5191  2.3206
  100OSM   H18G10107   7.677   3.693   8.844 -0.6978 -0.7765 -2.5559
  100OSM   H18H10108   7.783   3.812   8.771  0.2850 -0.1111  0.6067
  101OSM      N10109   3.480   5.740  10.650  1.3861 -0.2993  0.4619
  101OSM    C1510110   3.559   5.826  10.556  0.6493 -0.7265  0.1548
  101OSM   H15A10111   3.519   5.926  10.543 -0.5524 -1.0102  1.4184
  101OSM   H15B10112   3.571   5.776  10.461 -1.3236 -2.0666  0.5606
  101OSM   H15C10113   3.654   5.843  10.606 -0.3399  0.5579  1.7143
  101OSM    C1410114   3.341   5.741  10.596  0.4237 -0.3069 -0.2050
  101OSM   H14A10115   3.288   5.835  10.600  0.6779 -0.1421 -0.6515
  101OSM   H14B10116   3.287   5.668  10.654  1.1560 -1.7615 -1.2884
  101OSM   H14C10117   3.333   5.699  10.496  1.6060 -1.7327  0.2557
  101OSM    C1310118   3.538   5.602  10.658 -0.3802  0.2561  0.0905
  101OSM   H13A10119   3.479   5.536  10.721  0.5213 -0.5967  0.0717
  101OSM   H13B10120   3.638   5.599  10.698  0.2336  0.6535 -1.3603
  101OSM   H13C10121   3.533   5.551  10.562 -0.3107  0.3264  0.0507
  101OSM    C1210122   3.479   5.802  10.794 -0.4338 -0.0791  0.2127
  101OSM   H12A10123   3.437   5.728  10.861  0.3349 -0.3697  0.3896
  101OSM   H12B10124   3.422   5.894  10.798  0.0970  0.2074  1.7158
  101OSM    C1110125   3.613   5.842  10.861 -0.4375  0.3533 -0.8771
  101OSM   H11A10126   3.594   5.892  10.958  0.0328  2.7767 -1.9525
  101OSM   H11B10127   3.665   5.919  10.799  1.0570 -1.2517 -1.7149
  101OSM      P10128   3.851   5.724  10.826  0.1265 -0.1574  0.3009
  101OSM    O1310129   3.933   5.830  10.883  0.4539 -0.0605 -0.6848
  101OSM    O1410130   3.897   5.583  10.853  0.2372 -0.1614  0.1838
  101OSM    O1110131   3.841   5.747  10.667 -0.2329  0.3250 -0.3890
  101OSM    O1210132   3.701   5.732  10.871  0.0224 -0.1651  0.0020
  101OSM    C1S10133   3.927   5.672  10.583  0.1453  0.2444 -0.6508
  101OSM    H1S10134   3.900   5.565  10.594  1.1398  0.0308 -0.2306
  101OSM    H1T10135   4.031   5.668  10.621  0.3035  0.2328 -1.0800
  101OSM     NF10136   3.988   5.632  10.340 -0.0392 -0.6767 -0.6673
  101OSM    HNF10137   4.075   5.670  10.310 -0.2417 -0.3988 -0.9133
  101OSM    C2S10138   3.925   5.723  10.434 -0.2539  0.1111 -0.2050
  101OSM    H2S10139   3.820   5.736  10.400 -1.2601 -1.4438  2.0566
  101OSM    C3S10140   3.989   5.872  10.436  0.6452  0.9011  0.6258
  101OSM    H3S10141   4.099   5.865  10.422  0.6334  0.6451  0.6582
  101OSM     O310142   3.986   5.944  10.558 -0.3803 -0.0020 -0.1869
  101OSM    HO310143   3.944   5.883  10.619 -1.3949  1.3114  0.4754
  101OSM    C4S10144   3.939   5.960  10.327 -0.4861 -0.0703 -0.5805
  101OSM    H4S10145   3.830   5.955  10.313 -1.0211  2.0505  1.9958
  101OSM    C5S10146   4.023   6.032  10.242  0.1100 -0.0508 -0.2409
  101OSM    H5S10147   4.132   6.033  10.254  0.1884 -0.2857 -0.8745
  101OSM    C6S10148   3.962   6.110  10.128 -0.2074  0.6723 -0.1017
  101OSM    H6S10149   3.992   6.216  10.134 -1.6732  1.0760  0.5956
  101OSM    H6T10150   3.853   6.118  10.145 -0.2985 -1.3127  0.5674
  101OSM    C7S10151   3.968   6.037   9.987  0.7443  0.4604 -0.0300
  101OSM    H7S10152   3.931   5.932   9.983  1.4988  0.2243 -1.4428
  101OSM    H7T10153   4.072   6.028   9.948  0.0521 -0.3010 -1.8468
  101OSM    C8S10154   3.884   6.113   9.887 -0.3564 -0.1676 -0.0307
  101OSM    H8S10155   3.901   6.221   9.909 -1.2722 -0.3974  2.0166
  101OSM    H8T10156   3.780   6.096   9.921 -0.7745  0.1779 -1.1039
  101OSM    C9S10157   3.915   6.079   9.740 -0.0846 -0.2535  0.0320
  101OSM    H9S10158   4.024   6.069   9.724  0.1268 -0.9211  1.7071
  101OSM    H9T10159   3.865   6.146   9.666 -0.7149 -2.5235 -1.6992
  101OSM   C10S10160   3.847   5.949   9.697 -0.2924  0.3854  0.2170
  101OSM   H10S10161   3.738   5.967   9.705 -0.0825  1.4387  0.7904
  101OSM   H10T10162   3.884   5.866   9.761  0.7764  0.4777 -0.2627
  101OSM   C11S10163   3.880   5.898   9.555  0.7311 -0.0768 -0.8362
  101OSM   H11S10164   3.862   5.789   9.553 -0.3646  0.0783 -0.3771
  101OSM   H11T10165   3.984   5.921   9.525 -0.1235  1.2896 -3.0440
  101OSM   C12S10166   3.788   5.971   9.454  0.4281 -0.0487 -0.2820
  101OSM   H12S10167   3.822   6.075   9.441  3.1590 -0.9381 -0.9481
  101OSM   H12T10168   3.684   5.971   9.492  0.5153 -0.2211 -0.0362
  101OSM   C13S10169   3.769   5.896   9.322  0.0475  0.5964  0.5276
  101OSM   H13S10170   3.764   5.786   9.336  2.1651  0.3481 -0.2250
  101OSM   H13T10171   3.851   5.901   9.246 -1.3311 -3.0319 -1.4887
  101OSM   C14S10172   3.632   5.927   9.263 -0.3281  0.0391  0.0124
  101OSM   H14S10173   3.630   6.037   9.248 -2.8955  0.3472  1.7494
  101OSM   H14T10174   3.560   5.899   9.344 -0.4757 -1.2265 -0.5302
  101OSM   C15S10175   3.579   5.849   9.142  0.0890 -0.1171  0.4399
  101OSM   H15S10176   3.487   5.899   9.103  0.3723 -1.7423 -2.6357
  101OSM   H15T10177   3.543   5.755   9.187  0.6307 -0.7946 -0.5017
  101OSM   C16S10178   3.660   5.831   9.015 -0.2778  0.1784 -1.6725
  101OSM   H16S10179   3.741   5.757   9.032  0.7518  1.3647 -1.2277
  101OSM   H16T10180   3.707   5.927   8.985 -0.0927  1.0940  1.2168
  101OSM   C17S10181   3.576   5.780   8.902 -0.2369  0.8697 -0.0508
  101OSM   H17S10182   3.649   5.776   8.818  1.8115 -0.0473  1.6510
  101OSM   H17T10183   3.496   5.855   8.884 -1.6703 -0.4529  0.5635
  101OSM   C18S10184   3.498   5.650   8.926 -0.0288 -0.9167 -0.5401
  101OSM   H18S10185   3.456   5.624   8.826 -0.4803 -0.7811 -0.3888
  101OSM   H18T10186   3.426   5.656   9.010  2.5892  3.2680  1.7653
  101OSM   H18U10187   3.565   5.564   8.945  1.4415 -0.2372 -2.3037
  101OSM    C1F10188   3.936   5.518  10.302 -0.8954  0.4466  0.1025
  101OSM     OF10189   3.818   5.509  10.328 -0.8695 -0.4074 -0.1013
  101OSM    C2F10190   4.013   5.418  10.219  0.4358  0.5232  0.1753
  101OSM    H2F10191   4.122   5.431  10.235  0.3378  2.6136 -0.6064
  101OSM    H2G10192   4.006   5.465  10.118  1.1200 -1.2865 -0.7556
  101OSM    C3F10193   3.959   5.274  10.228  0.2763  0.7490 -0.4266
  101OSM    H3F10194   3.852   5.274  10.198  0.8664 -2.4586 -3.0996
  101OSM    H3G10195   3.963   5.238  10.333  1.5284 -1.2472 -1.1132
  101OSM    C4F10196   4.028   5.167  10.135  0.8356 -0.0434 -0.8148
  101OSM    H4F10197   3.989   5.070  10.171 -0.4244  1.3251  1.8134
  101OSM    H4G10198   4.139   5.172  10.145  0.7646  4.1866 -0.0925
  101OSM    C5F10199   4.005   5.189   9.988 -0.6264  0.1501 -0.2598
  101OSM    H5F10200   4.055   5.282   9.954  0.0064 -0.6849 -1.7175
  101OSM    H5G10201   3.898   5.206   9.964 -1.5618  0.1747  3.3186
  101OSM    C6F10202   4.056   5.068   9.908 -0.0376  1.1320 -0.1714
  101OSM    H6F10203   4.160   5.040   9.935 -1.4556 -3.3034  1.6562
  101OSM    H6G10204   3.997   4.977   9.934 -0.0009  0.6507 -1.7067
  101OSM    C7F10205   4.049   5.099   9.755 -0.0801 -0.1462 -0.9664
  101OSM    H7F10206   4.084   5.202   9.736  1.1139 -0.3273  0.0819
  101OSM    H7G10207   3.943   5.102   9.722 -0.2478  0.6139 -0.3676
  101OSM    C8F10208   4.128   4.995   9.676 -0.2952  0.5285 -0.0501
  101OSM    H8F10209   4.073   4.899   9.679  0.6434 -0.0817 -1.6027
  101OSM    H8G10210   4.226   4.970   9.721  0.0341 -0.4814 -1.2800
  101OSM    C9F10211   4.146   5.032   9.535  0.1813 -0.2003 -0.5049
  101OSM    H9F10212   4.212   5.118   9.516 -0.4595  0.3673 -0.2278
  101OSM   C10F10213   4.085   4.986   9.428 -0.1823 -0.2544 -0.6620
  101OSM   H10F10214   4.122   5.019   9.330  0.5944 -0.8348 -0.5710
  101OSM   C11F10215   3.988   4.871   9.426  0.0558  0.0120 -0.2686
  101OSM   H11F10216   3.901   4.909   9.369 -1.1956 -1.2789  0.6899
  101OSM   H11G10217   3.934   4.856   9.522 -0.8494  0.6746 -0.6614
  101OSM   C12F10218   4.025   4.730   9.361 -0.4952 -0.8588  0.4818
  101OSM   H12F10219   4.012   4.738   9.251 -2.3106  1.6580  0.7794
  101OSM   H12G10220   3.944   4.656   9.376 -1.7375  0.4167  0.2175
  101OSM   C13F10221   4.153   4.670   9.406 -0.2001 -0.0892  0.4620
  101OSM   H13F10222   4.137   4.668   9.516 -0.2272  4.2209  0.7340
  101OSM   H13G10223   4.240   4.738   9.394  0.4182 -0.6398  1.6525
  101OSM   C14F10224   4.178   4.537   9.334  0.0184 -0.9572 -0.0130
  101OSM   H14F10225   4.078   4.488   9.342 -0.9062  1.0854  2.2854
  101OSM   H14G10226   4.249   4.471   9.388  0.5969 -2.4333 -2.4286
  101OSM   C15F10227   4.229   4.545   9.189  0.3057  0.4548 -0.7379
  101OSM   H15F10228   4.334   4.582   9.184  0.5707  0.1501  1.5584
  101OSM   H15G10229   4.162   4.615   9.135  0.4498  0.2202 -1.2315
  101OSM   C16F10230   4.239   4.403   9.120 -0.1748  0.1535 -0.0167
  101OSM   H16F10231   4.144   4.355   9.151  0.5384 -2.1713 -1.2625
  101OSM   H16G10232   4.317   4.347   9.175 -1.2734  1.3553  2.9800
  101OSM   C17F10233   4.251   4.398   8.968  0.0935  0.2484  0.0787
  101OSM   H17F10234   4.353   4.428   8.935 -0.0542  2.5641  1.4311
  101OSM   H17G10235   4.183   4.475   8.925 -1.6634 -1.4259 -0.2568
  101OSM   C18F10236   4.235   4.259   8.911 -0.4819 -0.0745 -0.3195
  101OSM   H18F10237   4.286   4.255   8.812  2.4397 -2.4724  1.1192
  101OSM   H18G10238   4.127   4.231   8.908 -0.8048  0.9572  0.8132
  101OSM   H18H10239   4.286   4.190   8.981 -0.6863  0.3735  0.2800
  102OSM      N10240   5.720   5.413  10.844  0.8488  0.1232  0.8661
  102OSM    C1510241   5.673   5.498  10.958  0.0225 -0.1543  0.1782
  102OSM   H15A10242   5.716   5.597  10.962  0.5256 -0.3980  0.9055
  102OSM   H15B10243   5.688   5.457  11.056  1.3264 -0.3844 -0.1031
  102OSM   H15C10244   5.569   5.522  10.942 -0.0638 -0.6809 -0.0713
  102OSM    C1410245   5.843   5.334  10.877 -0.7252  0.3002  0.1974
  102OSM   H14A10246   5.924   5.394  10.915 -0.1044  1.0979 -2.1739
  102OSM   H14B10247   5.891   5.284  10.794  1.5692  0.7286  1.1717
  102OSM   H14C10248   5.833   5.251  10.945  0.7467 -1.0128 -1.1014
  102OSM    C1310249   5.621   5.308  10.816  0.2272 -0.8828 -0.6777
  102OSM   H13A10250   5.594   5.260  10.909  0.2748  0.5268  0.0794
  102OSM   H13B10251   5.651   5.230  10.748 -1.0489 -1.6093 -0.4406
  102OSM   H13C10252   5.526   5.343  10.779  0.3223  0.7069  0.4754
  102OSM    C1210253   5.740   5.496  10.714  0.1699 -0.0594  0.1130
  102OSM   H12A10254   5.646   5.547  10.695  0.3478  1.3575  2.5917
  102OSM   H12B10255   5.745   5.431  10.628 -1.0705 -0.1085  0.0526
  102OSM    C1110256   5.842   5.608  10.725  0.5130 -0.5451 -0.0372
  102OSM   H11A10257   5.849   5.645  10.620 -2.1048 -0.3766 -0.2178
  102OSM   H11B10258   5.944   5.576  10.756  1.4028 -0.2123 -2.3848
  102OSM      P10259   5.882   5.829  10.871  0.3932  0.1498 -0.2234
  102OSM    O1310260   5.777   5.916  10.928  0.0565 -0.0084  0.0533
  102OSM    O1410261   5.986   5.784  10.968 -0.1580 -0.4063 -0.9804
  102OSM    O1110262   5.939   5.907  10.749 -0.3396  0.4376  0.1936
  102OSM    O1210263   5.798   5.709  10.815  0.2514 -0.4000  0.0117
  102OSM    C1S10264   5.846   5.934  10.636 -0.6341  0.2515 -0.1780
  102OSM    H1S10265   5.761   6.002  10.659 -0.8703 -0.5170  1.3593
  102OSM    H1T10266   5.805   5.835  10.606 -0.7315  0.1380  0.3213
  102OSM     NF10267   5.830   6.031  10.417 -0.0249  0.3104 -0.5570
  102OSM    HNF10268   5.806   5.952  10.361  0.1440 -0.7463  0.7969
  102OSM    C2S10269   5.929   5.988  10.519 -0.0788  0.2029  0.0969
  102OSM    H2S10270   5.987   6.072  10.564  0.1899 -1.0255  2.1475
  102OSM    C3S10271   6.031   5.881  10.472 -0.3675  0.5254 -0.7648
  102OSM    H3S10272   5.986   5.781  10.456 -0.3346 -0.0615  2.1695
  102OSM     O310273   6.142   5.858  10.565  0.6299  0.0778  0.0339
  102OSM    HO310274   6.119   5.876  10.657  0.8711 -0.9147  0.2990
  102OSM    C4S10275   6.101   5.918  10.345  0.4669  0.3169 -0.7103
  102OSM    H4S10276   6.062   5.867  10.256 -0.6495  1.3216 -0.8309
  102OSM    C5S10277   6.190   6.017  10.333  0.2238  0.0961 -0.7941
  102OSM    H5S10278   6.211   6.084  10.418  2.1168  0.2984 -1.3684
  102OSM    C6S10279   6.258   6.062  10.206  0.3816 -0.5203  0.1710
  102OSM    H6S10280   6.369   6.059  10.206  0.7880  3.5519 -3.8845
  102OSM    H6T10281   6.233   6.167  10.178  0.3225 -0.4433  0.5114
  102OSM    C7S10282   6.208   5.992  10.069  0.4063 -0.4753 -0.2690
  102OSM    H7S10283   6.099   6.014  10.065  0.4253 -0.2143  0.4842
  102OSM    H7T10284   6.234   5.884  10.070  0.2864 -0.5153  1.2251
  102OSM    C8S10285   6.272   6.057   9.940  0.5876  0.4523  0.3964
  102OSM    H8S10286   6.381   6.076   9.947  0.5632  1.6796 -1.6924
  102OSM    H8T10287   6.222   6.154   9.919 -1.2177 -0.4615  0.2703
  102OSM    C9S10288   6.240   5.952   9.830 -0.3456 -0.6951 -0.1830
  102OSM    H9S10289   6.132   5.928   9.834  0.1034 -3.6546 -2.0463
  102OSM    H9T10290   6.302   5.860   9.843  0.0087 -0.1161  2.7079
  102OSM   C10S10291   6.279   5.995   9.685  0.1036  0.3097  0.3683
  102OSM   H10S10292   6.388   5.992   9.662  0.3630  1.3533  1.3939
  102OSM   H10T10293   6.251   6.099   9.659 -0.3859  0.4106  1.2489
  102OSM   C11S10294   6.232   5.897   9.579 -0.0290  0.5866 -0.5400
  102OSM   H11S10295   6.122   5.881   9.584  0.0924 -0.2324 -0.3042
  102OSM   H11T10296   6.276   5.799   9.607 -0.3545  0.4068 -0.6484
  102OSM   C12S10297   6.261   5.921   9.434 -0.0118 -0.4995  0.6865
  102OSM   H12S10298   6.359   5.972   9.417 -0.4450 -0.3155 -1.6088
  102OSM   H12T10299   6.182   5.985   9.389 -0.3520  0.0360  2.0057
  102OSM   C13S10300   6.284   5.790   9.356  0.0735  0.7045  0.4362
  102OSM   H13S10301   6.186   5.739   9.365  1.1795 -1.6065  0.0165
  102OSM   H13T10302   6.358   5.729   9.412 -0.6502 -0.1452  0.4806
  102OSM   C14S10303   6.315   5.817   9.213 -0.0732  0.0672  0.0642
  102OSM   H14S10304   6.391   5.898   9.204 -1.5117  1.2277 -4.8335
  102OSM   H14T10305   6.222   5.853   9.164  0.0188  1.5521  0.9316
  102OSM   C15S10306   6.345   5.686   9.140  0.1073  0.6679  0.0085
  102OSM   H15S10307   6.265   5.613   9.163  1.4283 -0.7243  0.3145
  102OSM   H15T10308   6.436   5.641   9.186 -1.2599 -1.8341  0.4136
  102OSM   C16S10309   6.367   5.708   8.995 -0.5332  0.1591 -0.1689
  102OSM   H16S10310   6.459   5.769   8.983  0.7664 -1.7623 -0.4484
  102OSM   H16T10311   6.276   5.763   8.961 -1.1610 -0.5394  0.3495
  102OSM   C17S10312   6.402   5.581   8.920 -1.0198  0.0509  0.0451
  102OSM   H17S10313   6.498   5.550   8.967  0.8377  3.9568 -0.7011
  102OSM   H17T10314   6.425   5.610   8.815 -0.9307  1.3905  0.4167
  102OSM   C18S10315   6.304   5.465   8.923 -0.2748  0.2764 -0.3466
  102OSM   H18S10316   6.199   5.500   8.913 -1.4327 -2.8949 -0.5011
  102OSM   H18T10317   6.308   5.414   9.022 -1.3714  0.1522 -0.3484
  102OSM   H18U10318   6.332   5.393   8.843 -1.0217  1.7598 -2.0081
  102OSM    C1F10319   5.761   6.144  10.433 -0.9129 -0.3613 -0.2831
  102OSM     OF10320   5.798   6.235  10.511 -0.0549  0.1046 -0.1508
  102OSM    C2F10321   5.627   6.152  10.367  0.1062 -0.8300  1.0361
  102OSM    H2F10322   5.558   6.197  10.441  2.4065  1.0229  2.1647
  102OSM    H2G10323   5.594   6.052  10.331 -0.6429 -0.1377 -0.2905
  102OSM    C3F10324   5.635   6.243  10.235  0.3754 -0.2009  0.1462
  102OSM    H3F10325   5.662   6.347  10.263  0.3046  0.2118 -1.2581
  102OSM    H3G10326   5.535   6.235  10.188  0.3406 -2.2462  0.4872
  102OSM    C4F10327   5.737   6.196  10.125 -0.1067  0.0583 -0.2225
  102OSM    H4F10328   5.722   6.090  10.092  2.7357 -0.7397  0.7955
  102OSM    H4G10329   5.834   6.190  10.179 -1.4519  1.3030  2.5131
  102OSM    C5F10330   5.749   6.278  10.002  0.2414  0.2238 -0.6008
  102OSM    H5F10331   5.793   6.376  10.029 -1.0982  0.8174 -0.4889
  102OSM    H5G10332   5.651   6.276   9.950  0.3887  0.6672 -0.9008
  102OSM    C6F10333   5.853   6.211   9.914  0.4420  0.0841 -0.0035
  102OSM    H6F10334   5.813   6.114   9.877  1.1510 -0.1816 -0.0929
  102OSM    H6G10335   5.946   6.183   9.968  1.6123  2.2619 -0.7587
  102OSM    C7F10336   5.875   6.297   9.784 -0.3272  0.4352  0.4003
  102OSM    H7F10337   5.940   6.386   9.786  0.9882 -0.2904 -2.8846
  102OSM    H7G10338   5.773   6.318   9.745 -0.9361 -3.6445 -0.7502
  102OSM    C8F10339   5.943   6.205   9.675  0.0879  0.1340  0.1431
  102OSM    H8F10340   5.860   6.134   9.654 -0.2588  0.1222  1.4479
  102OSM    H8G10341   6.033   6.145   9.699  0.3159  0.4306  0.0413
  102OSM    C9F10342   5.973   6.269   9.537 -0.3697 -0.0772 -0.3247
  102OSM    H9F10343   6.043   6.354   9.540  2.9252 -2.6065  1.3772
  102OSM   C10F10344   5.925   6.237   9.417 -0.0050  0.0039  0.5778
  102OSM   H10F10345   5.961   6.298   9.332  1.0616  1.3325  1.9356
  102OSM   C11F10346   5.831   6.126   9.399  0.4812  0.2899  0.0471
  102OSM   H11F10347   5.745   6.135   9.469  1.4197 -0.7930  1.3852
  102OSM   H11G10348   5.869   6.029   9.436  0.2985  1.2455  3.0119
  102OSM   C12F10349   5.795   6.115   9.250  0.3569  0.1810  0.1966
  102OSM   H12F10350   5.765   6.210   9.202 -0.0784  0.8366  1.7198
  102OSM   H12G10351   5.700   6.061   9.234  0.5820 -0.5799  1.2956
  102OSM   C13F10352   5.893   6.025   9.177  0.5292  1.1404 -0.8428
  102OSM   H13F10353   5.904   5.934   9.240  3.1949  2.0898  0.2106
  102OSM   H13G10354   5.993   6.069   9.156  0.3696  1.3567 -1.1598
  102OSM   C14F10355   5.840   5.990   9.043 -0.1345  0.4484  0.8960
  102OSM   H14F10356   5.807   6.082   8.989  1.5204  0.2121 -0.6189
  102OSM   H14G10357   5.763   5.910   9.050  1.1101 -1.1203 -1.6680
  102OSM   C15F10358   5.951   5.922   8.956  0.0233 -0.2202  0.1248
  102OSM   H15F10359   5.978   5.827   9.009 -0.6630 -1.7067 -2.0380
  102OSM   H15G10360   6.047   5.978   8.961  0.8131 -1.4494 -0.5628
  102OSM   C16F10361   5.927   5.908   8.800  0.9369 -0.1017  0.3828
  102OSM   H16F10362   5.942   6.006   8.749 -1.0028  1.1117  1.9985
  102OSM   H16G10363   5.818   5.892   8.795  0.7290  1.1136  0.5418
  102OSM   C17F10364   6.001   5.792   8.727  0.0356  0.8670 -0.4626
  102OSM   H17F10365   6.110   5.812   8.740  0.5808 -2.0384  0.1480
  102OSM   H17G10366   5.981   5.812   8.619 -0.4169  1.2853 -0.3070
  102OSM   C18F10367   5.955   5.658   8.776 -0.6308  0.5108  0.0499
  102OSM   H18F10368   5.956   5.638   8.885 -2.4699 -0.5400 -0.0781
  102OSM   H18G10369   6.017   5.576   8.734 -5.7558 -1.4630 -4.9414
  102OSM   H18H10370   5.853   5.627   8.746  0.0763 -2.0601  0.0189
  103OSM      N10371   4.930   3.468  10.786 -0.3092 -0.2545 -0.7080
  103OSM    C1510372   5.067   3.516  10.839  0.3646  0.0959 -0.2934
  103OSM   H15A10373   5.135   3.531  10.757  2.5098 -0.6242  1.2634
  103OSM   H15B10374   5.120   3.450  10.906  1.1722  2.0013  1.0472
  103OSM   H15C10375   5.061   3.613  10.887  1.1457  0.4557 -0.9017
  103OSM    C1410376   4.843   3.449  10.902  0.2974  0.2151 -0.1032
  103OSM   H14A10377   4.887   3.402  10.989  3.1307  3.3571  0.3830
  103OSM   H14B10378   4.756   3.401  10.861  1.2493 -0.9535 -0.8187
  103OSM   H14C10379   4.819   3.544  10.946 -0.5647  0.0740 -0.2623
  103OSM    C1310380   4.890   3.587  10.704  0.2807  0.0066  0.5465
  103OSM   H13A10381   4.826   3.568  10.619 -0.2940  1.3619  0.6462
  103OSM   H13B10382   4.974   3.640  10.662  0.3146 -0.2791  0.2472
  103OSM   H13C10383   4.838   3.661  10.764 -0.8348 -0.4226  0.1295
  103OSM    C1210384   4.949   3.338  10.715 -0.0838  0.0457  0.0637
  103OSM   H12A10385   4.998   3.268  10.781 -0.7670  0.9110  1.5418
  103OSM   H12B10386   5.016   3.358  10.632 -0.0748  0.5417  0.1851
  103OSM    C1110387   4.820   3.277  10.655  0.4033  0.3517 -0.3338
  103OSM   H11A10388   4.853   3.190  10.594  2.1289  0.9409 -0.2875
  103OSM   H11B10389   4.771   3.349  10.587  1.5737  1.1377 -0.3719
  103OSM      P10390   4.755   3.120  10.847  0.0642  0.2702  0.1030
  103OSM    O1310391   4.898   3.124  10.885  0.0385  0.0824 -0.6995
  103OSM    O1410392   4.653   3.097  10.949 -0.1500 -0.1434  0.2341
  103OSM    O1110393   4.754   2.998  10.745  0.1166  0.3111  0.0087
  103OSM    O1210394   4.719   3.239  10.750 -0.1276 -0.0128  0.0716
  103OSM    C1S10395   4.641   2.969  10.661  0.1721 -0.4553 -0.7154
  103OSM    H1S10396   4.563   3.047  10.669 -0.7356 -1.5240  2.1581
  103OSM    H1T10397   4.592   2.878  10.702 -0.6142 -0.1543 -0.9791
  103OSM     NF10398   4.539   2.922  10.438 -0.0557  0.5780 -0.3585
  103OSM    HNF10399   4.513   2.828  10.421 -0.3857 -0.0207  2.9411
  103OSM    C2S10400   4.667   2.945  10.511  0.0784 -0.7948 -0.0336
  103OSM    H2S10401   4.721   3.032  10.470  0.2420 -1.4246 -1.2079
  103OSM    C3S10402   4.751   2.823  10.488 -0.2359  0.1273  0.0381
  103OSM    H3S10403   4.695   2.736  10.529 -0.6694  0.3339 -0.1081
  103OSM     O310404   4.864   2.827  10.571 -0.3320  0.3874  0.3049
  103OSM    HO310405   4.835   2.882  10.644  0.7045 -2.5581  3.1668
  103OSM    C4S10406   4.787   2.810  10.343 -0.0212 -0.2740  0.1801
  103OSM    H4S10407   4.707   2.768  10.281 -1.4117  2.3874  0.0089
  103OSM    C5S10408   4.903   2.841  10.283  0.1674  0.2781  0.5202
  103OSM    H5S10409   4.987   2.875  10.344  1.4364 -1.5231 -0.1411
  103OSM    C6S10410   4.939   2.827  10.141  0.3168 -0.5218  0.0429
  103OSM    H6S10411   4.852   2.779  10.092 -0.8172  0.6722  0.8417
  103OSM    H6T10412   5.022   2.753  10.135  0.3023 -0.5620  0.3220
  103OSM    C7S10413   4.998   2.952  10.072 -0.3292  0.8841 -0.4191
  103OSM    H7S10414   5.106   2.957  10.097 -0.2185 -1.1349 -0.3515
  103OSM    H7T10415   4.949   3.044  10.111 -1.1752  1.1075 -1.9186
  103OSM    C8S10416   4.967   2.958   9.922 -0.5351 -0.1660 -0.4554
  103OSM    H8S10417   4.987   3.064   9.896 -1.3133  0.7262  2.2449
  103OSM    H8T10418   4.863   2.931   9.893 -1.7212  1.2168  2.1890
  103OSM    C9S10419   5.067   2.878   9.843 -0.2878  0.5910  0.7247
  103OSM    H9S10420   5.055   2.768   9.855 -4.4694  0.6192 -1.2717
  103OSM    H9T10421   5.173   2.904   9.866 -0.0031 -0.2294  0.3825
  103OSM   C10S10422   5.049   2.900   9.688 -0.4103  0.0073  0.8039
  103OSM   H10S10423   5.038   3.010   9.678 -0.4191 -0.0981 -0.6035
  103OSM   H10T10424   4.947   2.859   9.669 -0.5718  0.4232  0.7687
  103OSM   C11S10425   5.150   2.827   9.603  0.3903  0.0659  0.1871
  103OSM   H11S10426   5.140   2.718   9.621  1.7261 -0.1766 -0.3859
  103OSM   H11T10427   5.252   2.868   9.618 -0.1780  2.3021 -1.5060
  103OSM   C12S10428   5.124   2.843   9.454  1.0186  0.1410 -0.2361
  103OSM   H12S10429   5.137   2.948   9.417  3.6392 -0.0736 -0.0940
  103OSM   H12T10430   5.015   2.825   9.440  1.1960  0.4884 -2.5235
  103OSM   C13S10431   5.212   2.750   9.375  0.2391 -0.4133  1.0426
  103OSM   H13S10432   5.185   2.647   9.406  1.5878 -0.9910  0.4311
  103OSM   H13T10433   5.321   2.756   9.396  0.3316 -2.8410  1.5542
  103OSM   C14S10434   5.179   2.756   9.221  0.2170 -0.7677 -0.0375
  103OSM   H14S10435   5.199   2.860   9.190  1.6747 -0.9107  0.3457
  103OSM   H14T10436   5.076   2.721   9.196  0.7096 -0.5350 -2.6422
  103OSM   C15S10437   5.273   2.659   9.143  0.5103  0.0804  0.4136
  103OSM   H15S10438   5.235   2.555   9.151 -0.7743  0.3767 -1.3689
  103OSM   H15T10439   5.381   2.661   9.169  0.4437 -2.9995  1.2529
  103OSM   C16S10440   5.271   2.697   8.991  0.7298  0.2303  0.6990
  103OSM   H16S10441   5.331   2.613   8.949  0.7043  0.1309  0.8595
  103OSM   H16T10442   5.309   2.800   8.979 -0.9197  0.9993  1.7131
  103OSM   C17S10443   5.133   2.689   8.920 -0.2600 -0.0604 -0.1636
  103OSM   H17S10444   5.137   2.712   8.811  0.4645 -1.3173 -0.4315
  103OSM   H17T10445   5.065   2.770   8.954  1.4165  0.6338  1.6549
  103OSM   C18S10446   5.065   2.556   8.940 -0.4683  0.0045  0.4367
  103OSM   H18S10447   4.980   2.531   8.874 -0.1186  0.3621 -0.1578
  103OSM   H18T10448   5.031   2.537   9.044 -0.0834  0.6554  0.6843
  103OSM   H18U10449   5.139   2.480   8.908  0.9055  0.7221  1.7278
  103OSM    C1F10450   4.452   3.021  10.420 -0.7284  0.1634  0.2497
  103OSM     OF10451   4.470   3.140  10.450 -0.3606  0.2357 -0.4242
  103OSM    C2F10452   4.325   2.983  10.354  0.6455  0.2205 -0.1680
  103OSM    H2F10453   4.299   3.075  10.298 -3.2085 -1.7830 -2.1011
  103OSM    H2G10454   4.243   2.973  10.429 -0.0015 -0.4333 -0.9445
  103OSM    C3F10455   4.330   2.867  10.258  0.3419 -1.1525 -0.2255
  103OSM    H3F10456   4.223   2.846  10.236  0.8536 -3.1332 -1.0868
  103OSM    H3G10457   4.376   2.781  10.311  0.7125 -0.1285  1.1575
  103OSM    C4F10458   4.391   2.895  10.119  0.0368  0.3234 -0.0333
  103OSM    H4F10459   4.494   2.933  10.132  0.0471 -0.1284  1.3791
  103OSM    H4G10460   4.330   2.967  10.060 -1.5027 -0.3476  0.6627
  103OSM    C5F10461   4.406   2.764  10.042 -0.0310  0.1157 -0.7734
  103OSM    H5F10462   4.310   2.725  10.002 -0.6357  0.8920 -0.1222
  103OSM    H5G10463   4.453   2.682  10.101  0.9590  1.2927  0.1176
  103OSM    C6F10464   4.497   2.785   9.920 -0.8931 -0.0507  0.6804
  103OSM    H6F10465   4.516   2.688   9.869 -1.9805 -0.0505  0.2524
  103OSM    H6G10466   4.593   2.826   9.957 -0.1688 -1.1587  0.1053
  103OSM    C7F10467   4.424   2.870   9.815  0.1027 -0.1707  0.4222
  103OSM    H7F10468   4.370   2.959   9.854  1.8342  0.4139  1.6089
  103OSM    H7G10469   4.350   2.805   9.764 -0.1757 -0.0845  0.7176
  103OSM    C8F10470   4.525   2.921   9.716 -0.1402  0.7018 -0.0305
  103OSM    H8F10471   4.606   2.981   9.762 -0.3449  0.9213  0.0428
  103OSM    H8G10472   4.467   2.995   9.657 -0.5605  1.0548  0.8021
  103OSM    C9F10473   4.565   2.822   9.610 -0.2135  0.3824  0.0831
  103OSM    H9F10474   4.661   2.775   9.636 -0.5015 -0.3105 -0.0877
  103OSM   C10F10475   4.498   2.774   9.507 -0.6772  0.3632  0.2918
  103OSM   H10F10476   4.544   2.690   9.453 -1.3193  0.2940 -0.1663
  103OSM   C11F10477   4.356   2.801   9.458 -0.4789  0.1789  0.7842
  103OSM   H11F10478   4.295   2.845   9.540  0.0436 -0.1423  1.3531
  103OSM   H11G10479   4.309   2.704   9.428 -1.1197  0.2712  1.4594
  103OSM   C12F10480   4.346   2.908   9.341 -0.0254  0.1819  0.0892
  103OSM   H12F10481   4.396   2.998   9.383  0.6572 -0.1158 -0.0642
  103OSM   H12G10482   4.238   2.924   9.319  0.4252 -0.8473 -3.5077
  103OSM   C13F10483   4.421   2.881   9.212  0.0970  0.2364  0.5811
  103OSM   H13F10484   4.520   2.833   9.229  0.5433  1.2892  1.0966
  103OSM   H13G10485   4.443   2.974   9.155 -0.6314 -1.1523 -2.1697
  103OSM   C14F10486   4.341   2.789   9.122  0.3923 -0.3013 -0.1064
  103OSM   H14F10487   4.251   2.844   9.089  0.5724 -0.5011 -0.9563
  103OSM   H14G10488   4.307   2.698   9.176  0.5546 -0.2872  0.0199
  103OSM   C15F10489   4.418   2.737   9.001  0.3726 -0.6595 -0.5160
  103OSM   H15F10490   4.348   2.688   8.929  0.1596 -2.7432  1.0045
  103OSM   H15G10491   4.481   2.656   9.043 -1.6848 -0.7276  2.8279
  103OSM   C16F10492   4.507   2.842   8.940  0.3894  0.7830 -0.7222
  103OSM   H16F10493   4.592   2.875   9.003  2.3317 -4.5810 -0.0439
  103OSM   H16G10494   4.439   2.927   8.914 -1.2004 -0.3925 -0.5337
  103OSM   C17F10495   4.575   2.791   8.807  0.9637  0.0473  0.3482
  103OSM   H17F10496   4.635   2.878   8.775 -0.3596  0.4022 -1.3601
  103OSM   H17G10497   4.502   2.786   8.723 -0.2600 -0.4082  1.4071
  103OSM   C18F10498   4.659   2.672   8.819  0.8234 -0.6027 -0.0879
  103OSM   H18F10499   4.587   2.588   8.833 -0.1265  0.6467  3.5193
  103OSM   H18G10500   4.730   2.681   8.904  0.3674 -1.5991  0.4264
  103OSM   H18H10501   4.710   2.642   8.725 -0.1404  2.2453 -1.6305
  104OSM      N10502   4.640   2.602  11.118  0.0141 -0.2650 -0.3136
  104OSM    C1510503   4.534   2.660  11.204 -0.0442  0.1945  0.0174
  104OSM   H15A10504   4.511   2.763  11.179  0.3744  0.5768  1.1677
  104OSM   H15B10505   4.556   2.659  11.310 -0.7584  0.3290  0.1763
  104OSM   H15C10506   4.441   2.607  11.187 -0.9355  1.6165  0.2744
  104OSM    C1410507   4.768   2.649  11.167 -0.0199 -0.5052  1.2277
  104OSM   H14A10508   4.781   2.616  11.269 -1.9089  0.5134  1.8430
  104OSM   H14B10509   4.776   2.757  11.171 -1.2648 -0.2166 -1.6641
  104OSM   H14C10510   4.852   2.612  11.111 -0.6507  0.0758 -0.1491
  104OSM    C1310511   4.636   2.455  11.124 -0.3260 -0.3614  0.1100
  104OSM   H13A10512   4.727   2.413  11.083 -1.3836 -2.5951 -0.1435
  104OSM   H13B10513   4.548   2.422  11.072  0.5984  0.2690 -1.9694
  104OSM   H13C10514   4.638   2.424  11.228 -1.3737 -0.6775  0.0462
  104OSM    C1210515   4.618   2.640  10.968 -0.4325  0.0938 -0.4042
  104OSM   H12A10516   4.610   2.747  10.962  2.1600  0.4642  1.0906
  104OSM   H12B10517   4.518   2.606  10.947 -1.0839  0.8364  1.3404
  104OSM    C1110518   4.712   2.584  10.861  0.6422 -0.5300 -0.0774
  104OSM   H11A10519   4.819   2.594  10.892  0.5786 -1.1086  0.3389
  104OSM   H11B10520   4.690   2.640  10.768 -1.7195 -1.9478 -0.4272
  104OSM      P10521   4.571   2.390  10.743  0.2224  0.5691  0.1023
  104OSM    O1310522   4.566   2.243  10.747 -0.7050  0.8465 -0.5584
  104OSM    O1410523   4.443   2.456  10.779 -0.4117 -0.0938 -0.0815
  104OSM    O1110524   4.612   2.434  10.598 -0.2753  0.2338  0.0871
  104OSM    O1210525   4.687   2.443  10.833  0.1531 -0.8855  0.1272
  104OSM    C1S10526   4.674   2.341  10.508  0.4232  0.1649  0.3541
  104OSM    H1S10527   4.593   2.307  10.441  0.7088 -1.1980  0.6551
  104OSM    H1T10528   4.721   2.251  10.554  0.5921  0.2097  0.2694
  104OSM     NF10529   4.797   2.356  10.285  0.1002  0.3564 -0.1693
  104OSM    HNF10530   4.874   2.294  10.281 -0.0691  0.1762 -0.7470
  104OSM    C2S10531   4.780   2.416  10.424 -0.1365 -0.3896  0.6337
  104OSM    H2S10532   4.745   2.520  10.403  0.2504 -0.5573 -0.9792
  104OSM    C3S10533   4.909   2.424  10.505  0.0114  0.6888 -0.7491
  104OSM    H3S10534   4.957   2.328  10.531  1.0611  2.0189  2.8389
  104OSM     O310535   4.892   2.486  10.635 -0.1860 -0.7529  0.2513
  104OSM    HO310536   4.805   2.468  10.670  0.6226 -1.3603  2.0899
  104OSM    C4S10537   5.013   2.502  10.428 -0.0027 -0.1757  0.5065
  104OSM    H4S10538   4.986   2.609  10.424 -0.7501 -0.3767  0.1156
  104OSM    C5S10539   5.131   2.455  10.376 -0.4806  0.2105 -0.2029
  104OSM    H5S10540   5.165   2.350  10.383  0.9182  0.4745 -2.2411
  104OSM    C6S10541   5.232   2.549  10.310 -0.2305  0.2300 -0.0037
  104OSM    H6S10542   5.326   2.556  10.370 -0.4447 -1.4640  0.5850
  104OSM    H6T10543   5.192   2.652  10.319 -0.4143  0.0944  0.8896
  104OSM    C7S10544   5.273   2.520  10.164  0.3221 -0.5564  0.1266
  104OSM    H7S10545   5.182   2.484  10.112  0.9791 -2.1044  0.0067
  104OSM    H7T10546   5.344   2.434  10.163 -1.4077 -2.0516  0.8045
  104OSM    C8S10547   5.345   2.627  10.097 -0.4265 -0.5570  0.5835
  104OSM    H8S10548   5.447   2.640  10.140 -0.8681  2.5440  0.9304
  104OSM    H8T10549   5.299   2.727  10.114 -0.1565 -0.2935 -0.2155
  104OSM    C9S10550   5.349   2.620   9.947  0.4446  0.4093  0.0775
  104OSM    H9S10551   5.400   2.707   9.901 -2.3646  2.3230  0.3583
  104OSM    H9T10552   5.244   2.632   9.914  0.1645  1.1761  1.1818
  104OSM   C10S10553   5.408   2.497   9.877 -0.4151  0.3882 -0.5842
  104OSM   H10S10554   5.351   2.403   9.892  3.1219 -1.9761 -0.7667
  104OSM   H10T10555   5.505   2.496   9.932 -1.7669  0.8396  1.9996
  104OSM   C11S10556   5.436   2.513   9.725 -0.5896  0.8555  0.3870
  104OSM   H11S10557   5.485   2.612   9.714  1.2716 -0.0543  0.0487
  104OSM   H11T10558   5.335   2.518   9.680 -0.0149 -0.9764 -1.2185
  104OSM   C12S10559   5.515   2.399   9.655 -0.5426 -0.0601  0.0230
  104OSM   H12S10560   5.442   2.316   9.650  0.1770 -0.6357 -2.5222
  104OSM   H12T10561   5.600   2.375   9.722 -1.3064 -0.3638  0.8987
  104OSM   C13S10562   5.585   2.436   9.523  0.2922  0.2573  0.0872
  104OSM   H13S10563   5.648   2.347   9.499 -0.1364 -0.7181  2.3872
  104OSM   H13T10564   5.646   2.529   9.529  1.1513 -0.2449 -0.5231
  104OSM   C14S10565   5.479   2.460   9.419  0.1997  1.4257  0.2508
  104OSM   H14S10566   5.441   2.563   9.435  0.8219  1.4843  1.4402
  104OSM   H14T10567   5.398   2.385   9.432  0.6547  1.0307  0.8489
  104OSM   C15S10568   5.545   2.438   9.278  0.7575 -0.2635 -0.4801
  104OSM   H15S10569   5.634   2.504   9.275  1.1704 -0.7244  0.8342
  104OSM   H15T10570   5.479   2.471   9.195 -0.0209  1.5130  0.7810
  104OSM   C16S10571   5.579   2.295   9.246 -0.2829  0.2464  0.0489
  104OSM   H16S10572   5.490   2.234   9.272  1.2598 -1.9259  0.5258
  104OSM   H16T10573   5.669   2.270   9.305  2.7313  0.1599 -4.1563
  104OSM   C17S10574   5.611   2.264   9.096  0.2948 -0.2389 -0.4083
  104OSM   H17S10575   5.538   2.321   9.034  0.8551  0.9434 -0.0138
  104OSM   H17T10576   5.598   2.156   9.074  3.1541 -0.7913  0.1555
  104OSM   C18S10577   5.757   2.296   9.059  0.2877 -0.6356  0.6366
  104OSM   H18S10578   5.825   2.279   9.145  1.7166  1.8304  0.0744
  104OSM   H18T10579   5.772   2.403   9.032 -0.4756 -1.3603 -3.1329
  104OSM   H18U10580   5.800   2.238   8.975 -0.9583 -0.0192 -0.4587
  104OSM    C1F10581   4.709   2.388  10.181 -0.6687 -0.1367 -0.3735
  104OSM     OF10582   4.630   2.474  10.194 -0.0058 -0.1119 -0.4209
  104OSM    C2F10583   4.716   2.310  10.055 -0.2406  0.9424 -0.1148
  104OSM    H2F10584   4.628   2.242  10.064  1.7658 -1.6984  0.8019
  104OSM    H2G10585   4.812   2.255  10.063 -0.0045  1.6030  2.2357
  104OSM    C3F10586   4.703   2.399   9.931 -0.7923 -0.3338 -0.0734
  104OSM    H3F10587   4.607   2.456   9.930  0.0525  1.1303 -1.0924
  104OSM    H3G10588   4.708   2.350   9.831 -2.9139 -0.5272 -0.1364
  104OSM    C4F10589   4.820   2.498   9.928 -0.7031  0.1886  0.6011
  104OSM    H4F10590   4.919   2.448   9.932 -1.2985 -1.2447 -1.1980
  104OSM    H4G10591   4.800   2.566  10.014  1.7570  2.6958 -0.6417
  104OSM    C5F10592   4.814   2.597   9.798 -0.8515  0.3633 -0.3139
  104OSM    H5F10593   4.880   2.682   9.829 -1.3639  0.6877 -0.1054
  104OSM    H5G10594   4.713   2.643   9.789 -0.2297  1.7572 -0.5383
  104OSM    C6F10595   4.877   2.548   9.666 -0.0397 -0.0601  0.0141
  104OSM    H6F10596   4.972   2.497   9.695 -0.8820 -1.2433  0.7801
  104OSM    H6G10597   4.901   2.645   9.617 -2.1351  0.8277  0.6376
  104OSM    C7F10598   4.794   2.452   9.589 -0.0463 -0.5329 -0.7530
  104OSM    H7F10599   4.685   2.475   9.595 -0.5119 -2.3705 -1.5743
  104OSM    H7G10600   4.786   2.359   9.648  0.3430 -0.6344 -0.8605
  104OSM    C8F10601   4.839   2.427   9.442  0.2345  0.6441 -0.1107
  104OSM    H8F10602   4.792   2.330   9.415 -0.2123  0.3425  1.6881
  104OSM    H8G10603   4.946   2.397   9.437  0.1557  0.5432 -2.1649
  104OSM    C9F10604   4.821   2.540   9.340 -0.0117 -0.3669 -0.1631
  104OSM    H9F10605   4.890   2.626   9.345  3.3554 -2.5307 -3.5940
  104OSM   C10F10606   4.723   2.552   9.244  0.0692 -0.2258  0.1951
  104OSM   H10F10607   4.712   2.642   9.181  2.6263  0.6764  0.9290
  104OSM   C11F10608   4.611   2.454   9.224  0.0123  0.0592  0.1820
  104OSM   H11F10609   4.510   2.501   9.221  0.2825  0.6072 -0.7450
  104OSM   H11G10610   4.618   2.382   9.308  1.4368 -0.6056 -0.4695
  104OSM   C12F10611   4.633   2.374   9.094 -0.4070 -0.0088 -0.0082
  104OSM   H12F10612   4.624   2.439   9.004  0.2313 -1.9799 -1.5826
  104OSM   H12G10613   4.560   2.290   9.095 -0.7655  0.3122  0.5963
  104OSM   C13F10614   4.776   2.307   9.094 -0.0597 -0.3028  0.0610
  104OSM   H13F10615   4.769   2.221   9.164  0.0540 -0.2165  0.1798
  104OSM   H13G10616   4.863   2.362   9.137  1.5307 -0.5628 -2.5892
  104OSM   C14F10617   4.815   2.265   8.958  0.2806 -0.0753  0.0286
  104OSM   H14F10618   4.838   2.353   8.895  1.0548  0.0696  0.4957
  104OSM   H14G10619   4.735   2.212   8.902  2.0823 -1.2532 -1.5652
  104OSM   C15F10620   4.938   2.178   8.965 -0.1863 -0.9107 -0.0229
  104OSM   H15F10621   4.926   2.089   9.030 -0.0189 -1.3554 -0.6044
  104OSM   H15G10622   5.010   2.244   9.019 -1.2348 -0.3195  0.7128
  104OSM   C16F10623   4.988   2.124   8.832 -0.1197 -0.3222  0.6148
  104OSM   H16F10624   4.981   2.199   8.750 -0.4666  0.3338  1.2346
  104OSM   H16G10625   4.924   2.037   8.807 -1.0783  0.8113 -1.0636
  104OSM   C17F10626   5.123   2.063   8.847 -0.4219 -0.2289  0.4204
  104OSM   H17F10627   5.147   1.999   8.760  0.1749 -0.6322  0.8730
  104OSM   H17G10628   5.124   1.996   8.936  1.3074 -3.7876 -2.0405
  104OSM   C18F10629   5.235   2.166   8.873  0.0761 -0.1871 -0.0245
  104OSM   H18F10630   5.216   2.257   8.813  1.4664 -1.0837 -1.9325
  104OSM   H18G10631   5.332   2.121   8.844 -0.1734 -1.0539  0.4463
  104OSM   H18H10632   5.249   2.188   8.981 -0.5530  0.3867 -0.0517
  105OSM      N10633   1.955   5.923  10.779  0.2757 -0.5623  1.0978
  105OSM    C1510634   2.002   5.936  10.633 -0.3031 -0.4479 -0.9005
  105OSM   H15A10635   2.075   6.014  10.619  0.9980 -1.2651  0.9297
  105OSM   H15B10636   1.919   5.973  10.574 -0.9109  0.6809  0.6046
  105OSM   H15C10637   2.052   5.846  10.600  0.0539 -0.8527  0.6822
  105OSM    C1410638   2.078   5.883  10.859  0.5694  0.5365  0.7453
  105OSM   H14A10639   2.155   5.958  10.860 -0.1014  1.2390  1.0357
  105OSM   H14B10640   2.114   5.787  10.824  0.8317  1.4767 -1.8006
  105OSM   H14C10641   2.045   5.865  10.960  1.1075 -1.2468  0.6369
  105OSM    C1310642   1.903   6.050  10.833  0.0534  0.2866 -0.5974
  105OSM   H13A10643   1.977   6.129  10.837  0.0368  0.2554  0.7897
  105OSM   H13B10644   1.876   6.043  10.937  2.1367 -2.0706 -0.1106
  105OSM   H13C10645   1.823   6.092  10.773 -0.6477 -0.0992  0.0477
  105OSM    C1210646   1.843   5.818  10.790  0.4649  0.4855 -0.4147
  105OSM   H12A10647   1.879   5.730  10.738  1.3612 -0.8018  2.2138
  105OSM   H12B10648   1.763   5.851  10.726  3.0229  0.1634 -4.0512
  105OSM    C1110649   1.784   5.785  10.932 -0.3645  0.5299 -0.6564
  105OSM   H11A10650   1.856   5.754  11.012 -1.0797 -0.0359 -0.2210
  105OSM   H11B10651   1.715   5.698  10.936  0.1391  0.1447 -0.2500
  105OSM      P10652   1.570   5.931  10.916 -0.4780 -0.1243 -0.0699
  105OSM    O1310653   1.476   5.839  10.981  0.2129  0.0269  0.2169
  105OSM    O1410654   1.556   6.076  10.942  0.5765  0.4215 -0.0788
  105OSM    O1110655   1.568   5.903  10.758  0.4236  0.1847  0.1589
  105OSM    O1210656   1.712   5.896  10.978 -0.0708 -0.2738 -0.2331
  105OSM    C1S10657   1.451   5.880  10.683  0.1727 -0.1063 -0.0277
  105OSM    H1S10658   1.360   5.927  10.725  0.1819 -0.1920  0.0867
  105OSM    H1T10659   1.426   5.772  10.693  0.7450 -0.0204  3.7761
  105OSM     NF10660   1.348   5.899  10.465 -0.2393 -0.7476  0.5862
  105OSM    HNF10661   1.358   5.826  10.397 -0.1622 -0.1132 -0.0895
  105OSM    C2S10662   1.470   5.928  10.533  0.3704 -0.1678 -0.5595
  105OSM    H2S10663   1.496   6.035  10.550  2.1593 -0.6719  0.1100
  105OSM    C3S10664   1.602   5.870  10.470  0.6489 -0.2381 -0.2374
  105OSM    H3S10665   1.607   5.760  10.486 -0.7288 -0.2629  0.1686
  105OSM     O310666   1.723   5.933  10.517 -0.0224 -0.2385 -0.4821
  105OSM    HO310667   1.701   5.997  10.585 -2.2886 -1.1729 -0.2681
  105OSM    C4S10668   1.598   5.898  10.320  0.0360  0.0445 -0.2907
  105OSM    H4S10669   1.563   6.000  10.299  0.5881  0.2871 -0.0380
  105OSM    C5S10670   1.599   5.808  10.220  0.6544  0.3023  0.2073
  105OSM    H5S10671   1.627   5.704  10.245  0.9207 -0.2629 -2.1690
  105OSM    C6S10672   1.579   5.846  10.075 -0.2600 -0.5762 -0.5005
  105OSM    H6S10673   1.475   5.829  10.039 -0.5641  1.1116 -0.4816
  105OSM    H6T10674   1.653   5.790  10.014  0.3114 -1.0308  0.5850
  105OSM    C7S10675   1.614   5.997  10.049 -0.5890 -0.4514  0.0100
  105OSM    H7S10676   1.701   6.030  10.111 -2.6745  1.0014  2.3551
  105OSM    H7T10677   1.533   6.067  10.078 -0.2877  0.8465 -2.1130
  105OSM    C8S10678   1.634   6.038   9.901  0.0841  1.5766  0.0218
  105OSM    H8S10679   1.731   6.004   9.858 -1.5100 -1.1812 -1.6767
  105OSM    H8T10680   1.635   6.149   9.907 -1.5851  1.7700 -2.1262
  105OSM    C9S10681   1.514   6.002   9.807 -0.6270 -0.5025 -1.2814
  105OSM    H9S10682   1.415   6.028   9.851 -0.1188 -1.1288  0.2887
  105OSM    H9T10683   1.521   5.891   9.795  0.1481 -0.7708  1.1277
  105OSM   C10S10684   1.514   6.072   9.671  0.1943  0.5907 -0.2556
  105OSM   H10S10685   1.490   6.181   9.676 -1.5748  0.1893  0.7480
  105OSM   H10T10686   1.433   6.026   9.612  0.7541 -1.5568  0.5565
  105OSM   C11S10687   1.636   6.040   9.587 -0.4539  0.2233  0.4061
  105OSM   H11S10688   1.638   5.932   9.559  0.1040  0.1325  0.7731
  105OSM   H11T10689   1.737   6.071   9.622 -0.7741  3.2002 -1.0026
  105OSM   C12S10690   1.619   6.093   9.443  0.0079 -0.1553  0.6150
  105OSM   H12S10691   1.633   6.203   9.446 -0.6629 -0.0496  0.1925
  105OSM   H12T10692   1.517   6.066   9.407  0.8176 -2.4453 -0.1006
  105OSM   C13S10693   1.732   6.038   9.352  0.1313  0.3380  0.8320
  105OSM   H13S10694   1.727   5.927   9.338 -1.6280  0.7190 -3.0169
  105OSM   H13T10695   1.833   6.048   9.397  0.6021 -0.2788 -0.0463
  105OSM   C14S10696   1.744   6.108   9.211 -0.7305 -0.3591  0.2729
  105OSM   H14S10697   1.851   6.105   9.182 -1.0740 -1.0154 -1.0370
  105OSM   H14T10698   1.704   6.211   9.222 -0.7464 -0.5302  2.0223
  105OSM   C15S10699   1.648   6.048   9.101  0.2137  0.7847  0.0032
  105OSM   H15S10700   1.556   6.004   9.145 -0.2129  0.0191 -1.6040
  105OSM   H15T10701   1.703   5.964   9.054 -0.2329  0.1009  0.6785
  105OSM   C16S10702   1.621   6.141   8.981 -0.6654 -0.3947 -0.0690
  105OSM   H16S10703   1.578   6.236   9.018 -0.9480  0.0592 -1.5135
  105OSM   H16T10704   1.557   6.101   8.899  0.6293  1.3831 -2.0504
  105OSM   C17S10705   1.749   6.182   8.910 -0.2574  0.5502 -0.1093
  105OSM   H17S10706   1.788   6.088   8.865 -0.0215  0.8149 -0.4671
  105OSM   H17T10707   1.830   6.217   8.977  2.6527 -3.5792 -1.0605
  105OSM   C18S10708   1.743   6.290   8.801 -0.3886 -0.2838  0.4868
  105OSM   H18S10709   1.641   6.279   8.758 -0.4002  0.3564  0.3432
  105OSM   H18T10710   1.824   6.281   8.726  0.6447 -1.9106  1.7351
  105OSM   H18U10711   1.743   6.387   8.855  2.5289 -0.9955  1.9945
  105OSM    C1F10712   1.239   5.970  10.490 -0.4394 -0.1550  1.0893
  105OSM     OF10713   1.242   6.074  10.556 -0.2661  0.3779  0.2799
  105OSM    C2F10714   1.104   5.908  10.441 -0.1879 -0.4983  0.4902
  105OSM    H2F10715   1.057   5.848  10.522  0.4367 -0.1736  1.1027
  105OSM    H2G10716   1.119   5.833  10.361  1.0182  0.4044 -0.1644
  105OSM    C3F10717   1.011   6.019  10.388 -0.2243  0.0266  1.2533
  105OSM    H3F10718   0.977   6.082  10.473 -1.3935  0.8904  0.1843
  105OSM    H3G10719   0.921   5.982  10.335 -0.5750  0.9398  1.1865
  105OSM    C4F10720   1.071   6.110  10.273  0.3224 -0.1779 -0.1735
  105OSM    H4F10721   1.156   6.169  10.315 -0.5546  1.5445 -0.7025
  105OSM    H4G10722   1.005   6.194  10.244 -0.0737  0.7815  3.0587
  105OSM    C5F10723   1.130   6.026  10.155  0.6043  0.0668 -0.0737
  105OSM    H5F10724   1.053   5.960  10.109 -0.9797  1.9576 -0.2590
  105OSM    H5G10725   1.200   5.951  10.198 -2.2835 -2.3994  0.6950
  105OSM    C6F10726   1.179   6.116  10.053  0.3225 -0.2086 -0.0624
  105OSM    H6F10727   1.262   6.051  10.017  0.5495 -2.1601  3.4820
  105OSM    H6G10728   1.225   6.203  10.105 -2.0975  1.0539  0.1240
  105OSM    C7F10729   1.067   6.168   9.958  0.8735  0.4304  0.5556
  105OSM    H7F10730   1.003   6.240  10.013 -0.3057  0.7257 -1.1050
  105OSM    H7G10731   1.009   6.083   9.916  2.1859 -0.9906  1.5073
  105OSM    C8F10732   1.116   6.219   9.822 -0.0285  1.0515  0.0907
  105OSM    H8F10733   1.024   6.241   9.764 -1.4782 -0.7510  1.5595
  105OSM    H8G10734   1.167   6.140   9.764 -0.0818 -0.0213  1.4570
  105OSM    C9F10735   1.210   6.333   9.828  1.2295 -0.4036 -0.1712
  105OSM    H9F10736   1.316   6.312   9.847  1.3322  1.1674  1.3197
  105OSM   C10F10737   1.166   6.460   9.820  0.2732 -0.1092 -0.0950
  105OSM   H10F10738   1.237   6.544   9.832  1.6133 -1.0805 -0.9237
  105OSM   C11F10739   1.020   6.506   9.806  0.0494 -0.0868 -0.0395
  105OSM   H11F10740   0.978   6.526   9.907 -0.2968 -0.5880 -0.0776
  105OSM   H11G10741   0.948   6.427   9.775  0.8476 -1.2159  0.8773
  105OSM   C12F10742   0.995   6.610   9.697  0.6547 -0.0212 -0.3540
  105OSM   H12F10743   1.056   6.586   9.608  1.5381  1.1240 -0.0818
  105OSM   H12G10744   1.024   6.711   9.733  0.5218 -0.2421  0.3961
  105OSM   C13F10745   0.851   6.618   9.666  0.7423 -0.5785 -0.5652
  105OSM   H13F10746   0.799   6.601   9.762 -1.6426 -0.3780 -1.7615
  105OSM   H13G10747   0.828   6.543   9.587 -0.6057 -0.1643 -0.5845
  105OSM   C14F10748   0.814   6.751   9.599 -0.3601 -0.3067 -0.2339
  105OSM   H14F10749   0.847   6.840   9.655 -0.2582 -0.0666 -0.6718
  105OSM   H14G10750   0.705   6.773   9.606  0.0395  2.5768 -1.5899
  105OSM   C15F10751   0.855   6.764   9.447 -1.0604 -0.4906 -0.0849
  105OSM   H15F10752   0.771   6.797   9.381 -1.1062  2.6811  1.3815
  105OSM   H15G10753   0.882   6.660   9.417  0.3622  0.1333 -1.0655
  105OSM   C16F10754   0.961   6.864   9.426  0.2540 -0.0691 -0.3323
  105OSM   H16F10755   1.054   6.849   9.486  1.1289  0.9765 -1.3465
  105OSM   H16G10756   0.926   6.964   9.459  3.2744  0.4943  1.6582
  105OSM   C17F10757   1.027   6.866   9.290  0.7042  0.4694 -0.5653
  105OSM   H17F10758   1.068   6.967   9.267 -0.2953  0.6011 -1.8547
  105OSM   H17G10759   0.949   6.850   9.212 -0.1951 -0.2583  0.4569
  105OSM   C18F10760   1.132   6.756   9.271 -0.3728 -0.0571  0.6687
  105OSM   H18F10761   1.208   6.796   9.201  2.3242 -0.9622  2.8693
  105OSM   H18G10762   1.090   6.663   9.229 -2.5993  1.7444 -1.2997
  105OSM   H18H10763   1.177   6.723   9.368 -1.1388 -0.4145  0.9082
  106OSM      N10764   6.226   6.110  10.935 -0.5196 -0.5862 -0.8762
  106OSM    C1510765   6.294   6.239  10.972 -1.1336 -0.4891 -0.0222
  106OSM   H15A10766   6.297   6.310  10.891  0.5304  0.4275  0.7775
  106OSM   H15B10767   6.400   6.226  10.989 -0.7568  0.0989 -1.7132
  106OSM   H15C10768   6.235   6.276  11.055 -0.7250  1.1641 -0.4293
  106OSM    C1410769   6.237   6.017  11.058  0.1624  0.4184 -0.0153
  106OSM   H14A10770   6.340   5.988  11.075 -0.3383 -1.8003 -0.4579
  106OSM   H14B10771   6.193   5.922  11.031  1.8023 -0.8309  1.4626
  106OSM   H14C10772   6.197   6.058  11.149  0.7134  0.5367  0.1768
  106OSM    C1310773   6.079   6.134  10.896  0.3562 -0.1695 -0.3699
  106OSM   H13A10774   6.061   6.210  10.821 -3.7933 -0.9805 -0.4543
  106OSM   H13B10775   6.025   6.158  10.987 -0.5421 -0.8455 -0.7061
  106OSM   H13C10776   6.035   6.047  10.849 -0.9483  1.0947 -1.6075
  106OSM    C1210777   6.296   6.042  10.821 -0.0369 -0.9818  0.1268
  106OSM   H12A10778   6.267   5.939  10.805 -1.6082 -0.8385  1.7260
  106OSM   H12B10779   6.400   6.025  10.846 -0.0893 -2.2523 -0.4341
  106OSM    C1110780   6.294   6.121  10.688 -0.7626  0.0639  0.3219
  106OSM   H11A10781   6.198   6.174  10.670 -0.5255 -0.4337 -3.0456
  106OSM   H11B10782   6.302   6.050  10.603  1.7017  0.7722 -0.1480
  106OSM      P10783   6.554   6.167  10.692 -0.2279 -0.1391 -0.2085
  106OSM    O1310784   6.642   6.279  10.655 -0.4774  0.0037  0.2377
  106OSM    O1410785   6.580   6.102  10.816 -0.1679 -0.2183  0.5736
  106OSM    O1110786   6.560   6.065  10.567  0.1365  0.0185 -0.4600
  106OSM    O1210787   6.403   6.212  10.689  0.6898 -0.4544  0.2354
  106OSM    C1S10788   6.692   6.018  10.527  0.2233  0.2455  0.1782
  106OSM    H1S10789   6.718   5.926  10.584  0.3026 -1.8225 -2.9701
  106OSM    H1T10790   6.773   6.092  10.539  1.0008 -0.0039 -2.7087
  106OSM     NF10791   6.825   5.911  10.354 -0.7504 -0.6171 -0.0233
  106OSM    HNF10792   6.899   5.966  10.316 -0.6530  0.5920  1.8172
  106OSM    C2S10793   6.700   5.988  10.380  0.0188  0.1282 -0.3491
  106OSM    H2S10794   6.610   5.929  10.355  1.0417 -1.7219  0.1424
  106OSM    C3S10795   6.689   6.116  10.299  0.2866  0.5167  0.6147
  106OSM    H3S10796   6.776   6.177  10.332  0.7689  0.9978 -1.4038
  106OSM     O310797   6.572   6.189  10.328 -0.0864  0.0535 -0.5036
  106OSM    HO310798   6.542   6.149  10.410  1.8498 -1.8685 -0.6452
  106OSM    C4S10799   6.700   6.090  10.145  0.5394 -0.0051 -0.4169
  106OSM    H4S10800   6.615   6.033  10.106  1.2717 -0.3493 -1.5685
  106OSM    C5S10801   6.794   6.138  10.063  0.1946  0.5065 -0.4479
  106OSM    H5S10802   6.866   6.208  10.108 -0.6545  0.5346  0.9452
  106OSM    C6S10803   6.805   6.105   9.911  0.5864 -0.2759  0.3977
  106OSM    H6S10804   6.726   6.032   9.883 -0.4630 -0.0892  2.6568
  106OSM    H6T10805   6.907   6.061   9.903  1.2369  1.2034  0.0796
  106OSM    C7S10806   6.783   6.229   9.829  0.1933  0.2086  0.0256
  106OSM    H7S10807   6.857   6.306   9.861 -1.3840  1.7187  0.2469
  106OSM    H7T10808   6.686   6.283   9.842  0.1786  0.4287 -0.8907
  106OSM    C8S10809   6.792   6.198   9.683  0.3934 -0.4653 -0.5931
  106OSM    H8S10810   6.689   6.160   9.666 -0.4872  1.1190  0.8417
  106OSM    H8T10811   6.870   6.120   9.670 -1.0217 -2.1247  0.3581
  106OSM    C9S10812   6.819   6.325   9.599  0.3783 -0.5654 -0.0305
  106OSM    H9S10813   6.927   6.353   9.605  0.6002 -1.0134 -1.4616
  106OSM    H9T10814   6.762   6.408   9.645  0.3582 -1.0481  0.8380
  106OSM   C10S10815   6.770   6.309   9.453  0.1084 -0.8558 -0.0906
  106OSM   H10S10816   6.660   6.292   9.457 -0.4454  1.7701 -1.8032
  106OSM   H10T10817   6.810   6.212   9.416 -0.3109 -1.4946  1.0554
  106OSM   C11S10818   6.816   6.425   9.358  1.1428  0.2693  0.8787
  106OSM   H11S10819   6.919   6.466   9.364  1.1443  0.5019 -0.3478
  106OSM   H11T10820   6.755   6.516   9.376  1.5412  0.6193  0.5008
  106OSM   C12S10821   6.781   6.381   9.209 -0.1482  0.0449  0.2506
  106OSM   H12S10822   6.673   6.355   9.213 -0.0957 -0.5257 -1.3088
  106OSM   H12T10823   6.832   6.290   9.171 -0.0351 -0.4461  1.5254
  106OSM   C13S10824   6.798   6.499   9.116  0.3273 -0.1240  0.3304
  106OSM   H13S10825   6.765   6.593   9.165 -0.3365 -0.8303  1.2727
  106OSM   H13T10826   6.735   6.480   9.026  0.1756 -0.2860  0.4697
  106OSM   C14S10827   6.939   6.519   9.062  0.2237  0.0511 -0.2394
  106OSM   H14S10828   6.984   6.429   9.015  1.2369  0.3605  0.1152
  106OSM   H14T10829   7.011   6.542   9.144  0.3718 -1.9485  0.2503
  106OSM   C15S10830   6.946   6.629   8.951 -0.4592 -0.7595 -0.5103
  106OSM   H15S10831   6.945   6.727   9.002 -0.2988 -1.6811  1.3376
  106OSM   H15T10832   6.847   6.622   8.900  0.2367 -2.7545 -1.7105
  106OSM   C16S10833   7.068   6.630   8.850  0.5368  0.2200  0.0482
  106OSM   H16S10834   7.060   6.533   8.797 -1.4505 -0.1400  0.9210
  106OSM   H16T10835   7.172   6.631   8.891  0.7897  0.5716 -0.5938
  106OSM   C17S10836   7.058   6.742   8.748 -0.1972  0.0527 -0.0623
  106OSM   H17S10837   7.084   6.840   8.793  3.4058  0.2859 -2.3287
  106OSM   H17T10838   6.954   6.747   8.709 -0.8878 -0.0039  1.6557
  106OSM   C18S10839   7.154   6.729   8.626 -0.3624  0.3969 -0.3527
  106OSM   H18S10840   7.122   6.675   8.534 -0.4501  2.3031 -1.4868
  106OSM   H18T10841   7.254   6.689   8.654 -2.0353 -2.5862  1.9326
  106OSM   H18U10842   7.159   6.826   8.573 -1.7661 -0.0920 -1.4553
  106OSM    C1F10843   6.830   5.782  10.395  0.4300 -0.9342 -1.0739
  106OSM     OF10844   6.741   5.729  10.465 -0.0464 -0.0980 -0.7868
  106OSM    C2F10845   6.949   5.695  10.347  0.1425 -0.2759 -1.1669
  106OSM    H2F10846   6.944   5.601  10.407  1.8186  0.3261  0.0089
  106OSM    H2G10847   7.047   5.734  10.384 -1.3617  1.6731  1.0291
  106OSM    C3F10848   6.956   5.672  10.196 -0.4383  0.7433  0.1644
  106OSM    H3F10849   6.854   5.644  10.161  0.2367 -0.2180 -1.1258
  106OSM    H3G10850   7.009   5.577  10.175 -1.2394  0.4256 -0.5056
  106OSM    C4F10851   7.017   5.782  10.112 -0.1995 -0.5235  0.0979
  106OSM    H4F10852   7.110   5.829  10.149 -0.2958  0.4748 -0.8845
  106OSM    H4G10853   6.940   5.859  10.091  1.0267  0.6284 -0.2905
  106OSM    C5F10854   7.065   5.723   9.979  0.3311 -0.4267 -0.0356
  106OSM    H5F10855   6.985   5.676   9.919  0.8342  0.6527 -1.6385
  106OSM    H5G10856   7.144   5.647   9.997 -0.0173 -0.9485 -0.7075
  106OSM    C6F10857   7.123   5.834   9.886  0.8062 -0.2055 -0.1316
  106OSM    H6F10858   7.211   5.879   9.936  1.7655 -0.5539 -1.4597
  106OSM    H6G10859   7.043   5.911   9.879  0.9341  0.0108  0.6313
  106OSM    C7F10860   7.154   5.777   9.754 -0.1025 -0.0217 -0.1748
  106OSM    H7F10861   7.062   5.761   9.694  1.7608  1.1005 -3.6069
  106OSM    H7G10862   7.210   5.685   9.782 -0.2980  0.0678  0.5277
  106OSM    C8F10863   7.249   5.862   9.666  0.6639 -0.4895 -0.3628
  106OSM    H8F10864   7.273   5.800   9.577  1.5949 -1.0615  0.2652
  106OSM    H8G10865   7.351   5.877   9.707  0.4570  1.1468 -0.3677
  106OSM    C9F10866   7.183   5.988   9.633 -0.3540  0.4249  0.2450
  106OSM    H9F10867   7.196   6.068   9.708  0.4368  0.7506 -0.2254
  106OSM   C10F10868   7.117   6.006   9.524 -0.5793  0.6173  0.3065
  106OSM   H10F10869   7.066   6.103   9.515  1.7440  1.9137  0.3582
  106OSM   C11F10870   7.080   5.900   9.418  0.2822 -0.5189 -0.3163
  106OSM   H11F10871   6.973   5.878   9.402  0.4585 -0.9254 -0.9773
  106OSM   H11G10872   7.126   5.803   9.446  3.4418  0.8039 -0.5021
  106OSM   C12F10873   7.114   5.941   9.274  0.1432 -0.0222 -0.4277
  106OSM   H12F10874   7.064   6.036   9.246 -0.6794 -0.9280 -2.2589
  106OSM   H12G10875   7.072   5.869   9.200 -0.3432  0.9546 -1.1340
  106OSM   C13F10876   7.264   5.952   9.251 -0.6209  0.2075  0.4709
  106OSM   H13F10877   7.310   5.853   9.271 -0.0233 -0.0562 -1.8751
  106OSM   H13G10878   7.322   6.026   9.310  1.5146 -0.2544 -0.8991
  106OSM   C14F10879   7.298   5.994   9.107 -0.1501 -0.6668  0.1223
  106OSM   H14F10880   7.400   6.037   9.090  0.3296 -1.6701  0.3920
  106OSM   H14G10881   7.223   6.066   9.070 -0.4163 -0.5493  0.8652
  106OSM   C15F10882   7.283   5.884   9.005 -0.4176 -0.7907 -0.1688
  106OSM   H15F10883   7.183   5.835   9.007 -0.0712 -1.5985 -1.6138
  106OSM   H15G10884   7.359   5.810   9.036  0.7521  0.1459 -0.7337
  106OSM   C16F10885   7.315   5.925   8.857  0.7525 -0.1347 -0.0418
  106OSM   H16F10886   7.423   5.950   8.847  1.5477 -3.0245  0.4832
  106OSM   H16G10887   7.265   6.023   8.836  1.6057  0.8017  1.9541
  106OSM   C17F10888   7.266   5.829   8.748  0.2560 -0.4255 -1.2194
  106OSM   H17F10889   7.277   5.866   8.644 -0.3621 -1.8036 -1.7861
  106OSM   H17G10890   7.158   5.818   8.771  0.1702  0.9052 -0.9059
  106OSM   C18F10891   7.342   5.695   8.757  0.5401  0.8961 -0.1174
  106OSM   H18F10892   7.316   5.636   8.848  0.4815  0.9301 -0.1130
  106OSM   H18G10893   7.451   5.713   8.771  0.0828  3.1320  0.9314
  106OSM   H18H10894   7.316   5.626   8.674 -0.7135 -1.5867  2.1452
  107OSM      N10895   2.948   0.255  11.050  0.6119  0.1504  0.6330
  107OSM    C1510896   3.045   0.205  10.951 -0.4094  0.1342 -0.2620
  107OSM   H15A10897   3.123   0.156  11.007  0.2607  2.8641  1.3360
  107OSM   H15B10898   3.094   0.281  10.891 -0.3386  0.2827 -0.0168
  107OSM   H15C10899   3.007   0.136  10.876 -0.0138  0.6188 -0.9238
  107OSM    C1410900   2.910   0.146  11.155 -0.1861  0.2429  0.5273
  107OSM   H14A10901   2.865   0.064  11.100 -1.8390  1.5298 -0.1313
  107OSM   H14B10902   2.838   0.175  11.230 -0.0586  0.3392  0.6122
  107OSM   H14C10903   3.001   0.116  11.204  0.2214  1.1207  0.3297
  107OSM    C1310904   3.007   0.375  11.116  0.0729 -0.5461  0.0188
  107OSM   H13A10905   3.018   0.446  11.036  2.4111 -1.1573 -0.2766
  107OSM   H13B10906   3.108   0.357  11.149 -0.4588 -0.3642  1.9217
  107OSM   H13C10907   2.947   0.416  11.197  2.4660 -0.4766  1.8758
  107OSM    C1210908   2.817   0.291  10.965 -0.5389  0.4878 -0.3914
  107OSM   H12A10909   2.741   0.315  11.038 -0.6515 -2.3965  0.5740
  107OSM   H12B10910   2.779   0.199  10.923 -1.5973  0.9284 -0.4191
  107OSM    C1110911   2.815   0.410  10.867 -0.0474  0.0596 -0.4261
  107OSM   H11A10912   2.721   0.395  10.810 -1.4685 -1.8319  2.1998
  107OSM   H11B10913   2.899   0.395  10.795  0.3855 -1.0104  0.2663
  107OSM      P10914   2.711   0.621  10.981 -0.7055  0.2442 -0.2155
  107OSM    O1310915   2.610   0.544  11.041  0.4192  0.0056 -0.2680
  107OSM    O1410916   2.761   0.737  11.063 -0.4777  0.0510 -0.3468
  107OSM    O1110917   2.663   0.678  10.835 -0.3011  0.1462 -0.3988
  107OSM    O1210918   2.829   0.532  10.938 -0.0820 -0.0667 -0.2457
  107OSM    C1S10919   2.743   0.756  10.750 -0.6745  0.2110 -0.0965
  107OSM    H1S10920   2.853   0.738  10.750 -0.4082  1.5083 -1.9826
  107OSM    H1T10921   2.732   0.863  10.778  0.8289  0.8720 -1.7689
  107OSM     NF10922   2.786   0.828  10.520 -0.3309 -0.3287 -0.0260
  107OSM    HNF10923   2.744   0.914  10.496  0.1737 -0.4726 -1.5017
  107OSM    C2S10924   2.698   0.749  10.600 -0.1421  0.6170 -0.3869
  107OSM    H2S10925   2.702   0.641  10.575 -0.0946  1.0214 -2.3050
  107OSM    C3S10926   2.559   0.791  10.582  0.0725  0.3787 -0.5296
  107OSM    H3S10927   2.537   0.893  10.619 -0.5947 -0.1871  0.7086
  107OSM     O310928   2.473   0.716  10.665 -0.7231 -0.2464 -0.0043
  107OSM    HO310929   2.534   0.658  10.712 -0.4486 -1.1184 -1.3883
  107OSM    C4S10930   2.517   0.765  10.438 -0.4450 -0.4364  0.1604
  107OSM    H4S10931   2.525   0.659  10.409  2.1181 -0.1460 -0.4301
  107OSM    C5S10932   2.460   0.849  10.348 -0.5443  0.4168  0.6526
  107OSM    H5S10933   2.444   0.956  10.370 -1.7246  0.9024 -2.1347
  107OSM    C6S10934   2.426   0.794  10.207  0.4070 -0.0976 -0.2187
  107OSM    H6S10935   2.466   0.865  10.133 -0.8093  0.7185 -0.1081
  107OSM    H6T10936   2.316   0.791  10.192  0.5274 -0.2632 -1.1304
  107OSM    C7S10937   2.479   0.661  10.163 -0.3843  0.0900 -0.5371
  107OSM    H7S10938   2.456   0.585  10.240  0.6275  0.5554  0.2522
  107OSM    H7T10939   2.589   0.676  10.154 -0.2759  1.0211  1.6824
  107OSM    C8S10940   2.456   0.624  10.014  0.1036 -0.1158  0.2190
  107OSM    H8S10941   2.349   0.601   9.995 -0.3004  0.6865  1.4076
  107OSM    H8T10942   2.516   0.533   9.995  0.4240  0.1540 -0.0915
  107OSM    C9S10943   2.482   0.727   9.909 -0.2180  0.0441  0.7380
  107OSM    H9S10944   2.582   0.767   9.938 -0.9443  1.0357  2.0450
  107OSM    H9T10945   2.409   0.807   9.936 -1.4588 -0.5188 -0.8403
  107OSM   C10S10946   2.493   0.688   9.762  0.4162  0.2208 -0.1490
  107OSM   H10S10947   2.528   0.777   9.705  0.2404  0.0049 -0.5921
  107OSM   H10T10948   2.393   0.651   9.730  0.2842  0.1267  0.3571
  107OSM   C11S10949   2.587   0.570   9.734 -0.0466 -0.0150  0.0461
  107OSM   H11S10950   2.560   0.481   9.795  3.1686 -0.9087  0.3625
  107OSM   H11T10951   2.690   0.587   9.770 -0.0223 -0.8821  0.3954
  107OSM   C12S10952   2.616   0.543   9.580  0.4378  0.4499  1.0235
  107OSM   H12S10953   2.700   0.471   9.585 -0.2670 -0.6027 -1.1643
  107OSM   H12T10954   2.647   0.639   9.535  1.0340  1.3478  3.2239
  107OSM   C13S10955   2.487   0.490   9.512 -0.3528 -0.1893 -0.0292
  107OSM   H13S10956   2.413   0.571   9.495 -1.5637 -1.4062 -0.7507
  107OSM   H13T10957   2.432   0.411   9.567  3.7837 -3.0651  0.4259
  107OSM   C14S10958   2.508   0.434   9.369  0.3419  0.8321  0.0394
  107OSM   H14S10959   2.564   0.338   9.379  0.7613  0.9493 -1.0517
  107OSM   H14T10960   2.566   0.506   9.308  1.6645 -0.1462  0.1028
  107OSM   C15S10961   2.374   0.411   9.297  0.1200 -0.4588 -0.1823
  107OSM   H15S10962   2.312   0.503   9.299  0.8872  0.0608  1.5044
  107OSM   H15T10963   2.319   0.329   9.348 -0.2256 -0.1056  0.0068
  107OSM   C16S10964   2.396   0.365   9.148  0.0317  0.0499 -0.6852
  107OSM   H16S10965   2.464   0.278   9.158 -1.1427 -0.7573  0.5953
  107OSM   H16T10966   2.445   0.440   9.082 -3.4333  2.9970 -0.2039
  107OSM   C17S10967   2.275   0.303   9.063  0.0708  0.3288  0.0506
  107OSM   H17S10968   2.203   0.386   9.045  1.2821  1.4631  0.3059
  107OSM   H17T10969   2.219   0.221   9.114  0.7984 -0.1255  0.1391
  107OSM   C18S10970   2.323   0.239   8.932  0.2094  0.8416  0.2378
  107OSM   H18S10971   2.389   0.314   8.883  0.6659  0.0481 -0.3764
  107OSM   H18T10972   2.235   0.223   8.866  1.1769 -0.1634 -0.8439
  107OSM   H18U10973   2.372   0.142   8.954 -0.0476  1.2522  2.8850
  107OSM    C1F10974   2.906   0.785  10.487  0.9095 -0.5295  0.0026
  107OSM     OF10975   2.948   0.677  10.519 -0.6073 -0.2841 -0.6534
  107OSM    C2F10976   2.986   0.887  10.407  0.3342 -0.4576  0.2319
  107OSM    H2F10977   3.066   0.927  10.473  0.2248 -2.0973  1.4154
  107OSM    H2G10978   2.915   0.963  10.367  3.6052  2.1184 -1.1149
  107OSM    C3F10979   3.060   0.826  10.277  0.2596  0.2649  0.0550
  107OSM    H3F10980   3.122   0.748  10.326 -1.4092 -1.4219 -0.4290
  107OSM    H3G10981   3.125   0.903  10.230  0.7489  0.0692  0.3986
  107OSM    C4F10982   2.978   0.762  10.164  0.2665  0.3522 -0.9886
  107OSM    H4F10983   2.880   0.813  10.155 -0.8354 -1.6162 -0.6447
  107OSM    H4G10984   2.960   0.656  10.192 -1.1252  0.9751  0.6546
  107OSM    C5F10985   3.053   0.774  10.031 -0.7056 -0.6627  0.1544
  107OSM    H5F10986   3.152   0.724  10.033  0.1541  0.9636  0.2353
  107OSM    H5G10987   3.086   0.880  10.023 -0.0473 -0.8503  0.3245
  107OSM    C6F10988   2.964   0.749   9.915  0.3634  0.2644  0.5113
  107OSM    H6F10989   2.885   0.828   9.914 -0.0473 -0.0819 -2.8106
  107OSM    H6G10990   2.910   0.653   9.931  1.5965 -0.2120  2.1010
  107OSM    C7F10991   3.034   0.757   9.779 -0.5663 -0.6884 -0.1716
  107OSM    H7F10992   3.109   0.677   9.766 -0.0070 -0.0349 -1.0993
  107OSM    H7G10993   3.090   0.853   9.770 -1.2827  0.0549  2.2224
  107OSM    C8F10994   2.934   0.744   9.655 -0.3003  0.5553  0.1913
  107OSM    H8F10995   2.892   0.643   9.672  0.8660  0.2243  1.2777
  107OSM    H8G10996   2.990   0.742   9.559  2.2367 -0.9249  1.5714
  107OSM    C9F10997   2.818   0.841   9.652 -0.3336  0.3249  0.2284
  107OSM    H9F10998   2.760   0.849   9.745  0.4463 -1.0163  0.8651
  107OSM   C10F10999   2.780   0.924   9.545 -0.2678 -0.0765 -0.5937
  107OSM   H10F11000   2.680   0.971   9.549 -0.1048  0.1782  1.1345
  107OSM   C11F11001   2.845   0.944   9.413  0.6521  0.3594  0.2660
  107OSM   H11F11002   2.942   0.892   9.394  1.2349  1.9247 -1.4544
  107OSM   H11G11003   2.876   1.050   9.398 -1.4309  0.6775 -2.5534
  107OSM   C12F11004   2.769   0.912   9.286 -0.2012  0.8174 -0.0498
  107OSM   H12F11005   2.675   0.972   9.284  1.0699  2.9593 -2.2558
  107OSM   H12G11006   2.748   0.803   9.284  1.1070  0.5506 -0.0974
  107OSM   C13F11007   2.848   0.946   9.163  0.5045 -0.1557 -0.0050
  107OSM   H13F11008   2.929   0.869   9.157 -0.2431 -0.9014 -0.8488
  107OSM   H13G11009   2.895   1.046   9.178  0.7369 -0.1550 -0.6660
  107OSM   C14F11010   2.763   0.943   9.029  0.0948  0.6579  1.1420
  107OSM   H14F11011   2.681   1.009   9.064 -0.7850 -0.6190  1.5791
  107OSM   H14G11012   2.718   0.843   9.012 -2.2452  1.8373 -0.1435
  107OSM   C15F11013   2.836   0.989   8.900  0.8074 -0.2692  0.1914
  107OSM   H15F11014   2.924   0.922   8.892  0.2641 -1.2329  1.7602
  107OSM   H15G11015   2.862   1.096   8.909 -1.0391  0.1366  1.2319
  107OSM   C16F11016   2.754   0.964   8.769  0.0417 -0.4821  0.6317
  107OSM   H16F11017   2.658   1.021   8.774  0.2676 -0.2115  3.2029
  107OSM   H16G11018   2.720   0.860   8.788 -0.8014 -0.1800  0.8044
  107OSM   C17F11019   2.834   0.982   8.641 -0.0320 -0.6834 -0.2495
  107OSM   H17F11020   2.781   0.950   8.550  1.7670 -0.8627 -1.2830
  107OSM   H17G11021   2.925   0.919   8.652 -0.6696 -1.4482  0.9104
  107OSM   C18F11022   2.881   1.129   8.625 -0.9952  0.5446  0.4476
  107OSM   H18F11023   2.953   1.156   8.705  0.6367 -0.2124 -0.7135
  107OSM   H18G11024   2.801   1.204   8.607 -1.1141  0.7597  1.7834
  107OSM   H18H11025   2.943   1.135   8.533  0.8251  0.2793  1.6198
  108OSM      N11026   0.655   3.929  10.998  0.2373 -0.2933  0.3390
  108OSM    C1511027   0.731   3.820  11.072 -0.1240 -0.4418  0.1417
  108OSM   H15A11028   0.748   3.735  11.007  3.1852 -0.8214  1.3427
  108OSM   H15B11029   0.677   3.784  11.158  0.5173  0.9077  1.1432
  108OSM   H15C11030   0.829   3.856  11.099  0.2068 -0.5453 -0.8909
  108OSM    C1411031   0.514   3.887  11.004  0.6766 -0.3759  0.2747
  108OSM   H14A11032   0.489   3.878  11.109 -1.9003 -0.9074 -0.3241
  108OSM   H14B11033   0.485   3.795  10.956  1.8090 -0.4628 -0.2795
  108OSM   H14C11034   0.444   3.958  10.962 -2.4853 -1.7675  2.7700
  108OSM    C1311035   0.672   4.051  11.075 -0.0657  0.2456  0.0305
  108OSM   H13A11036   0.624   4.132  11.022 -0.5410  0.3386  0.5920
  108OSM   H13B11037   0.774   4.080  11.094 -0.8079  2.5495  0.8517
  108OSM   H13C11038   0.621   4.060  11.170  1.8515  0.5776  1.0779
  108OSM    C1211039   0.708   3.941  10.863 -0.4209 -0.5324  0.5915
  108OSM   H12A11040   0.698   3.847  10.810  0.8512 -0.8909  0.9567
  108OSM   H12B11041   0.814   3.960  10.871 -0.0011 -1.7855 -1.2519
  108OSM    C1111042   0.644   4.048  10.768 -0.4959 -0.4673  0.5531
  108OSM   H11A11043   0.534   4.031  10.764 -0.5652  0.1234 -0.8390
  108OSM   H11B11044   0.677   4.027  10.663 -1.0404 -1.3469  0.5425
  108OSM      P11045   0.568   4.302  10.777 -0.1511 -0.1266  0.4080
  108OSM    O1311046   0.428   4.251  10.784  0.5724  0.1861 -0.4836
  108OSM    O1411047   0.603   4.410  10.871 -0.0607  0.6031  1.0215
  108OSM    O1111048   0.601   4.350  10.625 -0.0784  0.2502  0.0504
  108OSM    O1211049   0.668   4.184  10.808 -0.7107  0.0838  0.5376
  108OSM    C1S11050   0.719   4.309  10.551 -0.2768  0.2950 -0.8409
  108OSM    H1S11051   0.695   4.218  10.493 -1.3582  0.3542 -0.5027
  108OSM    H1T11052   0.795   4.287  10.629 -3.3714 -1.7165  1.8945
  108OSM     NF11053   0.833   4.345  10.338  0.0060 -0.1219  0.6010
  108OSM    HNF11054   0.926   4.370  10.314 -0.7266  0.7263 -1.5152
  108OSM    C2S11055   0.765   4.411  10.450 -0.6580  0.1557 -0.0111
  108OSM    H2S11056   0.671   4.454  10.410 -0.3054 -0.3439 -1.4315
  108OSM    C3S11057   0.849   4.518  10.517  0.1522 -0.6985  0.1878
  108OSM    H3S11058   0.955   4.485  10.527  0.4525  0.4772  1.1227
  108OSM     O311059   0.805   4.558  10.641  0.2947 -0.0141 -0.3429
  108OSM    HO311060   0.729   4.509  10.674  0.7799  0.2580  1.2918
  108OSM    C4S11061   0.860   4.644  10.431  0.0495  0.5590 -0.1055
  108OSM    H4S11062   0.947   4.649  10.365  0.8357 -2.5372  0.5073
  108OSM    C5S11063   0.780   4.752  10.430 -0.2063 -0.8073  0.1740
  108OSM    H5S11064   0.712   4.757  10.517 -1.0170 -1.0343 -0.4385
  108OSM    C6S11065   0.792   4.870  10.341  0.5557 -1.1530  0.3108
  108OSM    H6S11066   0.873   4.938  10.374  0.1531 -0.5932  0.1652
  108OSM    H6T11067   0.705   4.940  10.349  1.8994  0.4630  1.3895
  108OSM    C7S11068   0.809   4.841  10.192 -0.3408  0.4871 -0.2274
  108OSM    H7S11069   0.725   4.783  10.149  2.0783 -1.0975 -3.2590
  108OSM    H7T11070   0.910   4.797  10.176  0.2944  1.7231  0.1747
  108OSM    C8S11071   0.810   4.968  10.120 -0.1412 -0.1727  0.4613
  108OSM    H8S11072   0.868   5.046  10.173  0.4645  1.1334 -1.9653
  108OSM    H8T11073   0.706   5.007  10.121  0.8120  2.8181 -2.0054
  108OSM    C9S11074   0.857   4.962   9.977  0.2684 -0.5548  0.0668
  108OSM    H9S11075   0.793   4.886   9.927  1.0835 -1.3428  0.1749
  108OSM    H9T11076   0.962   4.924   9.977  1.0682  1.5552 -0.4497
  108OSM   C10S11077   0.830   5.096   9.902  0.2877 -0.9085 -0.1697
  108OSM   H10S11078   0.874   5.179   9.962 -0.3101 -1.4293  1.0348
  108OSM   H10T11079   0.719   5.107   9.904  0.2273 -0.9931 -1.9714
  108OSM   C11S11080   0.887   5.099   9.758 -0.1629  0.1635 -0.1333
  108OSM   H11S11081   0.990   5.057   9.761 -0.5226 -0.7052  1.0332
  108OSM   H11T11082   0.883   5.204   9.724 -0.9859  0.8159  1.8682
  108OSM   C12S11083   0.804   5.010   9.663 -0.4696  0.5081 -0.0741
  108OSM   H12S11084   0.695   5.003   9.681 -0.3700 -0.3570  0.2361
  108OSM   H12T11085   0.839   4.906   9.682 -0.3884  0.4571 -0.4972
  108OSM   C13S11086   0.837   5.041   9.512 -0.0374 -0.1963 -0.6209
  108OSM   H13S11087   0.804   4.954   9.452 -0.2878 -2.3063  2.3309
  108OSM   H13T11088   0.946   5.057   9.500  0.0382 -1.3338 -1.6220
  108OSM   C14S11089   0.766   5.164   9.454 -0.4288  0.0218 -0.0946
  108OSM   H14S11090   0.769   5.252   9.522 -0.8334 -0.1678  0.1768
  108OSM   H14T11091   0.655   5.155   9.457 -0.7313  2.8715  0.5083
  108OSM   C15S11092   0.820   5.193   9.318  0.4951  0.1846 -0.2799
  108OSM   H15S11093   0.791   5.114   9.246  0.1233 -0.1155  0.1859
  108OSM   H15T11094   0.930   5.176   9.324  0.5068 -0.3426 -1.7421
  108OSM   C16S11095   0.770   5.328   9.256  0.0396 -0.1382 -0.1396
  108OSM   H16S11096   0.818   5.403   9.322  0.3554  0.1401 -0.6805
  108OSM   H16T11097   0.660   5.329   9.276 -0.3310  2.1360 -1.8718
  108OSM   C17S11098   0.797   5.350   9.108 -0.5824  0.0580 -0.6366
  108OSM   H17S11099   0.750   5.448   9.087  0.1798  0.8200  1.1023
  108OSM   H17T11100   0.741   5.281   9.041 -2.2595  0.6960  0.0521
  108OSM   C18S11101   0.949   5.349   9.065 -0.1843  1.0691  0.6021
  108OSM   H18S11102   0.954   5.384   8.959 -1.1375 -0.4686  0.0135
  108OSM   H18T11103   0.977   5.242   9.062 -1.5482  0.7098 -0.2471
  108OSM   H18U11104   0.999   5.428   9.125  0.1325  0.7639  0.7421
  108OSM    C1F11105   0.769   4.261  10.258  0.4814 -0.2218 -0.0906
  108OSM     OF11106   0.648   4.274  10.264  0.1755  0.3496  0.6097
  108OSM    C2F11107   0.843   4.161  10.167  0.6543  0.2827  0.0499
  108OSM    H2F11108   0.884   4.079  10.231  0.7869  0.6413  0.4267
  108OSM    H2G11109   0.924   4.211  10.109 -0.7023  0.6650 -1.5706
  108OSM    C3F11110   0.754   4.096  10.054  0.7165 -0.4729  0.6885
  108OSM    H3F11111   0.652   4.074  10.091  1.7282 -1.0627  3.3829
  108OSM    H3G11112   0.808   4.004  10.021 -0.1425 -0.1016 -1.9624
  108OSM    C4F11113   0.729   4.195   9.934 -0.3118  0.4016  0.4549
  108OSM    H4F11114   0.759   4.301   9.951  2.8282  0.2017 -2.6560
  108OSM    H4G11115   0.622   4.202   9.904  0.0870  0.3289 -1.0901
  108OSM    C5F11116   0.815   4.163   9.810  1.0493 -0.0660  0.3117
  108OSM    H5F11117   0.820   4.054   9.789  0.5651 -0.2650  1.2016
  108OSM    H5G11118   0.920   4.194   9.829  1.5377  0.1233 -2.2692
  108OSM    C6F11119   0.768   4.242   9.686  0.4523  0.4232  0.0691
  108OSM    H6F11120   0.699   4.318   9.727 -0.1787 -1.3617  2.5723
  108OSM    H6G11121   0.699   4.178   9.627 -1.0728 -0.2094  2.4040
  108OSM    C7F11122   0.875   4.285   9.582 -0.2688  0.6325 -0.0754
  108OSM    H7F11123   0.912   4.193   9.533 -2.1872  0.5789 -1.5125
  108OSM    H7G11124   0.966   4.335   9.621  1.3846 -2.6091  0.5535
  108OSM    C8F11125   0.815   4.377   9.474  0.4135 -0.3543 -0.0981
  108OSM    H8F11126   0.711   4.344   9.455  0.0747  0.6469 -0.0442
  108OSM    H8G11127   0.863   4.345   9.379  3.5307 -0.0197  1.2425
  108OSM    C9F11128   0.825   4.527   9.488 -0.5756  0.1723  0.1045
  108OSM    H9F11129   0.810   4.551   9.595 -0.2496 -2.2688  0.7582
  108OSM   C10F11130   0.840   4.622   9.391 -0.5221 -0.5514 -0.0456
  108OSM   H10F11131   0.848   4.728   9.418  0.0486 -0.3387 -0.9893
  108OSM   C11F11132   0.845   4.598   9.242  0.4826  0.4802 -0.2044
  108OSM   H11F11133   0.918   4.515   9.228 -0.2890 -0.7335  2.4094
  108OSM   H11G11134   0.863   4.687   9.178  0.3313  0.5251 -0.1850
  108OSM   C12F11135   0.708   4.538   9.206  0.4106  0.0583 -0.0159
  108OSM   H12F11136   0.625   4.601   9.245  0.9040  0.7391 -0.0362
  108OSM   H12G11137   0.692   4.439   9.253  0.4556  0.1314  0.1549
  108OSM   C13F11138   0.695   4.515   9.054 -0.3888  0.1719 -0.2507
  108OSM   H13F11139   0.711   4.618   9.015  0.3571 -0.3225 -1.3156
  108OSM   H13G11140   0.587   4.492   9.041 -0.1960 -2.1539  1.5254
  108OSM   C14F11141   0.787   4.411   8.993  0.1994  0.2900  0.0968
  108OSM   H14F11142   0.781   4.314   9.047 -0.1715 -1.1713 -2.4029
  108OSM   H14G11143   0.896   4.433   8.994  0.6670 -1.7924  0.3406
  108OSM   C15F11144   0.736   4.368   8.849 -0.0681  0.0946 -0.6867
  108OSM   H15F11145   0.723   4.455   8.782 -0.9877  0.0862 -0.5354
  108OSM   H15G11146   0.628   4.340   8.850 -0.7897  2.6467 -0.2538
  108OSM   C16F11147   0.819   4.260   8.780 -0.3296 -0.0822 -0.5990
  108OSM   H16F11148   0.795   4.257   8.672 -0.2545 -1.0983 -0.5975
  108OSM   H16G11149   0.786   4.161   8.818  1.8436 -0.0338  1.6673
  108OSM   C17F11150   0.971   4.275   8.800  0.1818  0.0077 -0.1604
  108OSM   H17F11151   1.001   4.266   8.906  1.0880  0.4734 -0.3671
  108OSM   H17G11152   1.001   4.380   8.779  1.6306 -0.1113  1.1363
  108OSM   C18F11153   1.059   4.179   8.716 -0.4826  0.0837  0.7009
  108OSM   H18F11154   1.022   4.075   8.723 -0.7916  0.2073  0.9027
  108OSM   H18G11155   1.164   4.185   8.752 -0.4633  0.4785  0.5912
  108OSM   H18H11156   1.041   4.214   8.612 -2.2761 -2.0119  0.2483
  109OSM      N11157   6.472   3.429  11.091  0.8774 -0.0944  0.2798
  109OSM    C1511158   6.400   3.351  10.986 -0.3206  0.2168 -0.0009
  109OSM   H15A11159   6.378   3.249  11.014 -0.6876 -0.1769 -1.6263
  109OSM   H15B11160   6.460   3.352  10.896 -0.6851 -0.2151 -0.2496
  109OSM   H15C11161   6.309   3.404  10.965 -2.2000 -2.3637  1.1695
  109OSM    C1411162   6.586   3.347  11.154  0.6919 -0.1864 -0.0826
  109OSM   H14A11163   6.633   3.396  11.238  1.0696 -1.0015  0.1923
  109OSM   H14B11164   6.675   3.329  11.096 -0.4290 -0.6535 -1.7158
  109OSM   H14C11165   6.552   3.250  11.188 -2.1932  0.7627 -0.0028
  109OSM    C1311166   6.531   3.550  11.033 -0.2094 -0.2213 -0.1059
  109OSM   H13A11167   6.617   3.526  10.974  0.7362 -3.6491  2.3879
  109OSM   H13B11168   6.560   3.620  11.111  2.1070  1.2575 -2.1392
  109OSM   H13C11169   6.459   3.604  10.973 -0.4422 -2.6383 -2.1292
  109OSM    C1211170   6.377   3.464  11.203 -0.1687  0.5715 -0.0584
  109OSM   H12A11171   6.431   3.482  11.295 -0.4182 -2.1229  0.6880
  109OSM   H12B11172   6.323   3.375  11.230 -1.0028  1.2767  0.6640
  109OSM    C1111173   6.269   3.575  11.176  0.1673 -0.5936 -0.2178
  109OSM   H11A11174   6.330   3.667  11.172  0.1316 -0.3598  2.6110
  109OSM   H11B11175   6.209   3.597  11.267  1.3081  3.1341 -0.2087
  109OSM      P11176   6.065   3.452  11.067  0.1230 -0.2413 -0.2669
  109OSM    O1311177   6.085   3.358  11.175 -0.1076 -0.2864 -0.4295
  109OSM    O1411178   5.944   3.535  11.078 -0.6854 -0.3398  0.2639
  109OSM    O1111179   6.075   3.378  10.927  0.0907 -0.5160  0.3394
  109OSM    O1211180   6.183   3.551  11.061 -0.0408 -0.2489 -0.1682
  109OSM    C1S11181   6.070   3.458  10.809 -0.4460 -0.7928  0.1225
  109OSM    H1S11182   6.166   3.515  10.815 -0.4346 -0.6422 -1.1234
  109OSM    H1T11183   5.988   3.534  10.803  0.0070 -0.0732  2.2588
  109OSM     NF11184   6.073   3.453  10.554  0.2925 -0.3749  0.2501
  109OSM    HNF11185   5.992   3.465  10.498  2.6985 -1.4196 -3.9314
  109OSM    C2S11186   6.062   3.372  10.677  0.1067  0.0975  0.0061
  109OSM    H2S11187   6.141   3.294  10.684 -0.8953 -1.0471 -0.9285
  109OSM    C3S11188   5.933   3.285  10.673  0.1593 -0.0751 -0.1704
  109OSM    H3S11189   5.850   3.354  10.648  0.8711  0.4716 -1.1309
  109OSM     O311190   5.902   3.236  10.801 -0.0372  0.3122  0.0059
  109OSM    HO311191   5.959   3.289  10.856  1.5455 -1.7913  0.5295
  109OSM    C4S11192   5.926   3.179  10.568 -0.9950  0.1920  0.0897
  109OSM    H4S11193   5.907   3.232  10.474 -0.8331  0.8181  0.4061
  109OSM    C5S11194   5.949   3.046  10.569  0.1184  0.5665 -0.0739
  109OSM    H5S11195   5.975   2.994  10.662 -2.1680  1.0193  0.8765
  109OSM    C6S11196   5.942   2.962  10.450  0.3853  0.2994  0.4968
  109OSM    H6S11197   5.840   2.920  10.453 -0.1875  1.6091  0.0535
  109OSM    H6T11198   6.009   2.874  10.452  0.2418  0.2007  1.6415
  109OSM    C7S11199   5.949   3.031  10.312 -0.2903 -0.1899  0.7634
  109OSM    H7S11200   5.871   3.110  10.304 -1.3275 -1.2146  0.5527
  109OSM    H7T11201   5.932   2.948  10.240 -2.0060  2.5297 -2.2618
  109OSM    C8S11202   6.097   3.091  10.287 -0.1468  0.1732 -0.1175
  109OSM    H8S11203   6.178   3.017  10.307 -0.0699  0.7495  1.9553
  109OSM    H8T11204   6.125   3.164  10.366 -2.0740 -1.1011  1.8451
  109OSM    C9S11205   6.124   3.167  10.155 -0.2176  0.5242  0.7482
  109OSM    H9S11206   6.227   3.208  10.142  0.5300 -1.6085 -0.6296
  109OSM    H9T11207   6.054   3.253  10.148  0.3180  1.0239  1.4659
  109OSM   C10S11208   6.117   3.078  10.029 -0.2298 -0.5869 -0.3587
  109OSM   H10S11209   6.030   3.010  10.042 -0.9551  0.3013 -0.4728
  109OSM   H10T11210   6.216   3.027  10.026  0.6732  1.0743  0.2485
  109OSM   C11S11211   6.102   3.157   9.891  0.1850 -0.0367  0.5429
  109OSM   H11S11212   6.189   3.224   9.873 -0.8946  1.2648  0.0185
  109OSM   H11T11213   6.016   3.224   9.910 -0.7981 -1.4657  1.3676
  109OSM   C12S11214   6.077   3.066   9.776  0.3230  0.2067 -0.3466
  109OSM   H12S11215   5.970   3.036   9.786  0.4993  0.1011  1.4695
  109OSM   H12T11216   6.138   2.974   9.785  3.6183  2.2771  0.2362
  109OSM   C13S11217   6.107   3.130   9.642  0.2169 -0.7044 -0.2125
  109OSM   H13S11218   6.216   3.126   9.622  0.1128 -1.3765 -0.6431
  109OSM   H13T11219   6.070   3.235   9.648 -2.8323 -1.7526  2.3610
  109OSM   C14S11220   6.028   3.068   9.527 -0.9093  0.0617 -0.1198
  109OSM   H14S11221   5.919   3.084   9.543 -0.8116  2.5576 -1.4351
  109OSM   H14T11222   6.056   2.961   9.529  0.2908  0.3421 -0.6763
  109OSM   C15S11223   6.066   3.119   9.386 -0.7836 -0.5618  0.1430
  109OSM   H15S11224   6.046   3.037   9.315  1.5118  0.4078 -1.7642
  109OSM   H15T11225   6.176   3.136   9.386 -0.7041 -0.3958 -3.1809
  109OSM   C16S11226   6.019   3.261   9.351  0.2902 -0.5150 -0.7647
  109OSM   H16S11227   6.065   3.324   9.430 -0.7971 -1.3740  0.6087
  109OSM   H16T11228   5.909   3.280   9.355  0.4320  0.2612  2.9457
  109OSM   C17S11229   6.068   3.306   9.212  0.0303 -0.2063 -0.4230
  109OSM   H17S11230   6.174   3.275   9.203 -0.2270 -1.5600  0.6963
  109OSM   H17T11231   6.071   3.417   9.213 -1.0493 -0.1052  2.2542
  109OSM   C18S11232   5.984   3.247   9.101  0.2044 -0.5733 -0.1554
  109OSM   H18S11233   5.978   3.138   9.118 -0.3583 -0.7110 -1.1311
  109OSM   H18T11234   6.036   3.258   9.003 -2.4770 -1.4270 -1.7857
  109OSM   H18U11235   5.884   3.292   9.089  0.7438  1.6181  2.5409
  109OSM    C1F11236   6.194   3.488  10.514 -0.3276 -0.3409  0.1683
  109OSM     OF11237   6.286   3.471  10.593 -0.4294  0.2109 -0.6346
  109OSM    C2F11238   6.206   3.542  10.376 -0.1811  0.1087 -0.5926
  109OSM    H2F11239   6.182   3.650  10.380 -0.6156 -0.0139  0.3786
  109OSM    H2G11240   6.140   3.486  10.307  0.9192 -1.0654 -0.7276
  109OSM    C3F11241   6.349   3.511  10.328  0.4518 -0.0841 -0.0408
  109OSM    H3F11242   6.362   3.401  10.322  0.7933 -0.0768  0.4757
  109OSM    H3G11243   6.426   3.556  10.395  2.1121  0.5242 -2.2614
  109OSM    C4F11244   6.359   3.581  10.190  0.0373  0.3497 -1.1263
  109OSM    H4F11245   6.468   3.581  10.164  0.1003 -3.3621 -1.3719
  109OSM    H4G11246   6.340   3.690  10.195 -0.4394  0.3997 -3.2336
  109OSM    C5F11247   6.285   3.511  10.082 -0.2179  0.0152 -0.2931
  109OSM    H5F11248   6.176   3.519  10.099  0.1107  1.1383  1.5662
  109OSM    H5G11249   6.318   3.405  10.084  0.5783  0.2390  2.9529
  109OSM    C6F11250   6.323   3.584   9.943  0.0454  0.0803  0.7398
  109OSM    H6F11251   6.432   3.576   9.924 -0.0345 -1.1946  0.6986
  109OSM    H6G11252   6.309   3.692   9.961  0.7527  0.4306 -0.6829
  109OSM    C7F11253   6.250   3.536   9.823 -0.0274 -0.4992 -0.1411
  109OSM    H7F11254   6.140   3.556   9.822 -0.1991 -1.3859 -2.0457
  109OSM    H7G11255   6.264   3.426   9.820  2.1907 -0.2402 -1.0492
  109OSM    C8F11256   6.312   3.594   9.690 -0.4474  0.3767  0.6558
  109OSM    H8F11257   6.421   3.571   9.692 -0.9674 -4.2473 -3.7432
  109OSM    H8G11258   6.294   3.703   9.683 -0.0873  0.3730 -0.5696
  109OSM    C9F11259   6.273   3.520   9.562 -0.1122  0.0328 -0.2720
  109OSM    H9F11260   6.278   3.410   9.571  1.0614 -0.1268 -2.2954
  109OSM   C10F11261   6.269   3.577   9.444  0.0121 -0.5661  0.8233
  109OSM   H10F11262   6.228   3.519   9.360 -0.5388  0.1650  0.5741
  109OSM   C11F11263   6.309   3.723   9.409 -0.0245  0.5316  0.2283
  109OSM   H11F11264   6.343   3.776   9.501  4.4293  0.1952 -1.0092
  109OSM   H11G11265   6.219   3.779   9.378 -1.2832 -1.0877  0.8156
  109OSM   C12F11266   6.432   3.735   9.320  1.4732 -0.1209  0.0297
  109OSM   H12F11267   6.507   3.655   9.338  1.8159 -0.1096 -1.2410
  109OSM   H12G11268   6.469   3.839   9.328 -1.6247  0.9958  1.3757
  109OSM   C13F11269   6.389   3.703   9.174 -0.0033  0.2576 -0.3494
  109OSM   H13F11270   6.294   3.755   9.148  0.5143  0.9356 -0.8936
  109OSM   H13G11271   6.363   3.596   9.166 -0.0328  0.2149  0.2366
  109OSM   C14F11272   6.494   3.733   9.063 -0.1857  0.4250  0.7055
  109OSM   H14F11273   6.560   3.644   9.059 -1.7690 -0.8178  1.4354
  109OSM   H14G11274   6.544   3.823   9.104  1.0290 -0.3447  0.9519
  109OSM   C15F11275   6.428   3.750   8.920 -0.4061 -0.0989  0.1376
  109OSM   H15F11276   6.510   3.772   8.848 -2.4474 -0.6312 -2.5223
  109OSM   H15G11277   6.351   3.831   8.916 -0.2911  0.2176  2.9033
  109OSM   C16F11278   6.361   3.617   8.875 -0.1143 -0.0608 -0.4614
  109OSM   H16F11279   6.278   3.590   8.944 -0.3023 -1.0968 -1.0736
  109OSM   H16G11280   6.436   3.536   8.874 -0.4560 -0.3974  0.2851
  109OSM   C17F11281   6.287   3.625   8.726 -0.1713 -0.3772 -0.4940
  109OSM   H17F11282   6.244   3.727   8.723  0.1638 -0.1978  0.4208
  109OSM   H17G11283   6.198   3.559   8.735 -0.5844  0.2348 -0.0538
  109OSM   C18F11284   6.358   3.581   8.595  0.0744 -0.1290 -0.3806
  109OSM   H18F11285   6.427   3.661   8.562 -0.4966  0.2242 -0.7456
  109OSM   H18G11286   6.291   3.553   8.510 -1.3094  1.8337 -0.0197
  109OSM   H18H11287   6.409   3.490   8.631  1.0510 -0.1358 -1.7226
  110OSM      N11288   0.039   1.101  11.008  0.4833 -0.0319  0.0346
  110OSM    C1511289  -0.025   1.234  10.972 -0.1730 -0.1559  0.8189
  110OSM   H15A11290   0.043   1.286  10.907  0.4156 -1.2220  0.5565
  110OSM   H15B11291  -0.019   1.301  11.057  1.7348 -1.6732  1.9690
  110OSM   H15C11292  -0.124   1.221  10.929  0.1469  1.0473 -0.3228
  110OSM    C1411293  -0.021   1.072  11.148 -0.0485 -0.4903  0.9421
  110OSM   H14A11294   0.021   1.138  11.222  0.4968  0.0873  0.1375
  110OSM   H14B11295   0.002   0.971  11.179  1.2597 -0.7616 -0.7113
  110OSM   H14C11296  -0.127   1.091  11.143  0.2293  1.0997  0.2924
  110OSM    C1311297  -0.001   0.998  10.915  0.4333 -0.6489  0.1741
  110OSM   H13A11298   0.032   0.898  10.937 -2.3780 -1.4407  1.2167
  110OSM   H13B11299   0.033   1.030  10.818  1.1012  1.7369  1.1110
  110OSM   H13C11300  -0.108   0.981  10.910  0.4759 -1.0625  0.6086
  110OSM    C1211301   0.187   1.095  11.027 -0.7436  0.0407  0.2788
  110OSM   H12A11302   0.212   1.004  11.079 -1.5682 -0.2089  0.2507
  110OSM   H12B11303   0.224   1.170  11.096  0.0908 -0.1501  0.0533
  110OSM    C1111304   0.269   1.110  10.893 -0.0510  0.3084  0.0346
  110OSM   H11A11305   0.240   1.041  10.811 -1.2399  1.4724 -0.5653
  110OSM   H11B11306   0.368   1.073  10.927  0.2274 -0.0218 -1.0874
  110OSM      P11307   0.383   1.350  10.874 -0.0974 -0.0863 -0.2068
  110OSM    O1311308   0.337   1.479  10.826  0.2880 -0.7231 -0.0892
  110OSM    O1411309   0.410   1.348  11.020  0.3957  0.6807 -0.7173
  110OSM    O1111310   0.512   1.307  10.807 -0.3557  0.4593  0.6545
  110OSM    O1211311   0.270   1.246  10.841  0.5858 -0.0545 -0.3214
  110OSM    C1S11312   0.513   1.233  10.687  0.2193 -0.1068  0.0558
  110OSM    H1S11313   0.420   1.173  10.681  0.8037 -1.1248  0.7715
  110OSM    H1T11314   0.579   1.144  10.695 -0.3385 -0.5188  0.1157
  110OSM     NF11315   0.499   1.263  10.446 -0.0265  0.7900 -0.1932
  110OSM    HNF11316   0.569   1.217  10.391 -2.3756  0.6911 -3.3537
  110OSM    C2S11317   0.550   1.323  10.564  0.8466 -0.1719 -0.6444
  110OSM    H2S11318   0.493   1.419  10.572 -0.8595 -1.1871  0.0142
  110OSM    C3S11319   0.696   1.346  10.571 -0.2098 -0.5432 -0.7924
  110OSM    H3S11320   0.742   1.247  10.554  0.7168 -0.3524  0.4607
  110OSM     O311321   0.741   1.396  10.700 -0.0189  0.2408 -0.3957
  110OSM    HO311322   0.665   1.386  10.757  0.8353 -1.7751  0.4822
  110OSM    C4S11323   0.744   1.441  10.459  0.0960 -0.5665 -0.1544
  110OSM    H4S11324   0.786   1.386  10.374  0.4523  1.6756 -1.5161
  110OSM    C5S11325   0.747   1.579  10.463  0.1213 -0.9024  0.1086
  110OSM    H5S11326   0.714   1.633  10.553  0.2317  1.0344 -0.9585
  110OSM    C6S11327   0.804   1.684  10.373 -0.0710  0.3660  0.3753
  110OSM    H6S11328   0.821   1.779  10.428 -3.7585  0.3467  1.8606
  110OSM    H6T11329   0.722   1.711  10.304  1.4563  1.5978 -1.0410
  110OSM    C7S11330   0.930   1.642  10.290  0.2090 -0.5913 -0.4274
  110OSM    H7S11331   0.921   1.536  10.258 -1.8667 -0.2787 -1.0167
  110OSM    H7T11332   1.017   1.643  10.360  1.1506 -2.8747 -1.4609
  110OSM    C8S11333   0.943   1.743  10.164 -0.3108  0.0347 -0.0560
  110OSM    H8S11334   0.973   1.840  10.209 -2.5685  0.1024  1.5094
  110OSM    H8T11335   0.842   1.760  10.121  0.8272  2.4059 -1.9990
  110OSM    C9S11336   1.047   1.699  10.059  0.2228  0.7880 -0.0698
  110OSM    H9S11337   1.006   1.617   9.996  2.0523 -0.7594  0.6548
  110OSM    H9T11338   1.128   1.649  10.116 -0.4491 -3.3710 -2.3140
  110OSM   C10S11339   1.106   1.828   9.994 -0.2831 -0.3561  0.5608
  110OSM   H10S11340   1.173   1.884  10.063  0.5382 -0.8847  0.1980
  110OSM   H10T11341   1.024   1.899   9.971  0.1751 -0.3347 -1.0690
  110OSM   C11S11342   1.190   1.805   9.869 -0.1558  0.4567  0.4276
  110OSM   H11S11343   1.264   1.724   9.886 -0.4444  0.0020 -0.4363
  110OSM   H11T11344   1.241   1.900   9.842  0.1310 -0.0767 -1.0338
  110OSM   C12S11345   1.104   1.770   9.751  0.6416  0.5365  0.0407
  110OSM   H12S11346   1.044   1.859   9.722 -0.0702  0.0862  0.1095
  110OSM   H12T11347   1.041   1.681   9.774  0.4197 -0.0015 -2.3631
  110OSM   C13S11348   1.182   1.733   9.624 -0.0978  0.2521 -0.2605
  110OSM   H13S11349   1.110   1.703   9.544 -0.6413 -0.0060  0.3081
  110OSM   H13T11350   1.244   1.642   9.643 -0.3916  0.0508 -0.2526
  110OSM   C14S11351   1.269   1.845   9.572  0.1664  0.1275  0.0602
  110OSM   H14S11352   1.351   1.874   9.641  0.2596 -1.4136  0.6224
  110OSM   H14T11353   1.197   1.929   9.571  2.0908  1.8970  1.0828
  110OSM   C15S11354   1.323   1.815   9.431 -0.2014  0.1306 -0.0976
  110OSM   H15S11355   1.244   1.768   9.369 -0.1715 -0.6473  0.4363
  110OSM   H15T11356   1.405   1.740   9.440 -0.9150 -0.7021 -0.4814
  110OSM   C16S11357   1.375   1.947   9.357  0.0934  0.3209  0.5032
  110OSM   H16S11358   1.462   1.975   9.420  1.7331 -0.3068 -1.3788
  110OSM   H16T11359   1.293   2.022   9.351  2.1904  2.7092  0.1058
  110OSM   C17S11360   1.418   1.916   9.208  0.8058 -0.8133 -0.6579
  110OSM   H17S11361   1.337   1.847   9.174  1.3644 -2.0501  0.4280
  110OSM   H17T11362   1.518   1.868   9.203  2.4377  1.8550  2.3623
  110OSM   C18S11363   1.413   2.041   9.127 -0.1008 -0.1689 -0.2628
  110OSM   H18S11364   1.494   2.110   9.159 -1.7072  0.7795  2.0301
  110OSM   H18T11365   1.311   2.084   9.134 -0.2617 -0.6294  0.3030
  110OSM   H18U11366   1.433   2.016   9.021  2.5755 -0.9505  0.3432
  110OSM    C1F11367   0.372   1.239  10.414  0.5545 -0.3202 -0.3805
  110OSM     OF11368   0.285   1.269  10.498 -0.3139 -0.1041  0.4404
  110OSM    C2F11369   0.333   1.185  10.282  0.0331 -0.3339 -0.0703
  110OSM    H2F11370   0.412   1.114  10.249 -0.3462 -1.6794  1.7361
  110OSM    H2G11371   0.318   1.272  10.215 -3.0808  0.3107  1.2597
  110OSM    C3F11372   0.186   1.131  10.294  0.4957  0.6021 -0.9536
  110OSM    H3F11373   0.115   1.210  10.326  1.2163  0.8755  0.0008
  110OSM    H3G11374   0.192   1.055  10.375 -0.6954  2.2078  0.7228
  110OSM    C4F11375   0.139   1.083  10.160  0.6450  0.6433 -1.2914
  110OSM    H4F11376   0.196   0.996  10.120  0.0670 -0.6720  0.5966
  110OSM    H4G11377   0.147   1.173  10.095 -0.9727  1.7474 -0.0492
  110OSM    C5F11378  -0.006   1.021  10.162 -0.0036 -0.5205  0.1095
  110OSM    H5F11379  -0.072   1.098  10.206  1.1787  0.4603  0.2152
  110OSM    H5G11380  -0.014   0.936  10.234 -2.1859 -0.9851 -0.6052
  110OSM    C6F11381  -0.042   0.978  10.025 -0.5662  0.8765  0.1202
  110OSM    H6F11382  -0.142   0.930  10.023 -1.0785  1.8988  0.6290
  110OSM    H6G11383   0.021   0.893   9.991 -2.1688 -0.5464  0.5750
  110OSM    C7F11384  -0.049   1.096   9.921 -0.0737 -0.2552 -0.8247
  110OSM    H7F11385   0.035   1.169   9.920 -1.7174  2.0324  3.0393
  110OSM    H7G11386  -0.142   1.149   9.949 -0.5275 -1.3979 -0.0737
  110OSM    C8F11387  -0.071   1.047   9.778 -0.6367 -0.1968 -0.0956
  110OSM    H8F11388  -0.101   1.127   9.707 -0.7615 -0.3845 -0.2556
  110OSM    H8G11389  -0.160   0.980   9.775 -1.5660  0.9905  0.0564
  110OSM    C9F11390   0.050   0.971   9.728  0.4135 -0.1517 -0.1247
  110OSM    H9F11391   0.121   0.959   9.810  0.7696  0.3371 -0.3585
  110OSM   C10F11392   0.062   0.909   9.609 -0.5305  0.1184 -0.0724
  110OSM   H10F11393   0.155   0.854   9.589 -0.2269  0.4712  0.3524
  110OSM   C11F11394  -0.046   0.915   9.499 -0.1959  0.3741 -0.9175
  110OSM   H11F11395  -0.127   0.982   9.535 -0.4236  0.2855 -1.2585
  110OSM   H11G11396  -0.083   0.810   9.493 -0.5107  0.4576 -0.5669
  110OSM   C12F11397   0.005   0.948   9.360 -0.1100  0.5499  0.0004
  110OSM   H12F11398  -0.080   0.959   9.288  1.5903  0.1447 -2.1883
  110OSM   H12G11399   0.052   0.858   9.313 -0.7775 -0.8341  1.8745
  110OSM   C13F11400   0.090   1.076   9.344 -0.4419 -0.6115  0.0936
  110OSM   H13F11401   0.189   1.056   9.390 -0.9341 -0.0490  1.4262
  110OSM   H13G11402   0.049   1.150   9.415  0.1178 -1.5673  1.4486
  110OSM   C14F11403   0.112   1.133   9.202  0.1294  0.3043  0.1085
  110OSM   H14F11404   0.012   1.163   9.164 -1.6586 -2.9661  1.7545
  110OSM   H14G11405   0.141   1.049   9.137  2.1634  1.8271 -1.0670
  110OSM   C15F11406   0.235   1.226   9.196 -0.4155 -0.6596 -0.2748
  110OSM   H15F11407   0.324   1.160   9.200 -0.3025 -0.5787 -1.2031
  110OSM   H15G11408   0.240   1.300   9.279 -2.5468 -1.9480  1.0756
  110OSM   C16F11409   0.259   1.293   9.056 -0.2870  0.0236 -0.3414
  110OSM   H16F11410   0.161   1.337   9.026 -0.2855 -1.5560 -2.9997
  110OSM   H16G11411   0.274   1.207   8.988  0.0241 -1.3733  1.4253
  110OSM   C17F11412   0.370   1.397   9.053  0.1795  0.3193  0.3013
  110OSM   H17F11413   0.366   1.439   9.155 -1.3102 -0.7904  0.7363
  110OSM   H17G11414   0.347   1.481   8.984  0.0031 -2.2582 -3.0962
  110OSM   C18F11415   0.514   1.349   9.031  0.2782  0.1100  0.6903
  110OSM   H18F11416   0.529   1.324   8.924  0.5314  0.6661  0.5944
  110OSM   H18G11417   0.540   1.261   9.094  0.4794  0.7683  1.5438
  110OSM   H18H11418   0.576   1.438   9.055 -1.3899  1.8211 -0.9429
  111OSM      N11419   0.800   6.717  10.989  0.4929 -0.6373 -0.3175
  111OSM    C1511420   0.923   6.800  11.026  0.8967  0.6184  0.3769
  111OSM   H15A11421   0.899   6.904  11.040  2.0782  0.6405  2.7537
  111OSM   H15B11422   0.997   6.787  10.948  0.1031 -1.9067 -0.0451
  111OSM   H15C11423   0.966   6.762  11.117  0.4575  2.3115  1.3234
  111OSM    C1411424   0.847   6.568  10.991  0.0117 -0.4021  0.3114
  111OSM   H14A11425   0.860   6.536  11.093  2.0250 -0.7503 -0.0229
  111OSM   H14B11426   0.938   6.554  10.934 -0.6085 -0.3619 -0.7189
  111OSM   H14C11427   0.770   6.505  10.949 -1.0061  0.6462  0.5498
  111OSM    C1311428   0.698   6.723  11.089  0.0874  0.6019  0.0784
  111OSM   H13A11429   0.634   6.809  11.072  1.4472  1.4152 -1.1201
  111OSM   H13B11430   0.741   6.716  11.187 -0.5976 -1.3504  0.2835
  111OSM   H13C11431   0.629   6.640  11.079  0.2738  0.3674  0.7019
  111OSM    C1211432   0.733   6.753  10.857 -0.0216  0.0546 -0.5356
  111OSM   H12A11433   0.644   6.690  10.859  0.8532 -1.2231  0.6270
  111OSM   H12B11434   0.804   6.726  10.781  2.5897 -1.6995  2.3128
  111OSM    C1111435   0.699   6.898  10.839 -0.6894  0.0617  0.1403
  111OSM   H11A11436   0.673   6.911  10.732  0.3168  0.2680 -0.0902
  111OSM   H11B11437   0.791   6.958  10.857 -1.2351  0.8651  0.3093
  111OSM      P11438   0.443   6.917  10.890  0.0840  0.2385 -0.0392
  111OSM    O1311439   0.433   6.817  10.783 -0.3811  0.0668 -0.0500
  111OSM    O1411440   0.369   6.886  11.011 -0.6393  0.5651  0.3835
  111OSM    O1111441   0.399   7.055  10.834  0.0523 -0.1286 -0.2893
  111OSM    O1211442   0.594   6.938  10.932 -0.6226 -0.4453  0.7211
  111OSM    C1S11443   0.483   7.148  10.757 -0.0420  0.6046  0.0699
  111OSM    H1S11444   0.588   7.156  10.794  0.8336  0.5250 -2.2515
  111OSM    H1T11445   0.446   7.252  10.767 -0.5356  0.5751 -1.3080
  111OSM     NF11446   0.588   7.214  10.536  0.1877 -0.3543  1.0566
  111OSM    HNF11447   0.556   7.284  10.473  2.2359  0.3037  0.6848
  111OSM    C2S11448   0.487   7.127  10.604  0.0998  0.4530  0.1378
  111OSM    H2S11449   0.514   7.022  10.577 -0.4881 -0.6982  3.4800
  111OSM    C3S11450   0.342   7.147  10.547 -0.0588 -0.2943 -0.3585
  111OSM    H3S11451   0.322   7.255  10.566  2.7696  0.9033 -3.2882
  111OSM     O311452   0.241   7.081  10.626 -0.3511  0.3252  0.0440
  111OSM    HO311453   0.294   7.043  10.697 -0.3712  0.5632  0.1880
  111OSM    C4S11454   0.336   7.115  10.399  0.2090 -0.4008  0.4961
  111OSM    H4S11455   0.364   7.202  10.338 -0.9395 -0.3453  0.0142
  111OSM    C5S11456   0.298   7.001  10.341 -0.0641  0.1122 -0.0949
  111OSM    H5S11457   0.260   6.920  10.405  1.6285 -2.5448 -2.2379
  111OSM    C6S11458   0.288   6.975  10.194 -0.2063 -0.4867 -0.4191
  111OSM    H6S11459   0.177   6.966  10.193 -0.2031 -0.7072  0.6556
  111OSM    H6T11460   0.336   6.885  10.150  0.2508 -0.0793 -0.7727
  111OSM    C7S11461   0.322   7.099  10.107 -0.4271  0.1181 -0.0529
  111OSM    H7S11462   0.425   7.134  10.128  0.3128  0.1190 -3.1906
  111OSM    H7T11463   0.256   7.183  10.136  0.8661  1.3470 -0.5482
  111OSM    C8S11464   0.293   7.069   9.965  0.0284  0.9100  0.4450
  111OSM    H8S11465   0.188   7.040   9.942 -0.2043  0.8168  1.5352
  111OSM    H8T11466   0.357   6.981   9.940 -0.1817  0.4544  1.4419
  111OSM    C9S11467   0.351   7.166   9.873  0.2678 -0.1553 -0.2636
  111OSM    H9S11468   0.456   7.196   9.894  0.4188 -0.6489 -0.3089
  111OSM    H9T11469   0.285   7.255   9.875  1.6454  0.8888  1.1755
  111OSM   C10S11470   0.346   7.108   9.727 -0.0050  0.0549  0.3798
  111OSM   H10S11471   0.250   7.070   9.687 -0.5153  1.6880 -0.0314
  111OSM   H10T11472   0.420   7.025   9.717 -0.0246 -0.0322  0.9315
  111OSM   C11S11473   0.370   7.224   9.627  0.1247 -0.1796 -0.1905
  111OSM   H11S11474   0.473   7.258   9.649  1.6231 -3.4223 -1.5099
  111OSM   H11T11475   0.291   7.300   9.647  0.1508 -0.4707  1.0901
  111OSM   C12S11476   0.371   7.172   9.479  0.1426 -0.3802  0.1552
  111OSM   H12S11477   0.331   7.252   9.412  0.4754 -0.6339 -0.3480
  111OSM   H12T11478   0.299   7.087   9.479 -0.3760  0.0514  0.0105
  111OSM   C13S11479   0.498   7.104   9.439  0.2562 -0.7186  0.0959
  111OSM   H13S11480   0.476   6.995   9.444  1.0923 -0.8622  1.0724
  111OSM   H13T11481   0.583   7.125   9.508 -0.4559  1.3910  0.3780
  111OSM   C14S11482   0.536   7.149   9.301  0.6549 -0.3290 -0.4521
  111OSM   H14S11483   0.441   7.165   9.244  0.7176  0.5642 -0.3132
  111OSM   H14T11484   0.599   7.075   9.248  3.6772  0.4323  1.8379
  111OSM   C15S11485   0.610   7.290   9.296 -0.1832 -0.1439 -0.5203
  111OSM   H15S11486   0.550   7.376   9.331  1.6171  0.5283  1.0679
  111OSM   H15T11487   0.630   7.313   9.189 -2.2307 -1.0585 -1.1616
  111OSM   C16S11488   0.743   7.294   9.371 -1.0377  0.4072 -0.1723
  111OSM   H16S11489   0.728   7.253   9.474  0.7370  3.6636  1.5528
  111OSM   H16T11490   0.770   7.401   9.383 -2.9973  0.9058  0.1813
  111OSM   C17S11491   0.860   7.221   9.297  0.4362  0.8193 -0.8622
  111OSM   H17S11492   0.831   7.133   9.234  1.4627  0.6021 -1.0435
  111OSM   H17T11493   0.927   7.181   9.375 -1.7690 -0.0987  0.6406
  111OSM   C18S11494   0.938   7.316   9.200 -0.1878  0.4488  0.2517
  111OSM   H18S11495   1.047   7.296   9.195 -0.5002 -1.9287  1.6695
  111OSM   H18T11496   0.920   7.421   9.231  0.6762  0.3120  1.2612
  111OSM   H18U11497   0.896   7.303   9.098 -0.2991 -0.3668  0.3957
  111OSM    C1F11498   0.719   7.210  10.561  0.5795  0.7166 -0.0546
  111OSM     OF11499   0.774   7.113  10.616 -0.7965 -0.0365  0.5489
  111OSM    C2F11500   0.792   7.313  10.498  0.3333 -0.8544  0.3529
  111OSM    H2F11501   0.891   7.317  10.548  1.0240 -0.1328 -1.0009
  111OSM    H2G11502   0.751   7.416  10.507  2.1566  0.1980 -2.1613
  111OSM    C3F11503   0.801   7.286  10.345  0.3130  0.3417 -0.2530
  111OSM    H3F11504   0.703   7.256  10.302 -1.6658 -0.4663  4.2342
  111OSM    H3G11505   0.858   7.192  10.331 -1.3558 -0.7576  0.0714
  111OSM    C4F11506   0.876   7.406  10.278  0.8532 -0.1621  0.7602
  111OSM    H4F11507   0.973   7.425  10.330  1.4374 -1.3238  0.1497
  111OSM    H4G11508   0.812   7.496  10.284  0.8943  0.1377 -2.1153
  111OSM    C5F11509   0.902   7.381  10.128 -0.2725  0.0456  0.3012
  111OSM    H5F11510   0.807   7.357  10.075 -1.0976 -2.7434  2.7745
  111OSM    H5G11511   0.964   7.289  10.123 -0.5564 -0.1184 -0.2348
  111OSM    C6F11512   0.981   7.497  10.062  0.3915  0.1058  0.1555
  111OSM    H6F11513   1.060   7.455   9.996 -2.1158 -1.2895 -2.1687
  111OSM    H6G11514   1.039   7.559  10.133 -0.4669  0.4205  0.5923
  111OSM    C7F11515   0.888   7.597   9.996  0.8954  0.3002 -0.2223
  111OSM    H7F11516   0.823   7.654  10.066  0.9117  4.6877 -3.3749
  111OSM    H7G11517   0.816   7.546   9.928  0.8890  0.8019 -0.5969
  111OSM    C8F11518   0.976   7.705   9.921  1.0421  0.0224  0.2933
  111OSM    H8F11519   1.049   7.757   9.987 -1.4608  1.7942  1.8581
  111OSM    H8G11520   0.919   7.792   9.880  1.1572 -0.0557 -0.0351
  111OSM    C9F11521   1.052   7.651   9.802  0.1085 -0.5292  0.4387
  111OSM    H9F11522   1.117   7.566   9.828  0.4955 -0.5254 -0.4628
  111OSM   C10F11523   1.041   7.695   9.675 -0.2994  0.0623  0.0303
  111OSM   H10F11524   1.112   7.653   9.601  1.0311  1.2730  0.5870
  111OSM   C11F11525   0.955   7.803   9.613 -0.2578 -0.2758  0.4640
  111OSM   H11F11526   1.029   7.870   9.564 -0.7559 -0.6775 -0.8849
  111OSM   H11G11527   0.898   7.857   9.691 -0.8743 -0.6113  0.2512
  111OSM   C12F11528   0.847   7.756   9.509 -0.6293 -0.1267  0.2588
  111OSM   H12F11529   0.779   7.842   9.495  1.3125  1.3574 -0.3512
  111OSM   H12G11530   0.778   7.677   9.547 -1.0250 -1.0655 -2.2215
  111OSM   C13F11531   0.905   7.718   9.368 -0.0746 -0.1128  0.0478
  111OSM   H13F11532   0.819   7.693   9.302  2.0489  0.5804 -3.1860
  111OSM   H13G11533   0.970   7.629   9.379 -0.3608 -0.4303 -0.7610
  111OSM   C14F11534   0.988   7.834   9.304  0.0234 -0.0780 -0.7637
  111OSM   H14F11535   1.092   7.832   9.345 -0.0854  2.3151 -0.2548
  111OSM   H14G11536   0.946   7.928   9.343 -0.2140 -1.0904  1.5685
  111OSM   C15F11537   1.002   7.825   9.147  0.5470 -1.0013 -0.3053
  111OSM   H15F11538   1.062   7.912   9.114  0.1414  0.3218  2.1832
  111OSM   H15G11539   0.897   7.834   9.113 -0.1113  1.5291  2.0544
  111OSM   C16F11540   1.067   7.698   9.108 -0.0648 -0.0111  0.5881
  111OSM   H16F11541   0.996   7.615   9.127 -0.3400 -0.0545 -0.5751
  111OSM   H16G11542   1.155   7.682   9.174  3.0189 -0.1508 -3.2050
  111OSM   C17F11543   1.121   7.715   8.968 -0.6989  0.1756  0.7259
  111OSM   H17F11544   1.202   7.791   8.969  1.8456 -2.3742  0.3989
  111OSM   H17G11545   1.040   7.748   8.898 -1.5576 -0.6354  1.3168
  111OSM   C18F11546   1.176   7.589   8.906 -0.2502  0.5464  1.6976
  111OSM   H18F11547   1.088   7.525   8.886  0.0957  0.5213  0.1439
  111OSM   H18G11548   1.244   7.547   8.983  0.2119  0.3147  1.1657
  111OSM   H18H11549   1.233   7.603   8.812  0.3185 -3.2224  1.3274
  112OSM      N11550   1.007   4.364  10.925 -0.6283 -0.4618 -0.6463
  112OSM    C1511551   1.062   4.435  10.804 -0.8369  0.3789 -0.3738
  112OSM   H15A11552   1.098   4.535  10.825  2.9177 -0.8385 -0.2372
  112OSM   H15B11553   0.992   4.437  10.722 -0.3048 -0.0472 -0.8422
  112OSM   H15C11554   1.153   4.381  10.783 -1.5342 -0.1977 -2.0346
  112OSM    C1411555   1.111   4.333  11.019 -0.2877 -0.4025  0.5659
  112OSM   H14A11556   1.170   4.257  10.970 -3.1648 -3.2814  1.1741
  112OSM   H14B11557   1.082   4.281  11.109  0.5947  0.8305  1.5966
  112OSM   H14C11558   1.176   4.416  11.041  0.1941 -0.9904  1.3753
  112OSM    C1311559   0.906   4.457  10.981  0.6691 -0.0355 -0.0990
  112OSM   H13A11560   0.842   4.471  10.895 -0.1882 -1.2434  0.3074
  112OSM   H13B11561   0.949   4.547  11.022 -0.5580  0.2686  0.5858
  112OSM   H13C11562   0.846   4.413  11.059  3.0998 -0.1533  1.8323
  112OSM    C1211563   0.953   4.225  10.886 -0.2333  0.7925  0.1074
  112OSM   H12A11564   0.852   4.235  10.847 -1.1677 -1.5665  1.7080
  112OSM   H12B11565   0.941   4.170  10.979  0.8408 -0.9547 -0.7417
  112OSM    C1111566   1.038   4.140  10.790  0.6071  0.7675 -0.3450
  112OSM   H11A11567   1.072   4.200  10.703  2.0798 -0.0352 -0.3471
  112OSM   H11B11568   0.984   4.052  10.748  2.2622  0.0727 -1.1092
  112OSM      P11569   1.148   3.978  10.970 -0.2450  0.5161  0.1488
  112OSM    O1311570   1.267   3.999  11.066 -0.3981 -0.0246 -0.0270
  112OSM    O1411571   1.018   3.984  11.040 -0.4538  0.2806  0.2278
  112OSM    O1111572   1.172   3.839  10.890  0.1363  1.1527 -0.1692
  112OSM    O1211573   1.153   4.093  10.856 -0.0781  0.8369 -0.1385
  112OSM    C1S11574   1.083   3.791  10.790  0.6840  0.3223  0.4081
  112OSM    H1S11575   0.988   3.849  10.789  0.8687  0.6460  1.2638
  112OSM    H1T11576   1.041   3.689  10.805 -2.0562  1.3809  0.6082
  112OSM     NF11577   1.027   3.741  10.554 -0.3173  0.0414 -0.2585
  112OSM    HNF11578   1.054   3.660  10.503  2.2956  0.1499  0.7935
  112OSM    C2S11579   1.136   3.783  10.646  0.1904 -0.3018 -0.0483
  112OSM    H2S11580   1.165   3.888  10.626 -0.8922  0.6545  2.8269
  112OSM    C3S11581   1.266   3.693  10.645  0.0879 -0.4753 -0.7000
  112OSM    H3S11582   1.235   3.590  10.675  1.2836 -1.0486 -1.3612
  112OSM     O311583   1.364   3.744  10.734 -0.0492 -0.2828  0.0237
  112OSM    HO311584   1.315   3.800  10.794  1.1825 -1.9900  2.7855
  112OSM    C4S11585   1.319   3.700  10.505  0.2081  0.2854 -0.3433
  112OSM    H4S11586   1.266   3.627  10.442 -2.3729  1.1284  0.7416
  112OSM    C5S11587   1.409   3.782  10.446 -0.3151  0.4209 -0.7342
  112OSM    H5S11588   1.451   3.865  10.505  0.8521 -0.1259 -0.7673
  112OSM    C6S11589   1.442   3.771  10.305 -0.3637 -0.2868 -0.2407
  112OSM    H6S11590   1.550   3.746  10.297 -0.5741 -1.5904  0.7648
  112OSM    H6T11591   1.430   3.875  10.266 -0.6917  0.7359  2.4150
  112OSM    C7S11592   1.366   3.686  10.211  0.0933 -0.0703  0.8219
  112OSM    H7S11593   1.256   3.698  10.220  0.1295  1.1632 -0.1035
  112OSM    H7T11594   1.387   3.578  10.226 -0.7482 -0.3120  0.3102
  112OSM    C8S11595   1.395   3.719  10.070 -0.1991  0.2925 -0.0325
  112OSM    H8S11596   1.506   3.718  10.067 -0.1240  1.1155  1.5119
  112OSM    H8T11597   1.364   3.821  10.037 -1.9269  0.2078  1.1496
  112OSM    C9S11598   1.345   3.626   9.955 -0.3293  0.3413  0.4048
  112OSM    H9S11599   1.235   3.627   9.939 -0.3208 -3.5096 -1.1073
  112OSM    H9T11600   1.373   3.521   9.979 -2.7006 -0.6156 -0.7487
  112OSM   C10S11601   1.432   3.664   9.835  0.4264  0.4921  0.9841
  112OSM   H10S11602   1.537   3.644   9.867  0.3398  0.9562  1.5844
  112OSM   H10T11603   1.424   3.772   9.814 -0.2051  0.1632 -0.5855
  112OSM   C11S11604   1.403   3.570   9.716 -0.4846  0.0393  0.3650
  112OSM   H11S11605   1.295   3.547   9.722 -0.8064  1.5367  0.7675
  112OSM   H11T11606   1.462   3.478   9.732  0.2169  0.2716 -0.7535
  112OSM   C12S11607   1.444   3.623   9.580  0.1482  0.6676  0.8322
  112OSM   H12S11608   1.552   3.647   9.571  0.3879 -1.0130 -2.4594
  112OSM   H12T11609   1.394   3.718   9.552 -0.9378  0.5269  2.1885
  112OSM   C13S11610   1.431   3.514   9.479 -0.2437  0.1138 -0.4814
  112OSM   H13S11611   1.338   3.459   9.503 -0.4619  0.7849  0.2308
  112OSM   H13T11612   1.513   3.442   9.503 -0.7862 -0.3746 -0.0867
  112OSM   C14S11613   1.428   3.569   9.336 -0.0266  0.9558  0.2677
  112OSM   H14S11614   1.530   3.589   9.297  1.1223 -2.1351  1.3368
  112OSM   H14T11615   1.361   3.656   9.322 -2.6392 -1.1131 -0.8848
  112OSM   C15S11616   1.360   3.468   9.244 -0.4759 -0.1304  0.0503
  112OSM   H15S11617   1.322   3.518   9.152 -0.6997 -1.7912 -0.7927
  112OSM   H15T11618   1.274   3.423   9.298  0.6380 -2.3408  0.0611
  112OSM   C16S11619   1.448   3.349   9.206 -0.0304 -0.1969 -0.0489
  112OSM   H16S11620   1.469   3.292   9.299  1.9383  3.0401  1.6982
  112OSM   H16T11621   1.542   3.377   9.152  1.0421 -2.8392  0.2859
  112OSM   C17S11622   1.383   3.251   9.103 -0.3155  0.4637 -0.5605
  112OSM   H17S11623   1.388   3.293   9.000  0.5743 -2.8576 -2.0036
  112OSM   H17T11624   1.276   3.225   9.118 -0.8567  2.9766  0.4723
  112OSM   C18S11625   1.465   3.128   9.097  0.0861  0.2197 -0.3100
  112OSM   H18S11626   1.460   3.067   9.189 -0.3186  0.0407 -0.4496
  112OSM   H18T11627   1.570   3.159   9.078  0.0478  1.2023  0.9690
  112OSM   H18U11628   1.438   3.049   9.023  0.2386  0.0045 -0.1377
  112OSM    C1F11629   0.902   3.799  10.539 -0.3786 -1.3796 -0.3810
  112OSM     OF11630   0.881   3.916  10.572 -0.3546  0.4474  0.0638
  112OSM    C2F11631   0.797   3.708  10.486 -0.0519  0.4676 -0.0482
  112OSM    H2F11632   0.710   3.722  10.554 -0.6737 -0.1033 -0.7191
  112OSM    H2G11633   0.832   3.605  10.508  0.8531  0.6685 -0.5159
  112OSM    C3F11634   0.744   3.731  10.343  0.5580 -0.0420  0.5452
  112OSM    H3F11635   0.694   3.830  10.329  0.9072 -0.1348 -1.7576
  112OSM    H3G11636   0.660   3.663  10.318  0.0186  0.7321  0.2184
  112OSM    C4F11637   0.871   3.723  10.244 -0.3764  0.4227  0.2608
  112OSM    H4F11638   0.932   3.634  10.271  2.0047  1.7972 -0.2843
  112OSM    H4G11639   0.932   3.815  10.260 -2.4371  1.9989 -0.4702
  112OSM    C5F11640   0.820   3.718  10.098  0.6747 -0.4264  0.0375
  112OSM    H5F11641   0.764   3.814  10.096  0.7112 -0.3725  1.0495
  112OSM    H5G11642   0.752   3.631  10.081 -0.5846  0.7857 -1.4839
  112OSM    C6F11643   0.920   3.725   9.988 -0.2663  0.1783  0.3146
  112OSM    H6F11644   1.001   3.649   9.989 -1.5025 -1.1932 -0.1530
  112OSM    H6G11645   0.959   3.828  10.003 -0.9753  0.3341  1.1369
  112OSM    C7F11646   0.853   3.738   9.848  0.6641  0.4416  0.4565
  112OSM    H7F11647   0.766   3.806   9.835  1.1155  0.8373 -0.5772
  112OSM    H7G11648   0.817   3.636   9.822  0.2650  1.2340 -2.3868
  112OSM    C8F11649   0.947   3.785   9.739 -0.2299  0.3429 -0.8297
  112OSM    H8F11650   1.039   3.724   9.747  0.1754  1.0044 -0.4514
  112OSM    H8G11651   0.982   3.887   9.762 -2.8278  1.4346 -1.2686
  112OSM    C9F11652   0.880   3.788   9.599  0.2685 -0.2309 -0.7580
  112OSM    H9F11653   0.806   3.869   9.589  2.0627  1.3706 -1.7594
  112OSM   C10F11654   0.928   3.727   9.492 -0.4954  0.9050  0.5066
  112OSM   H10F11655   0.874   3.737   9.397 -0.1090 -0.3267  0.1386
  112OSM   C11F11656   1.049   3.624   9.471  0.5144 -1.0340 -0.4635
  112OSM   H11F11657   1.116   3.619   9.560  0.2786 -0.8893 -0.2751
  112OSM   H11G11658   1.123   3.655   9.395  0.1796 -1.4841 -0.9752
  112OSM   C12F11659   0.989   3.486   9.434 -0.2511  0.1926  0.6507
  112OSM   H12F11660   0.918   3.447   9.510  0.1271 -1.2866  0.2674
  112OSM   H12G11661   1.068   3.408   9.438  1.7457  2.0853  0.0182
  112OSM   C13F11662   0.923   3.480   9.292 -0.1473 -0.4628  0.1815
  112OSM   H13F11663   0.826   3.532   9.288  0.4920  0.6843 -2.8662
  112OSM   H13G11664   0.900   3.372   9.280 -1.0123 -0.0676 -2.2775
  112OSM   C14F11665   1.010   3.517   9.171  0.5882  0.3133  0.1706
  112OSM   H14F11666   1.102   3.456   9.160  0.5810  0.4773 -0.8953
  112OSM   H14G11667   1.037   3.625   9.181 -2.1980  1.4757 -2.9240
  112OSM   C15F11668   0.938   3.504   9.039  0.0279  0.2351  0.5097
  112OSM   H15F11669   1.003   3.538   8.954 -0.2975 -0.7293 -0.1360
  112OSM   H15G11670   0.846   3.566   9.035 -0.1839  0.0254  1.9641
  112OSM   C16F11671   0.900   3.361   8.993  0.4424 -0.3918  0.8070
  112OSM   H16F11672   0.832   3.322   9.072  0.1796 -1.3198  0.1452
  112OSM   H16G11673   0.978   3.281   9.002  1.0945  0.2049  0.5224
  112OSM   C17F11674   0.829   3.332   8.858 -0.0341 -0.9842 -0.0633
  112OSM   H17F11675   0.728   3.378   8.866  0.7679  0.9213 -0.3260
  112OSM   H17G11676   0.817   3.223   8.845 -0.6647 -0.8339 -0.8779
  112OSM   C18F11677   0.901   3.382   8.728  0.0690  0.0682 -0.6093
  112OSM   H18F11678   0.964   3.302   8.683  1.1056  0.4861  0.0649
  112OSM   H18G11679   0.962   3.471   8.754  1.0721 -0.9850  0.8191
  112OSM   H18H11680   0.824   3.413   8.655  1.0999  0.9570 -1.3572
  113OSM      N11681   0.883   3.047  11.201 -0.7191  0.2392  0.1181
  113OSM    C1511682   0.860   2.930  11.289  0.4852 -0.0391  0.2082
  113OSM   H15A11683   0.945   2.862  11.289  0.5485  0.0242 -0.9035
  113OSM   H15B11684   0.774   2.874  11.255 -0.8144  0.8084  1.9230
  113OSM   H15C11685   0.829   2.964  11.387  1.4434 -5.1432  2.6853
  113OSM    C1411686   0.756   3.116  11.176  0.5447  0.3472 -0.4003
  113OSM   H14A11687   0.684   3.045  11.139  2.2529 -2.2025  0.8924
  113OSM   H14B11688   0.769   3.186  11.094  0.2233  0.1044 -0.6648
  113OSM   H14C11689   0.721   3.177  11.257 -1.9797 -0.5915 -0.7043
  113OSM    C1311690   0.981   3.139  11.271  0.2764 -0.2575 -0.1383
  113OSM   H13A11691   1.078   3.095  11.294 -0.5710 -0.7654  2.9991
  113OSM   H13B11692   0.947   3.171  11.368  0.4141 -2.7305  0.8143
  113OSM   H13C11693   0.998   3.227  11.211  2.0524  0.3583  1.1904
  113OSM    C1211694   0.941   2.996  11.067  0.2807 -0.6553 -0.2852
  113OSM   H12A11695   0.876   2.921  11.025  0.2139 -0.8446  0.1527
  113OSM   H12B11696   1.039   2.955  11.085  0.2026 -0.3617  0.8980
  113OSM    C1111697   0.969   3.110  10.959  0.1904 -0.0821 -0.2595
  113OSM   H11A11698   0.904   3.078  10.874 -0.4380  0.7030 -0.0799
  113OSM   H11B11699   1.077   3.098  10.938  0.6423  0.2664  1.6833
  113OSM      P11700   1.047   3.356  10.993 -0.0317 -0.2362  0.2707
  113OSM    O1311701   0.971   3.481  10.987  0.6341 -0.6247  0.1509
  113OSM    O1411702   1.146   3.338  11.105 -0.4410 -0.4361 -0.0158
  113OSM    O1111703   1.123   3.337  10.855  0.1095  0.2347  0.4415
  113OSM    O1211704   0.939   3.244  10.998 -0.6222 -0.0482 -0.0115
  113OSM    C1S11705   1.051   3.337  10.732 -0.5397 -0.0539  0.6335
  113OSM    H1S11706   1.035   3.443  10.705  0.6157  0.3245  1.3642
  113OSM    H1T11707   0.952   3.288  10.738 -0.1059 -0.8240  2.1665
  113OSM     NF11708   1.046   3.264  10.498 -0.4366 -0.1124  0.3864
  113OSM    HNF11709   0.970   3.199  10.498  0.0796 -0.7494  1.7869
  113OSM    C2S11710   1.132   3.269  10.616  0.0531  0.4277 -0.6156
  113OSM    H2S11711   1.221   3.333  10.600  0.4136  0.8358  2.4161
  113OSM    C3S11712   1.183   3.126  10.661  0.2745  0.1695  0.5940
  113OSM    H3S11713   1.096   3.068  10.700  2.1437 -2.0996  1.5950
  113OSM     O311714   1.285   3.124  10.758  0.0988 -0.2990 -0.5856
  113OSM    HO311715   1.294   3.209  10.803  3.2271 -1.5169  1.4104
  113OSM    C4S11716   1.246   3.065  10.534 -0.0751  0.0841  0.2236
  113OSM    H4S11717   1.288   3.141  10.466  0.8427 -1.2790 -0.7720
  113OSM    C5S11718   1.265   2.939  10.488  0.0594 -0.3472  0.3169
  113OSM    H5S11719   1.229   2.849  10.540 -0.6833 -0.3084 -0.1175
  113OSM    C6S11720   1.342   2.908  10.357  0.3443 -0.0120 -0.1441
  113OSM    H6S11721   1.383   2.805  10.363  1.0242  0.1333 -1.8992
  113OSM    H6T11722   1.429   2.976  10.351  0.3060 -0.0529 -1.3184
  113OSM    C7S11723   1.253   2.918  10.236  0.2326  0.5197  0.0918
  113OSM    H7S11724   1.211   3.021  10.240 -1.7978 -0.0902 -2.8977
  113OSM    H7T11725   1.171   2.844  10.248  1.3978 -0.7911  0.2021
  113OSM    C8S11726   1.317   2.882  10.099  0.2176  0.5912 -0.4840
  113OSM    H8S11727   1.385   2.796  10.117  0.5557  0.7712 -0.8707
  113OSM    H8T11728   1.390   2.958  10.064  1.9392 -0.0846  1.4079
  113OSM    C9S11729   1.213   2.841   9.994 -0.1973  0.0197  0.0835
  113OSM    H9S11730   1.154   2.930   9.965  0.2282  0.4938  0.6307
  113OSM    H9T11731   1.139   2.775  10.044  1.7918 -2.6781 -0.3004
  113OSM   C10S11732   1.272   2.757   9.881 -0.1883 -0.2346 -0.1586
  113OSM   H10S11733   1.313   2.666   9.929 -2.4916  0.3096  3.1957
  113OSM   H10T11734   1.362   2.809   9.842 -1.3430  0.7540 -1.6109
  113OSM   C11S11735   1.174   2.721   9.763  0.0418 -0.2730  0.1315
  113OSM   H11S11736   1.138   2.821   9.730  0.1552 -0.5540 -0.8613
  113OSM   H11T11737   1.099   2.655   9.811 -0.9175 -0.3284 -1.3909
  113OSM   C12S11738   1.226   2.644   9.643  0.9630  0.3527  1.1758
  113OSM   H12S11739   1.309   2.704   9.601 -0.2021  1.7780  0.8065
  113OSM   H12T11740   1.146   2.647   9.566  1.9925 -0.5963  0.0367
  113OSM   C13S11741   1.274   2.507   9.672  0.2074  0.8773 -0.0075
  113OSM   H13S11742   1.360   2.516   9.742  0.0562 -2.4307  0.7764
  113OSM   H13T11743   1.315   2.459   9.581  0.6965  1.0045  0.1412
  113OSM   C14S11744   1.168   2.401   9.729  0.1447 -0.5601 -0.2510
  113OSM   H14S11745   1.143   2.431   9.834  0.6106 -1.1412  0.0289
  113OSM   H14T11746   1.218   2.303   9.747 -1.1084 -0.6376  4.0565
  113OSM   C15S11747   1.049   2.376   9.637 -0.2216  0.5547 -0.2755
  113OSM   H15S11748   1.007   2.475   9.611  0.2638  2.0531  3.8875
  113OSM   H15T11749   0.976   2.323   9.702  0.2421  1.4764  1.0482
  113OSM   C16S11750   1.075   2.292   9.515 -0.1840 -0.1070 -1.0011
  113OSM   H16S11751   1.104   2.188   9.542  2.4995  1.1116  1.2785
  113OSM   H16T11752   1.154   2.338   9.453  0.0964 -0.9539 -1.2823
  113OSM   C17S11753   0.948   2.288   9.421  0.3071 -0.3749 -0.0349
  113OSM   H17S11754   0.979   2.248   9.322  0.0502  1.8000 -1.0671
  113OSM   H17T11755   0.918   2.394   9.405 -0.2409 -0.4306  0.5890
  113OSM   C18S11756   0.826   2.202   9.456 -0.4692  0.3573  0.0020
  113OSM   H18S11757   0.771   2.245   9.543  0.7321 -0.1726  1.0520
  113OSM   H18T11758   0.862   2.104   9.491  0.6524  1.1501  1.1607
  113OSM   H18U11759   0.757   2.193   9.370 -1.1023 -0.8249  0.6104
  113OSM    C1F11760   1.047   3.356  10.405 -0.8176 -0.1149  0.9942
  113OSM     OF11761   1.098   3.467  10.427 -0.4666 -0.7924  0.6220
  113OSM    C2F11762   0.987   3.323  10.273 -0.1110  0.6987  0.6612
  113OSM    H2F11763   0.880   3.350  10.280 -0.0964  1.1244 -0.5288
  113OSM    H2G11764   1.004   3.214  10.266  3.7658  1.1900  0.0275
  113OSM    C3F11765   1.044   3.393  10.148 -0.2036 -0.1290 -0.4470
  113OSM    H3F11766   1.155   3.394  10.144 -0.1865  1.0084  0.1171
  113OSM    H3G11767   1.015   3.500  10.145 -0.4477 -0.1526  0.7242
  113OSM    C4F11768   1.002   3.329  10.020  0.7613 -0.0508 -0.0290
  113OSM    H4F11769   0.893   3.309  10.025  0.9055 -1.6396 -2.0702
  113OSM    H4G11770   1.053   3.230  10.021 -0.0718 -0.5556 -2.2533
  113OSM    C5F11771   1.031   3.399   9.884  0.4066  0.5287 -0.7734
  113OSM    H5F11772   1.125   3.460   9.886 -1.2555  3.4364 -2.9614
  113OSM    H5G11773   0.954   3.472   9.851  0.9319  1.0045 -0.9880
  113OSM    C6F11774   1.040   3.285   9.778  0.3597 -0.4768 -0.0415
  113OSM    H6F11775   1.025   3.332   9.679 -3.4439 -0.5460  0.3506
  113OSM    H6G11776   0.951   3.219   9.792 -1.2185  1.3237 -1.2111
  113OSM    C7F11777   1.174   3.209   9.783 -0.5952 -0.0948  0.1790
  113OSM    H7F11778   1.188   3.161   9.883  0.2780  1.2159  0.7128
  113OSM    H7G11779   1.254   3.285   9.775  0.4280 -1.0265  1.0738
  113OSM    C8F11780   1.184   3.116   9.667  0.1548  0.4284 -0.3270
  113OSM    H8F11781   1.088   3.065   9.642  0.1135  1.5141 -2.5561
  113OSM    H8G11782   1.241   3.028   9.705 -1.8559 -0.9753 -0.4180
  113OSM    C9F11783   1.248   3.175   9.547 -0.6768  0.5772  0.0759
  113OSM    H9F11784   1.344   3.229   9.555 -0.0791 -0.5659  0.8072
  113OSM   C10F11785   1.208   3.156   9.420 -0.2419  0.1478 -0.4007
  113OSM   H10F11786   1.272   3.201   9.343  4.2454  0.0942  2.9096
  113OSM   C11F11787   1.081   3.083   9.372  0.6876  0.4759 -0.0422
  113OSM   H11F11788   1.004   3.157   9.340 -0.4267 -0.3123  0.7379
  113OSM   H11G11789   1.033   3.019   9.449  1.5939 -0.1541  0.0002
  113OSM   C12F11790   1.108   2.995   9.252 -0.8060  0.8604  0.5440
  113OSM   H12F11791   1.138   3.053   9.161 -4.0548  0.7314 -0.7136
  113OSM   H12G11792   1.010   2.955   9.219  0.0228 -0.1757 -0.7860
  113OSM   C13F11793   1.195   2.875   9.282 -0.0334 -0.1961 -0.8998
  113OSM   H13F11794   1.179   2.828   9.382 -0.8612  0.9829 -0.4556
  113OSM   H13G11795   1.299   2.912   9.269 -0.5699  1.5232 -0.5985
  113OSM   C14F11796   1.166   2.767   9.175  0.1256  0.1915 -0.0694
  113OSM   H14F11797   1.163   2.813   9.074  1.0607  0.0621 -0.1734
  113OSM   H14G11798   1.065   2.728   9.199 -1.6122  2.5783 -2.7454
  113OSM   C15F11799   1.277   2.660   9.161  0.0121 -0.8852 -1.2026
  113OSM   H15F11800   1.377   2.706   9.152  0.4754 -1.0543  2.0243
  113OSM   H15G11801   1.253   2.598   9.072 -0.5791  2.1132 -3.2636
  113OSM   C16F11802   1.270   2.561   9.282 -0.3678  0.5183  0.2496
  113OSM   H16F11803   1.166   2.536   9.312 -0.0239 -0.8755  0.3635
  113OSM   H16G11804   1.312   2.615   9.370  2.2452 -1.5355  0.4175
  113OSM   C17F11805   1.356   2.438   9.254 -0.0736 -0.3225 -0.5674
  113OSM   H17F11806   1.322   2.367   9.176 -0.6185  0.9045 -1.4793
  113OSM   H17G11807   1.345   2.383   9.350  2.3581  1.6639  0.9790
  113OSM   C18F11808   1.505   2.463   9.232 -0.2099  0.5759 -0.0799
  113OSM   H18F11809   1.531   2.499   9.130  2.0366 -1.5713 -0.3720
  113OSM   H18G11810   1.552   2.362   9.233  0.6199  0.9592  0.6965
  113OSM   H18H11811   1.540   2.515   9.323 -1.8842 -2.4311  2.4553
  114OSM      N11812   2.247   3.192  11.380  0.7715 -0.3173 -0.7481
  114OSM    C1511813   2.374   3.225  11.454 -0.5875  0.6540  0.5014
  114OSM   H15A11814   2.438   3.291  11.398 -0.4701  0.8707  0.8872
  114OSM   H15B11815   2.441   3.141  11.465  0.0066  1.2646  1.7490
  114OSM   H15C11816   2.355   3.268  11.551  1.8598  0.9576  0.8997
  114OSM    C1411817   2.164   3.312  11.349  0.3988 -0.1783 -0.3496
  114OSM   H14A11818   2.064   3.287  11.316  0.1671 -0.1463  0.3194
  114OSM   H14B11819   2.209   3.368  11.268  0.5851  2.1075  1.2337
  114OSM   H14C11820   2.160   3.376  11.436 -1.5677 -2.1209  1.1024
  114OSM    C1311821   2.271   3.123  11.248 -0.1145 -0.6895  0.1902
  114OSM   H13A11822   2.327   3.181  11.176 -0.8402 -1.9089 -1.4119
  114OSM   H13B11823   2.174   3.095  11.211 -0.0572  1.2431 -1.6257
  114OSM   H13C11824   2.309   3.024  11.264  2.6885  0.4088  0.9252
  114OSM    C1211825   2.175   3.090  11.472  0.0911 -0.4665 -0.2837
  114OSM   H12A11826   2.171   3.133  11.571  1.9441 -1.5497  0.2942
  114OSM   H12B11827   2.238   3.003  11.475  2.4439  1.1733  1.6487
  114OSM    C1111828   2.038   3.039  11.420 -0.2646 -0.1669 -0.3673
  114OSM   H11A11829   2.009   2.982  11.511 -1.0173 -0.2432 -0.6554
  114OSM   H11B11830   2.050   2.973  11.332  0.3547 -2.1667  1.1579
  114OSM      P11831   1.781   3.087  11.375 -0.3707  0.0803 -0.4104
  114OSM    O1311832   1.756   2.949  11.417  0.3948 -0.0743  0.0422
  114OSM    O1411833   1.692   3.189  11.434  0.4754 -0.1882  0.4970
  114OSM    O1111834   1.759   3.092  11.221 -0.1745  0.0232  0.4857
  114OSM    O1211835   1.932   3.132  11.397 -0.3195  0.3283 -0.1869
  114OSM    C1S11836   1.860   3.153  11.138 -0.8479  0.5382 -0.7249
  114OSM    H1S11837   1.958   3.100  11.139 -1.5916 -0.9780 -2.3976
  114OSM    H1T11838   1.879   3.258  11.168  0.4920  0.2693 -0.5506
  114OSM     NF11839   1.921   3.217  10.910 -0.5123 -0.3974  0.0530
  114OSM    HNF11840   1.889   3.297  10.860  1.6791  1.0507  0.8411
  114OSM    C2S11841   1.810   3.170  10.996  0.8170 -0.6081 -0.1301
  114OSM    H2S11842   1.784   3.067  10.962 -1.4431 -0.2414  0.3239
  114OSM    C3S11843   1.683   3.259  10.984 -0.0272  0.3649  0.5176
  114OSM    H3S11844   1.704   3.364  11.015 -1.5646  1.3909 -1.6417
  114OSM     O311845   1.578   3.216  11.072  1.0513 -0.1477 -0.0250
  114OSM    HO311846   1.628   3.191  11.151  0.9960 -1.1525 -0.3010
  114OSM    C4S11847   1.626   3.269  10.842 -0.5882  0.2269 -0.3747
  114OSM    H4S11848   1.623   3.176  10.784  1.3477  0.3698 -0.7965
  114OSM    C5S11849   1.592   3.378  10.779 -0.0532 -0.2472 -0.3650
  114OSM    H5S11850   1.603   3.478  10.822 -2.0718 -0.8363  1.7462
  114OSM    C6S11851   1.533   3.373  10.640  0.4547 -0.0787  0.1264
  114OSM    H6S11852   1.511   3.475  10.604 -1.2480 -0.2373  0.6351
  114OSM    H6T11853   1.435   3.321  10.636 -0.0333  0.8809 -0.5060
  114OSM    C7S11854   1.619   3.306  10.527  0.6252 -0.1842 -0.0632
  114OSM    H7S11855   1.645   3.203  10.558 -2.5855 -0.9535  0.4536
  114OSM    H7T11856   1.708   3.371  10.511  0.4709  0.9476  3.0305
  114OSM    C8S11857   1.538   3.286  10.400 -0.2093 -1.2653 -0.0491
  114OSM    H8S11858   1.470   3.373  10.397  2.0027  0.6776  2.2928
  114OSM    H8T11859   1.471   3.198  10.412 -4.1313  1.4349 -0.3621
  114OSM    C9S11860   1.618   3.278  10.268  0.4489 -0.7013 -0.2056
  114OSM    H9S11861   1.715   3.225  10.277 -0.2533 -2.0857 -0.4680
  114OSM    H9T11862   1.634   3.381  10.228 -0.8178 -0.5780 -0.4597
  114OSM   C10S11863   1.544   3.205  10.158 -0.1715 -0.3248  0.9361
  114OSM   H10S11864   1.435   3.228  10.159 -0.2422 -0.6205  0.3427
  114OSM   H10T11865   1.553   3.096  10.176 -0.0776 -0.5235 -0.2387
  114OSM   C11S11866   1.597   3.249  10.026 -0.2139 -0.2300 -0.7717
  114OSM   H11S11867   1.706   3.246  10.046 -0.7202 -0.2230  2.5921
  114OSM   H11T11868   1.582   3.358  10.009  0.5147 -0.1191 -0.7453
  114OSM   C12S11869   1.541   3.186   9.894  0.2322 -0.4274 -0.2413
  114OSM   H12S11870   1.464   3.256   9.857  1.1044  0.7634  0.1495
  114OSM   H12T11871   1.499   3.086   9.918  2.2771 -1.0950  0.8416
  114OSM   C13S11872   1.652   3.151   9.797 -0.5989  0.1412 -0.4319
  114OSM   H13S11873   1.726   3.083   9.845  0.2736  1.9145  0.8567
  114OSM   H13T11874   1.708   3.245   9.779 -1.9884  0.8031 -1.4744
  114OSM   C14S11875   1.613   3.073   9.666  0.3286  0.0269  0.0965
  114OSM   H14S11876   1.549   3.139   9.603 -0.3037  1.5525  2.2212
  114OSM   H14T11877   1.551   2.987   9.699  1.4944 -0.3247  1.4536
  114OSM   C15S11878   1.721   3.015   9.583 -0.5500 -0.0198 -0.0323
  114OSM   H15S11879   1.778   2.936   9.636 -3.6928 -0.9190  2.2611
  114OSM   H15T11880   1.790   3.101   9.563 -1.3250  0.4725 -0.6789
  114OSM   C16S11881   1.671   2.949   9.452  0.5572  0.0002 -0.2040
  114OSM   H16S11882   1.603   3.029   9.416  0.0825  0.4983  1.6810
  114OSM   H16T11883   1.619   2.857   9.484 -1.0478  0.5923 -1.0151
  114OSM   C17S11884   1.767   2.901   9.345  0.7109 -0.0161 -0.7759
  114OSM   H17S11885   1.840   2.839   9.401  1.4338  2.1492  0.8378
  114OSM   H17T11886   1.828   2.983   9.301  0.6906 -0.2074 -1.1676
  114OSM   C18S11887   1.703   2.821   9.236  0.1120  0.6367  0.6598
  114OSM   H18S11888   1.665   2.727   9.281  2.3545 -0.4682  0.3786
  114OSM   H18T11889   1.774   2.805   9.152 -1.5207  0.1837 -0.6969
  114OSM   H18U11890   1.614   2.868   9.189  0.1179  0.1650  0.1582
  114OSM    C1F11891   2.048   3.176  10.895 -0.6482 -0.2701 -0.3202
  114OSM     OF11892   2.079   3.073  10.950  0.9384  0.0473  0.0172
  114OSM    C2F11893   2.141   3.252  10.812  0.3645 -0.6061  0.0644
  114OSM    H2F11894   2.122   3.361  10.829 -1.1894 -0.9369  0.6390
  114OSM    H2G11895   2.126   3.221  10.707  0.2542 -2.0720  0.4974
  114OSM    C3F11896   2.289   3.229  10.849  0.3087  0.3033 -0.0277
  114OSM    H3F11897   2.313   3.123  10.826  0.6124  0.2840  0.3734
  114OSM    H3G11898   2.294   3.248  10.958  0.7743  0.9449 -0.1524
  114OSM    C4F11899   2.389   3.315  10.776  0.0945  0.0518  0.3394
  114OSM    H4F11900   2.490   3.282  10.810 -0.4337 -3.4406 -1.0978
  114OSM    H4G11901   2.375   3.420  10.809 -0.1345 -0.0490  0.5673
  114OSM    C5F11902   2.387   3.312  10.624 -0.3046  0.1153 -0.7574
  114OSM    H5F11903   2.297   3.261  10.583  0.4160 -2.6174  0.8381
  114OSM    H5G11904   2.470   3.248  10.589  0.7532  0.7887  0.4371
  114OSM    C6F11905   2.386   3.450  10.554 -0.0161 -0.1983 -0.9920
  114OSM    H6F11906   2.436   3.531  10.611  0.0993  0.1080 -1.5235
  114OSM    H6G11907   2.288   3.498  10.534 -0.2305  0.0336  0.4770
  114OSM    C7F11908   2.466   3.441  10.421 -0.1075  0.0499  0.1205
  114OSM    H7F11909   2.421   3.358  10.362 -2.5983  0.7504  0.9151
  114OSM    H7G11910   2.565   3.409  10.461  0.7185  2.2055 -0.0613
  114OSM    C8F11911   2.482   3.566  10.342  1.0407 -0.1269  0.8936
  114OSM    H8F11912   2.551   3.539  10.259 -1.0865 -0.8628 -0.7427
  114OSM    H8G11913   2.542   3.646  10.390 -0.7524  0.9375  1.4399
  114OSM    C9F11914   2.343   3.611  10.297  0.2406  0.0629 -0.9265
  114OSM    H9F11915   2.281   3.653  10.377 -1.8095 -2.0068 -1.3358
  114OSM   C10F11916   2.293   3.598  10.175 -0.4246  1.1521 -0.1496
  114OSM   H10F11917   2.186   3.620  10.162 -0.5298  0.2685 -0.8221
  114OSM   C11F11918   2.357   3.533  10.052 -0.7910 -0.4304 -0.1869
  114OSM   H11F11919   2.319   3.432  10.027 -1.2548 -0.0861 -0.8828
  114OSM   H11G11920   2.466   3.513  10.061 -1.3724 -4.0276  0.2760
  114OSM   C12F11921   2.331   3.615   9.932  0.7456 -0.1144  0.6091
  114OSM   H12F11922   2.384   3.712   9.942  1.4269 -0.3255 -0.6939
  114OSM   H12G11923   2.222   3.633   9.919  1.0059  1.7842  0.7919
  114OSM   C13F11924   2.394   3.550   9.814 -0.4248  0.0090  0.4914
  114OSM   H13F11925   2.380   3.440   9.815 -3.4317  0.3109 -0.4271
  114OSM   H13G11926   2.503   3.567   9.832 -0.5211  1.0415  0.1408
  114OSM   C14F11927   2.343   3.610   9.683 -0.3796  0.7411  0.2160
  114OSM   H14F11928   2.321   3.718   9.690 -0.2178  0.7584  0.4729
  114OSM   H14G11929   2.249   3.556   9.658  0.0828 -1.2996  2.4653
  114OSM   C15F11930   2.432   3.577   9.567 -0.7872 -0.3006  0.2332
  114OSM   H15F11931   2.504   3.493   9.578  1.6850  1.3777 -1.8068
  114OSM   H15G11932   2.506   3.659   9.551 -0.8574 -0.4677 -1.0684
  114OSM   C16F11933   2.366   3.559   9.432  0.3084  0.0428  0.7714
  114OSM   H16F11934   2.296   3.643   9.421 -1.5497 -1.2391  2.1586
  114OSM   H16G11935   2.302   3.469   9.445 -2.6332  2.1077  1.5922
  114OSM   C17F11936   2.457   3.549   9.306 -0.3399  0.1675 -0.2402
  114OSM   H17F11937   2.521   3.459   9.324 -1.3890 -0.6005 -0.2587
  114OSM   H17G11938   2.518   3.641   9.303  1.5385 -1.0295 -2.0814
  114OSM   C18F11939   2.372   3.537   9.183  0.5121 -0.5333 -0.6397
  114OSM   H18F11940   2.435   3.535   9.092  1.6458 -1.2130  0.1292
  114OSM   H18G11941   2.299   3.620   9.183  0.7312 -0.2930  0.9647
  114OSM   H18H11942   2.316   3.441   9.195 -1.2147  0.5060 -0.0333
  115OSM      N11943   3.435   5.636   5.859 -0.7759  0.0221  0.1573
  115OSM    C1511944   3.353   5.511   5.842  0.2264 -0.2443  0.1292
  115OSM   H15A11945   3.245   5.519   5.851 -0.1151 -2.3964 -1.3995
  115OSM   H15B11946   3.380   5.436   5.914  1.5146  0.6265  0.5856
  115OSM   H15C11947   3.371   5.467   5.745 -0.5178 -2.0376  0.7637
  115OSM    C1411948   3.583   5.589   5.861  0.1624  0.3205 -0.6608
  115OSM   H14A11949   3.592   5.520   5.944  3.2088  0.4188 -0.7983
  115OSM   H14B11950   3.648   5.670   5.892  0.5657  0.8120 -2.6459
  115OSM   H14C11951   3.610   5.542   5.768 -1.8938  0.9613 -1.6338
  115OSM    C1311952   3.411   5.724   5.738  0.4182  0.0246 -0.2318
  115OSM   H13A11953   3.304   5.741   5.737  0.3113 -0.6175  0.0281
  115OSM   H13B11954   3.451   5.675   5.651  2.3784  1.0747  0.0102
  115OSM   H13C11955   3.463   5.818   5.752  1.2824 -0.8154  3.3642
  115OSM    C1211956   3.403   5.708   5.990  0.0644  0.1940 -0.2578
  115OSM   H12A11957   3.299   5.736   5.993 -0.1959 -0.7940  1.9173
  115OSM   H12B11958   3.442   5.809   5.990 -1.2038  0.6954 -0.5325
  115OSM    C1111959   3.433   5.639   6.129 -0.2949 -0.4563 -0.5069
  115OSM   H11A11960   3.540   5.636   6.159 -0.2249 -1.6196 -0.8418
  115OSM   H11B11961   3.402   5.533   6.124  2.4422 -1.2774 -2.1998
  115OSM      P11962   3.416   5.858   6.273  0.0481 -0.0231 -0.1618
  115OSM    O1311963   3.561   5.853   6.256 -0.1089  0.1191  0.0440
  115OSM    O1411964   3.346   5.972   6.203  0.3011  0.2466  0.6228
  115OSM    O1111965   3.391   5.868   6.425  0.3107 -0.4678 -0.4119
  115OSM    O1211966   3.355   5.712   6.226 -0.1194 -0.0434  0.2201
  115OSM    C1S11967   3.337   5.779   6.518 -0.4984  0.3377  0.1222
  115OSM    H1S11968   3.384   5.678   6.510 -1.6494 -0.0920 -1.8148
  115OSM    H1T11969   3.229   5.761   6.499 -0.0857 -1.8102 -0.5489
  115OSM     NF11970   3.314   5.727   6.759 -0.3790 -0.0646  0.1416
  115OSM    HNF11971   3.218   5.734   6.784 -0.3613  1.9516 -0.1649
  115OSM    C2S11972   3.357   5.829   6.659  0.3956 -0.3475 -0.8301
  115OSM    H2S11973   3.463   5.854   6.683 -0.3428  0.6446  1.7910
  115OSM    C3S11974   3.280   5.962   6.688 -0.0400  0.0242  0.0134
  115OSM    H3S11975   3.176   5.923   6.695  0.2374 -1.3384 -2.2774
  115OSM     O311976   3.272   6.051   6.580  0.2274  0.2257  0.5482
  115OSM    HO311977   3.277   5.998   6.500  1.0059  0.1825  0.6160
  115OSM    C4S11978   3.330   6.028   6.819 -0.0354  0.1118  0.4138
  115OSM    H4S11979   3.274   5.994   6.907  1.7971 -0.1280  1.5291
  115OSM    C5S11980   3.428   6.121   6.834  0.6284  0.3211  0.4834
  115OSM    H5S11981   3.471   6.160   6.741  1.1860  1.4092  1.1787
  115OSM    C6S11982   3.468   6.186   6.966 -0.5415  0.0111 -0.2306
  115OSM    H6S11983   3.480   6.296   6.956 -1.0471  0.6320  4.1000
  115OSM    H6T11984   3.570   6.154   6.995 -0.7019  0.2707  0.6340
  115OSM    C7S11985   3.366   6.174   7.076  0.2403 -0.0112  0.1574
  115OSM    H7S11986   3.352   6.066   7.095  0.9230  0.0337  1.0162
  115OSM    H7T11987   3.267   6.217   7.049  0.3393  0.1550  0.0596
  115OSM    C8S11988   3.426   6.225   7.201  0.0282 -1.3600  0.2708
  115OSM    H8S11989   3.485   6.317   7.182  0.0759 -1.5661 -0.6252
  115OSM    H8T11990   3.500   6.150   7.238 -1.8002 -3.3642  0.0788
  115OSM    C9S11991   3.326   6.264   7.314  0.3180  0.7422 -0.7021
  115OSM    H9S11992   3.243   6.319   7.264 -0.0334  0.0361 -0.9160
  115OSM    H9T11993   3.373   6.321   7.396  1.3336 -2.6091  1.2557
  115OSM   C10S11994   3.267   6.135   7.384 -0.3788 -0.3206 -0.3752
  115OSM   H10S11995   3.240   6.060   7.306 -1.0195  0.9273 -1.3936
  115OSM   H10T11996   3.168   6.172   7.417 -0.9711 -2.0768 -0.0998
  115OSM   C11S11997   3.346   6.082   7.508  0.0710 -0.2882  1.2012
  115OSM   H11S11998   3.346   6.168   7.578 -2.0831  0.3016  0.5566
  115OSM   H11T11999   3.445   6.048   7.471 -0.3101 -1.7515  1.4540
  115OSM   C12S12000   3.278   5.956   7.570  0.7295 -0.0131 -0.7508
  115OSM   H12S12001   3.345   5.931   7.655 -2.8526 -1.3263  1.9573
  115OSM   H12T12002   3.278   5.882   7.487  1.4709  1.2137 -1.8760
  115OSM   C13S12003   3.138   5.986   7.646 -1.1673  0.3318  0.1556
  115OSM   H13S12004   3.108   5.892   7.696  1.7227 -0.9479 -0.2816
  115OSM   H13T12005   3.058   6.004   7.572 -0.6713  0.8353 -0.2725
  115OSM   C14S12006   3.137   6.097   7.757  0.1756  0.0680 -0.4063
  115OSM   H14S12007   3.040   6.094   7.811  0.3017  1.9066 -0.0080
  115OSM   H14T12008   3.148   6.197   7.709  1.7567  0.1755  0.1056
  115OSM   C15S12009   3.260   6.078   7.853  0.2617  0.1839 -0.8025
  115OSM   H15S12010   3.340   6.121   7.789 -0.9647 -0.6925 -3.0342
  115OSM   H15T12011   3.269   5.968   7.867 -2.7323  0.0216  0.6438
  115OSM   C16S12012   3.253   6.139   7.990 -0.3359 -0.0505 -0.0286
  115OSM   H16S12013   3.152   6.114   8.031 -0.2127 -2.0562 -0.8575
  115OSM   H16T12014   3.259   6.250   7.994 -0.1368 -0.0974  1.1805
  115OSM   C17S12015   3.359   6.091   8.085  0.8469 -0.0279  0.2750
  115OSM   H17S12016   3.426   6.179   8.093  0.7007 -0.0691  2.5710
  115OSM   H17T12017   3.415   6.007   8.038  0.3382 -0.2993  0.1508
  115OSM   C18S12018   3.306   6.064   8.230  0.3554 -0.3402 -0.2245
  115OSM   H18S12019   3.232   6.140   8.265  0.0421 -1.4676  1.7031
  115OSM   H18T12020   3.391   6.053   8.300  0.3109 -1.7842 -0.3658
  115OSM   H18U12021   3.254   5.966   8.233  1.4033 -0.8915  0.6742
  115OSM    C1F12022   3.383   5.610   6.781  0.1192 -0.4052 -0.2922
  115OSM     OF12023   3.497   5.595   6.741 -0.5174  0.0824 -0.2267
  115OSM    C2F12024   3.306   5.502   6.851 -0.0402 -0.1201 -0.4631
  115OSM    H2F12025   3.283   5.416   6.784  1.4197 -1.4794  0.6814
  115OSM    H2G12026   3.218   5.553   6.895 -1.0580  0.7387 -3.2757
  115OSM    C3F12027   3.399   5.458   6.970  0.0983 -0.0993  0.0233
  115OSM    H3F12028   3.493   5.410   6.934  0.2494  0.1324  0.1061
  115OSM    H3G12029   3.352   5.366   7.011  0.5077 -0.6821 -0.7754
  115OSM    C4F12030   3.431   5.558   7.078  0.3674 -0.1715  0.3417
  115OSM    H4F12031   3.332   5.586   7.121  0.1479 -2.8320  1.7688
  115OSM    H4G12032   3.470   5.650   7.028 -0.2093 -0.4103 -0.5659
  115OSM    C5F12033   3.525   5.514   7.185  0.2026 -0.4407 -0.2834
  115OSM    H5F12034   3.628   5.518   7.142  0.3767 -0.3042  0.1416
  115OSM    H5G12035   3.505   5.414   7.228  0.9915 -0.6378 -0.3475
  115OSM    C6F12036   3.528   5.607   7.310 -0.6367  0.3580  0.0306
  115OSM    H6F12037   3.520   5.712   7.272  0.3681 -0.3718 -2.3951
  115OSM    H6G12038   3.626   5.606   7.363 -1.4233  0.0553  1.5161
  115OSM    C7F12039   3.409   5.566   7.407  0.4097  0.3863  0.5801
  115OSM    H7F12040   3.314   5.563   7.350 -0.2919  0.7086  1.7083
  115OSM    H7G12041   3.404   5.651   7.478  0.9734  1.5590 -0.7320
  115OSM    C8F12042   3.432   5.438   7.490  0.3283  0.2748  0.4725
  115OSM    H8F12043   3.457   5.355   7.420 -2.6412 -0.6753  0.3774
  115OSM    H8G12044   3.328   5.408   7.516  0.0514 -1.0624 -1.8847
  115OSM    C9F12045   3.537   5.440   7.595  0.2116 -0.0229  0.8610
  115OSM    H9F12046   3.638   5.421   7.557 -0.0105  2.6492 -1.4168
  115OSM   C10F12047   3.522   5.466   7.731  0.3998 -0.8805  0.0514
  115OSM   H10F12048   3.611   5.476   7.794  2.0072  1.2060 -2.3402
  115OSM   C11F12049   3.398   5.507   7.809  0.1066 -0.0596 -0.2452
  115OSM   H11F12050   3.395   5.449   7.904  2.7492 -0.9296 -0.6001
  115OSM   H11G12051   3.304   5.477   7.759 -1.0833  0.5597  1.5086
  115OSM   C12F12052   3.382   5.657   7.833  0.6422 -0.0821  0.1151
  115OSM   H12F12053   3.288   5.687   7.885 -0.4043  1.3730 -2.4156
  115OSM   H12G12054   3.373   5.707   7.734 -1.9427 -1.1136 -0.2602
  115OSM   C13F12055   3.495   5.726   7.916  0.0911 -0.0131  0.5564
  115OSM   H13F12056   3.475   5.835   7.909  0.8475  0.1189  0.3980
  115OSM   H13G12057   3.590   5.705   7.863 -0.5629 -2.5224  0.2780
  115OSM   C14F12058   3.497   5.690   8.068  0.4555 -0.3502  0.2036
  115OSM   H14F12059   3.580   5.749   8.112  0.9629  0.2697 -1.4870
  115OSM   H14G12060   3.552   5.595   8.079  0.0335 -0.3918  2.4116
  115OSM   C15F12061   3.360   5.711   8.150  0.1393  0.8479  0.2933
  115OSM   H15F12062   3.276   5.651   8.110  1.0127 -0.0340 -0.2751
  115OSM   H15G12063   3.324   5.814   8.131  0.6122  0.8507 -0.6102
  115OSM   C16F12064   3.384   5.691   8.303 -0.7682 -0.3401  0.4377
  115OSM   H16F12065   3.292   5.726   8.355 -1.7829  0.6604 -1.8796
  115OSM   H16G12066   3.457   5.761   8.348 -0.6291 -1.0232  1.3095
  115OSM   C17F12067   3.420   5.546   8.339 -0.1138  0.0909  0.6465
  115OSM   H17F12068   3.528   5.533   8.318  0.1332  1.2182  1.1238
  115OSM   H17G12069   3.377   5.475   8.265  1.8302 -0.2393 -0.2244
  115OSM   C18F12070   3.380   5.503   8.480  0.4905  0.5628  0.5747
  115OSM   H18F12071   3.270   5.501   8.496  0.4566 -2.2671  0.4625
  115OSM   H18G12072   3.417   5.588   8.542  0.2477 -0.2524  1.8725
  115OSM   H18H12073   3.427   5.408   8.515  1.8614  0.3284 -1.6875
  116OSM      N12074   3.221   2.570   6.135 -0.3509  0.3442 -0.3829
  116OSM    C1512075   3.139   2.653   6.039  0.1600 -0.4525 -0.2648
  116OSM   H15A12076   3.175   2.755   6.035 -2.3223  0.4604 -2.1308
  116OSM   H15B12077   3.035   2.654   6.070  0.1786 -1.6502 -0.1443
  116OSM   H15C12078   3.138   2.604   5.943  1.3460  0.2880 -0.6733
  116OSM    C1412079   3.185   2.425   6.116  0.3982 -0.8105 -0.4444
  116OSM   H14A12080   3.263   2.373   6.172  0.1526 -0.2280  0.4608
  116OSM   H14B12081   3.191   2.395   6.012  0.6459 -3.7633  0.3129
  116OSM   H14C12082   3.085   2.406   6.151 -0.0078  0.5939 -0.8016
  116OSM    C1312083   3.366   2.582   6.104  0.0136 -0.1646 -0.0471
  116OSM   H13A12084   3.376   2.534   6.007 -2.8655  0.3924 -0.7123
  116OSM   H13B12085   3.417   2.530   6.184 -0.3390  1.0192  0.9681
  116OSM   H13C12086   3.388   2.688   6.097 -1.3117  0.2441  1.5689
  116OSM    C1212087   3.195   2.603   6.277  0.0704  0.8767 -0.3900
  116OSM   H12A12088   3.260   2.538   6.335  1.8952  1.6703 -1.4448
  116OSM   H12B12089   3.094   2.568   6.291 -0.4202  3.0195  1.9878
  116OSM    C1112090   3.201   2.746   6.312  0.6248 -0.1563 -0.1421
  116OSM   H11A12091   3.184   2.758   6.421 -0.4933  2.6263 -0.5416
  116OSM   H11B12092   3.121   2.809   6.267  2.7606  2.1760 -0.9134
  116OSM      P12093   3.365   2.947   6.248  0.0681  0.3635 -0.1884
  116OSM    O1312094   3.511   2.976   6.268  0.4948  0.2460  0.5724
  116OSM    O1412095   3.300   2.979   6.120 -0.6114 -0.0505 -0.0890
  116OSM    O1112096   3.287   3.027   6.363 -0.5450 -0.3164 -0.5968
  116OSM    O1212097   3.329   2.793   6.279  0.7512 -0.3501 -0.4201
  116OSM    C1S12098   3.317   3.000   6.501 -1.0472  0.6795 -1.2009
  116OSM    H1S12099   3.368   2.902   6.513  0.2839  1.2308 -2.1272
  116OSM    H1T12100   3.219   2.993   6.553 -0.9782 -0.1619 -1.1682
  116OSM     NF12101   3.424   3.082   6.710  0.5540  0.5145 -0.2143
  116OSM    HNF12102   3.370   3.131   6.778  1.0105 -1.4965  1.7468
  116OSM    C2S12103   3.395   3.117   6.572 -0.8943 -0.4832  0.5324
  116OSM    H2S12104   3.492   3.134   6.520 -1.1654  1.7083  0.6853
  116OSM    C3S12105   3.326   3.258   6.546  0.3264 -0.0537  0.1114
  116OSM    H3S12106   3.234   3.258   6.607  0.8910  0.9057  0.9902
  116OSM     O312107   3.281   3.287   6.415  0.0160  0.3995  0.2284
  116OSM    HO312108   3.277   3.202   6.370  2.3537  0.7802 -0.8360
  116OSM    C4S12109   3.415   3.371   6.594 -0.5446 -0.1136 -0.2218
  116OSM    H4S12110   3.379   3.410   6.690  0.2154  1.7224 -0.6427
  116OSM    C5S12111   3.516   3.429   6.525 -0.4565 -0.2414 -0.2221
  116OSM    H5S12112   3.545   3.388   6.428 -2.0488  2.7462 -2.1116
  116OSM    C6S12113   3.614   3.538   6.571 -0.5099 -0.5311 -0.4310
  116OSM    H6S12114   3.583   3.643   6.550 -2.3693 -0.9399  0.1312
  116OSM    H6T12115   3.701   3.519   6.505 -0.6434 -0.9427 -0.4916
  116OSM    C7S12116   3.659   3.538   6.725 -0.0410  0.7024  0.5588
  116OSM    H7S12117   3.593   3.579   6.805 -0.6843 -1.9724  1.5419
  116OSM    H7T12118   3.741   3.612   6.727 -0.3056  1.0504 -0.6516
  116OSM    C8S12119   3.727   3.405   6.769 -0.1376  0.7075 -0.6914
  116OSM    H8S12120   3.812   3.385   6.700 -0.4313 -1.5519 -0.4634
  116OSM    H8T12121   3.659   3.320   6.747 -0.8019  0.3845  2.1846
  116OSM    C9S12122   3.781   3.429   6.907  0.3200  0.0182 -0.2421
  116OSM    H9S12123   3.713   3.431   6.996 -0.3623 -2.3381 -0.6382
  116OSM    H9T12124   3.833   3.527   6.905 -0.8665  0.7720  1.9184
  116OSM   C10S12125   3.902   3.341   6.942  0.2621  0.8008  0.4070
  116OSM   H10S12126   3.945   3.392   7.031 -2.6145  1.1467  1.7143
  116OSM   H10T12127   3.972   3.338   6.856  0.6305 -1.4122  0.7303
  116OSM   C11S12128   3.876   3.197   6.984 -0.0339 -0.0455 -0.1158
  116OSM   H11S12129   3.969   3.138   6.969  1.1371  1.1988  1.7946
  116OSM   H11T12130   3.800   3.159   6.913  1.2857 -1.7914 -0.6557
  116OSM   C12S12131   3.829   3.192   7.129  0.4570 -0.0703 -0.5441
  116OSM   H12S12132   3.769   3.101   7.150  0.5393 -0.5255 -2.1756
  116OSM   H12T12133   3.774   3.286   7.147  2.0026  0.8773 -0.5650
  116OSM   C13S12134   3.939   3.198   7.232 -0.4899 -0.3296  0.3725
  116OSM   H13S12135   4.012   3.281   7.223 -1.8353  1.0866  1.7818
  116OSM   H13T12136   3.994   3.103   7.215 -0.0725  0.1654 -1.1528
  116OSM   C14S12137   3.886   3.185   7.377 -0.3731 -0.4207  0.0403
  116OSM   H14S12138   3.795   3.125   7.397  0.6228 -1.9609  0.1657
  116OSM   H14T12139   3.857   3.286   7.411  2.0612  0.8613 -1.4230
  116OSM   C15S12140   3.990   3.154   7.480  0.8771 -1.1334 -0.2974
  116OSM   H15S12141   4.075   3.221   7.458  0.1072  0.0194  0.1491
  116OSM   H15T12142   4.032   3.052   7.465  0.1476 -1.4383 -0.3033
  116OSM   C16S12143   3.930   3.169   7.620  0.1559 -0.1959  0.0146
  116OSM   H16S12144   3.989   3.119   7.700  0.5074 -0.1204 -0.1947
  116OSM   H16T12145   3.834   3.112   7.618  0.6163 -0.9680 -1.5127
  116OSM   C17S12146   3.923   3.311   7.676 -0.2196  0.6238  0.3874
  116OSM   H17S12147   3.845   3.325   7.754  0.1500 -2.1236  1.3441
  116OSM   H17T12148   3.903   3.377   7.589 -0.4548 -1.4717 -1.2261
  116OSM   C18S12149   4.049   3.370   7.738 -0.1923 -0.1954  0.0127
  116OSM   H18S12150   4.060   3.339   7.844  0.0066 -2.3159 -0.5797
  116OSM   H18T12151   4.036   3.480   7.746 -1.2938 -0.3279  0.1714
  116OSM   H18U12152   4.136   3.329   7.682 -0.5488 -1.2883  0.2311
  116OSM    C1F12153   3.519   2.989   6.739  0.3108 -0.1441  0.5790
  116OSM     OF12154   3.580   2.926   6.656  0.0087  0.2929 -0.0728
  116OSM    C2F12155   3.556   2.982   6.889 -0.3371 -0.0750  0.5811
  116OSM    H2F12156   3.512   3.074   6.932 -0.3720  1.2989 -2.1996
  116OSM    H2G12157   3.666   2.988   6.905 -0.4190  4.1043  0.6962
  116OSM    C3F12158   3.500   2.853   6.954  0.8618 -0.1575 -0.6319
  116OSM    H3F12159   3.533   2.758   6.907  1.0828 -0.5505  0.2770
  116OSM    H3G12160   3.389   2.850   6.955  0.7451  1.2435  2.4554
  116OSM    C4F12161   3.546   2.847   7.100 -0.1887 -0.2816 -0.6983
  116OSM    H4F12162   3.653   2.875   7.112 -0.4871  0.1719  1.2322
  116OSM    H4G12163   3.528   2.747   7.145 -0.1985  0.1834  0.3495
  116OSM    C5F12164   3.474   2.946   7.191 -0.3737 -0.2425 -0.7570
  116OSM    H5F12165   3.368   2.914   7.199 -0.1852 -0.7018  0.0146
  116OSM    H5G12166   3.468   3.053   7.162 -2.4884 -0.5586 -1.6472
  116OSM    C6F12167   3.544   2.938   7.327 -0.4303 -0.2187  0.2985
  116OSM    H6F12168   3.646   2.980   7.315 -0.9403  1.1003  0.4401
  116OSM    H6G12169   3.551   2.831   7.356  1.9158 -0.1188  0.3009
  116OSM    C7F12170   3.480   3.036   7.431 -0.3821 -0.2444 -0.5002
  116OSM    H7F12171   3.376   3.062   7.403 -0.1163  0.6150 -0.7235
  116OSM    H7G12172   3.538   3.130   7.423  2.0615 -1.7517 -1.8121
  116OSM    C8F12173   3.475   2.964   7.560  0.0751  0.4909 -0.1484
  116OSM    H8F12174   3.580   2.937   7.582  0.0226  0.4874  0.0966
  116OSM    H8G12175   3.425   2.865   7.548  1.6525 -0.3996  0.3695
  116OSM    C9F12176   3.408   3.032   7.678 -0.1895  0.2385  0.0916
  116OSM    H9F12177   3.301   3.051   7.661 -0.4442  0.2294  1.5120
  116OSM   C10F12178   3.467   3.054   7.796 -0.0801  0.2790  0.5862
  116OSM   H10F12179   3.399   3.086   7.877  0.4235 -2.6207  2.3068
  116OSM   C11F12180   3.613   3.021   7.836  0.0755 -0.0442 -0.2303
  116OSM   H11F12181   3.648   3.093   7.913  0.5096  1.0013 -1.3755
  116OSM   H11G12182   3.672   3.041   7.744  0.5278 -0.2894  0.0024
  116OSM   C12F12183   3.638   2.882   7.885  0.0622  0.5857 -0.2317
  116OSM   H12F12184   3.741   2.851   7.857 -0.0876  0.3778 -0.5582
  116OSM   H12G12185   3.581   2.815   7.817  1.2958 -0.1882 -0.5473
  116OSM   C13F12186   3.617   2.854   8.026 -0.0743  0.6417 -0.6584
  116OSM   H13F12187   3.614   2.743   8.033  1.2133  0.6118 -0.2996
  116OSM   H13G12188   3.516   2.889   8.058 -0.6885  1.0564 -2.9006
  116OSM   C14F12189   3.718   2.910   8.126  0.7938 -0.4171  0.4871
  116OSM   H14F12190   3.713   3.021   8.122  0.9993 -0.4388 -1.1260
  116OSM   H14G12191   3.820   2.878   8.096 -0.2134 -2.1580 -1.3928
  116OSM   C15F12192   3.686   2.866   8.271  1.0730  0.2140  0.6750
  116OSM   H15F12193   3.693   2.756   8.279 -1.2425 -0.0765 -0.3711
  116OSM   H15G12194   3.581   2.896   8.292  1.0144 -0.0083  0.7029
  116OSM   C16F12195   3.779   2.936   8.369  1.0108 -0.0860  0.2663
  116OSM   H16F12196   3.764   3.045   8.356 -3.4951 -0.2948  2.2961
  116OSM   H16G12197   3.882   2.912   8.333  1.0584  1.8453 -1.0099
  116OSM   C17F12198   3.757   2.912   8.513  0.0151 -0.2005  0.6419
  116OSM   H17F12199   3.805   2.821   8.554 -1.8991 -1.2232  0.7277
  116OSM   H17G12200   3.649   2.887   8.519 -0.2323  0.4226 -0.9252
  116OSM   C18F12201   3.780   3.032   8.604 -0.6495  0.0574 -0.2774
  116OSM   H18F12202   3.739   3.127   8.564 -1.8476 -1.7553 -3.8531
  116OSM   H18G12203   3.891   3.045   8.603 -0.7526  0.9781 -1.0029
  116OSM   H18H12204   3.745   3.009   8.707  4.2889  1.5674  2.0644
  117OSM      N12205   2.821   4.021   5.995 -0.4909 -0.2562  0.0554
  117OSM    C1512206   2.679   4.081   5.997  0.1160  0.3783 -0.5724
  117OSM   H15A12207   2.661   4.128   5.901 -1.8434  1.4671  0.2466
  117OSM   H15B12208   2.672   4.146   6.083  1.4341 -0.9783  0.6130
  117OSM   H15C12209   2.601   4.009   6.016  0.3683  0.2844  0.1168
  117OSM    C1412210   2.838   3.905   5.911  0.1994  0.1218  0.7239
  117OSM   H14A12211   2.815   3.918   5.806  0.4565  0.0173  0.6534
  117OSM   H14B12212   2.775   3.828   5.952 -0.7572  0.1562 -0.6269
  117OSM   H14C12213   2.939   3.866   5.915  0.3845  0.6344  1.1302
  117OSM    C1312214   2.915   4.125   5.951  0.8385 -0.4158 -0.1822
  117OSM   H13A12215   2.925   4.203   6.025 -0.2987 -1.8235  1.5023
  117OSM   H13B12216   2.887   4.166   5.855  2.0913  0.7575 -0.0896
  117OSM   H13C12217   3.014   4.081   5.956  1.7745  1.3428 -1.6907
  117OSM    C1212218   2.872   3.981   6.133 -0.7398 -0.2715  0.3048
  117OSM   H12A12219   2.979   3.969   6.124 -0.0533  4.0324  0.6468
  117OSM   H12B12220   2.821   3.889   6.160 -1.8336 -0.1562 -1.2182
  117OSM    C1112221   2.857   4.077   6.245 -0.1875 -0.0911  0.6928
  117OSM   H11A12222   2.878   4.015   6.335  3.7171  0.2965  0.1932
  117OSM   H11B12223   2.748   4.098   6.257 -0.2654 -0.0123 -0.0883
  117OSM      P12224   3.105   4.162   6.244 -0.0318  0.2125  0.1495
  117OSM    O1312225   3.146   4.023   6.209 -0.1523  0.7336 -0.4128
  117OSM    O1412226   3.162   4.269   6.171 -0.7550 -0.3228  0.5209
  117OSM    O1112227   3.139   4.185   6.398 -0.4398  0.0404  0.1125
  117OSM    O1212228   2.948   4.178   6.233  0.0253 -0.8004  0.1318
  117OSM    C1S12229   3.047   4.255   6.475  0.4621  0.4597 -0.4133
  117OSM    H1S12230   2.955   4.193   6.478  1.7100 -1.4640 -0.1093
  117OSM    H1T12231   3.021   4.351   6.424 -0.8439  0.5782  0.4398
  117OSM     NF12232   2.989   4.330   6.710 -0.1421 -0.5459 -0.5874
  117OSM    HNF12233   2.973   4.425   6.732 -0.0253 -0.4001 -1.1106
  117OSM    C2S12234   3.092   4.285   6.624  0.4855  0.1221 -0.3563
  117OSM    H2S12235   3.134   4.194   6.672  0.5785  0.0520 -0.5690
  117OSM    C3S12236   3.208   4.392   6.621 -0.3203 -0.4709 -0.0756
  117OSM    H3S12237   3.158   4.490   6.608 -1.6423 -0.8746  1.6792
  117OSM     O312238   3.307   4.375   6.522 -0.0448  0.1840  0.3778
  117OSM    HO312239   3.262   4.317   6.460 -0.1408  2.5276 -1.9452
  117OSM    C4S12240   3.265   4.396   6.761 -0.0641 -0.0289  0.0237
  117OSM    H4S12241   3.205   4.443   6.840 -0.0383 -0.7006  0.4520
  117OSM    C5S12242   3.370   4.334   6.805 -0.0797 -0.1677 -0.7191
  117OSM    H5S12243   3.429   4.271   6.736  1.0898 -1.2726  1.1881
  117OSM    C6S12244   3.418   4.321   6.950  0.9534  0.4602  0.4534
  117OSM    H6S12245   3.461   4.419   6.978  0.1769  1.2457 -0.9743
  117OSM    H6T12246   3.492   4.238   6.957 -1.7639 -2.2168 -0.4112
  117OSM    C7S12247   3.310   4.279   7.049 -0.3468 -0.2958 -0.7029
  117OSM    H7S12248   3.282   4.176   7.019 -0.0021 -0.0936 -1.7507
  117OSM    H7T12249   3.229   4.355   7.043  1.2539  1.3711 -2.7680
  117OSM    C8S12250   3.356   4.283   7.201  0.0891 -0.4658 -0.2345
  117OSM    H8S12251   3.380   4.391   7.211  0.8594 -0.4664 -1.7173
  117OSM    H8T12252   3.447   4.225   7.227 -0.7761 -0.5709  2.9801
  117OSM    C9S12253   3.248   4.240   7.301  0.4844  0.0321  0.6516
  117OSM    H9S12254   3.240   4.130   7.290  1.3208  0.1119 -1.1279
  117OSM    H9T12255   3.150   4.289   7.283 -0.2098 -1.7907 -1.0080
  117OSM   C10S12256   3.279   4.254   7.452  0.6395  0.4744 -0.8697
  117OSM   H10S12257   3.295   4.361   7.475 -0.5926  0.0052  2.9211
  117OSM   H10T12258   3.370   4.194   7.475  0.8701  1.9075  2.5562
  117OSM   C11S12259   3.176   4.199   7.546 -0.7702 -0.0550  0.5087
  117OSM   H11S12260   3.146   4.097   7.515 -1.8220  0.1068  0.9432
  117OSM   H11T12261   3.078   4.251   7.536 -1.1813 -1.1479 -1.9235
  117OSM   C12S12262   3.225   4.178   7.695  0.0245 -0.3691 -0.4579
  117OSM   H12S12263   3.257   4.275   7.738  0.3671  0.4676 -2.4737
  117OSM   H12T12264   3.311   4.109   7.712 -0.5749 -1.4057 -1.4753
  117OSM   C13S12265   3.110   4.132   7.791  0.1567 -0.3125  0.1809
  117OSM   H13S12266   3.049   4.053   7.741  0.3535 -0.1123 -0.3867
  117OSM   H13T12267   3.050   4.226   7.793 -0.5033 -0.7403  2.1686
  117OSM   C14S12268   3.149   4.085   7.931  0.1765 -0.1640 -0.0128
  117OSM   H14S12269   3.225   4.150   7.979 -2.3232  1.0900  2.4941
  117OSM   H14T12270   3.199   3.986   7.928 -1.3517 -0.9408 -2.0326
  117OSM   C15S12271   3.025   4.068   8.018  0.2741 -0.7892 -0.5023
  117OSM   H15S12272   2.942   4.022   7.960  0.1690  0.1800 -1.1481
  117OSM   H15T12273   2.981   4.169   8.035  0.5217 -0.3158 -2.4661
  117OSM   C16S12274   3.051   3.991   8.153 -0.4566 -0.3723  0.3599
  117OSM   H16S12275   3.091   3.890   8.128  0.0857 -0.6271  2.1524
  117OSM   H16T12276   2.953   3.969   8.198 -0.4862 -0.6082  0.1797
  117OSM   C17S12277   3.138   4.054   8.262 -0.2952 -0.1836 -0.1796
  117OSM   H17S12278   3.098   4.156   8.282  1.2138  0.4098  0.0289
  117OSM   H17T12279   3.244   4.063   8.230  0.8518 -1.0072  3.0152
  117OSM   C18S12280   3.135   3.983   8.400  0.0462  0.1487 -0.1931
  117OSM   H18S12281   3.038   4.004   8.450  0.5917  0.4262  0.7714
  117OSM   H18T12282   3.205   4.029   8.473 -0.3550 -1.4519  1.2498
  117OSM   H18U12283   3.161   3.876   8.386 -0.4581 -0.3731  2.3449
  117OSM    C1F12284   2.898   4.238   6.752 -0.2566 -0.2637 -0.2419
  117OSM     OF12285   2.897   4.120   6.712 -0.0120  0.2169  0.1747
  117OSM    C2F12286   2.790   4.291   6.844  0.2829 -0.2054 -0.1424
  117OSM    H2F12287   2.702   4.321   6.784  0.4480  4.0758  1.4015
  117OSM    H2G12288   2.820   4.390   6.886  1.5903  0.7470 -3.0500
  117OSM    C3F12289   2.755   4.187   6.956 -0.5534  0.1522 -0.6842
  117OSM    H3F12290   2.741   4.084   6.917 -2.0102  0.8818 -2.1754
  117OSM    H3G12291   2.654   4.211   6.996 -0.2330 -0.3544  0.4754
  117OSM    C4F12292   2.863   4.185   7.067  0.6082 -0.8655  0.2470
  117OSM    H4F12293   2.890   4.285   7.106  1.9346 -1.5816  1.2390
  117OSM    H4G12294   2.964   4.156   7.034  0.2375 -1.8529 -0.0516
  117OSM    C5F12295   2.821   4.116   7.194 -0.3291  0.2137  0.0757
  117OSM    H5F12296   2.912   4.106   7.257 -2.0303 -0.0958  2.6681
  117OSM    H5G12297   2.782   4.015   7.168 -1.2289  0.7643 -0.7864
  117OSM    C6F12298   2.721   4.195   7.282  0.2032 -0.0889  0.3218
  117OSM    H6F12299   2.624   4.214   7.230 -0.2675  1.0125  1.5369
  117OSM    H6G12300   2.755   4.299   7.302  1.0184 -0.4525  0.8611
  117OSM    C7F12301   2.694   4.121   7.411 -0.0465  0.1077  0.3529
  117OSM    H7F12302   2.705   4.011   7.395  0.0154 -0.0000  1.1099
  117OSM    H7G12303   2.585   4.134   7.426 -0.8132 -0.2093 -3.8691
  117OSM    C8F12304   2.778   4.178   7.528  0.6974  0.0301  1.1480
  117OSM    H8F12305   2.756   4.283   7.553 -0.5455 -0.5110  2.4572
  117OSM    H8G12306   2.879   4.185   7.483 -0.1614  0.5810 -0.8298
  117OSM    C9F12307   2.766   4.088   7.646 -0.0597 -0.4584 -0.3458
  117OSM    H9F12308   2.814   3.990   7.633  2.6157  0.7331 -0.0041
  117OSM   C10F12309   2.702   4.117   7.758  0.2756  0.1658 -0.4300
  117OSM   H10F12310   2.703   4.039   7.836 -2.4165  1.6708  1.3027
  117OSM   C11F12311   2.631   4.245   7.794 -0.5504 -0.0593 -0.0273
  117OSM   H11F12312   2.590   4.292   7.702 -1.8031  2.3032  1.6256
  117OSM   H11G12313   2.695   4.319   7.846  0.1070 -1.2346  0.9025
  117OSM   C12F12314   2.499   4.230   7.872  0.1536 -0.4130  0.2768
  117OSM   H12F12315   2.433   4.169   7.807 -0.0347 -0.3832  0.4394
  117OSM   H12G12316   2.459   4.333   7.881  0.7398  0.0132 -1.5035
  117OSM   C13F12317   2.520   4.175   8.020 -0.0417  0.4284 -0.6009
  117OSM   H13F12318   2.547   4.070   8.000 -0.1559 -0.2374  2.2255
  117OSM   H13G12319   2.425   4.182   8.078  0.5422 -0.6947  0.5377
  117OSM   C14F12320   2.621   4.252   8.104  0.2250 -0.5747 -0.5792
  117OSM   H14F12321   2.601   4.358   8.130  0.4989 -0.5315 -0.5339
  117OSM   H14G12322   2.720   4.265   8.054  0.6994  0.6060  0.6068
  117OSM   C15F12323   2.652   4.185   8.235  0.1245  0.2886 -0.1357
  117OSM   H15F12324   2.677   4.077   8.245  0.1384  0.4716  3.0347
  117OSM   H15G12325   2.557   4.198   8.291 -0.3343 -0.8197 -0.6187
  117OSM   C16F12326   2.764   4.262   8.310 -0.6240 -0.3399  0.6201
  117OSM   H16F12327   2.728   4.364   8.331 -0.2586 -0.5119  2.2405
  117OSM   H16G12328   2.848   4.261   8.236 -1.2635  1.8849 -0.1906
  117OSM   C17F12329   2.816   4.190   8.434  0.1388  0.8590 -0.0049
  117OSM   H17F12330   2.808   4.083   8.404 -2.3909  0.9122  0.2318
  117OSM   H17G12331   2.922   4.217   8.455  0.7015 -1.0851 -0.1585
  117OSM   C18F12332   2.734   4.213   8.558  0.0789  0.5431  0.1864
  117OSM   H18F12333   2.765   4.137   8.633 -0.0391 -0.6997 -0.9744
  117OSM   H18G12334   2.626   4.201   8.533 -0.0603 -0.6932  1.3061
  117OSM   H18H12335   2.753   4.316   8.594 -1.1179  1.4390 -1.5704
  118OSM      N12336   4.606   1.712   5.905 -0.2445  0.2479  0.1820
  118OSM    C1512337   4.641   1.855   5.923  0.0828  0.0079 -0.5274
  118OSM   H15A12338   4.729   1.876   5.982 -0.0244  3.4791 -1.4267
  118OSM   H15B12339   4.557   1.899   5.975  0.9445 -0.6879  1.5482
  118OSM   H15C12340   4.654   1.909   5.830 -0.2405  2.4923  0.8049
  118OSM    C1412341   4.488   1.697   5.807 -0.3648 -0.3317 -0.0003
  118OSM   H14A12342   4.401   1.745   5.850  0.8919  1.1656  0.9707
  118OSM   H14B12343   4.460   1.595   5.785  1.5364 -0.9797  0.4102
  118OSM   H14C12344   4.507   1.745   5.712 -0.7642  2.3237  1.1521
  118OSM    C1312345   4.727   1.635   5.855  1.0113 -0.0461  0.0064
  118OSM   H13A12346   4.820   1.663   5.901  0.3295  0.9646  0.8047
  118OSM   H13B12347   4.735   1.660   5.750  0.1470 -0.5605 -0.1992
  118OSM   H13C12348   4.703   1.529   5.855  0.1398  0.1388 -0.5280
  118OSM    C1212349   4.557   1.654   6.043  0.0423 -1.1032  0.1118
  118OSM   H12A12350   4.508   1.559   6.027 -0.4762 -0.7104 -0.7177
  118OSM   H12B12351   4.476   1.721   6.070 -0.0791 -0.9488 -0.6167
  118OSM    C1112352   4.650   1.653   6.167  0.0893  0.3739 -0.7023
  118OSM   H11A12353   4.751   1.628   6.128 -0.2725 -2.0574 -0.2179
  118OSM   H11B12354   4.622   1.576   6.242 -0.7407  0.7350 -0.6349
  118OSM      P12355   4.539   1.840   6.314 -0.0717  0.0586 -0.6247
  118OSM    O1312356   4.577   1.963   6.381  0.4420  0.3756  0.5355
  118OSM    O1412357   4.421   1.854   6.233 -0.0363  0.2195 -0.2812
  118OSM    O1112358   4.504   1.725   6.419 -0.1567 -0.2949  0.0389
  118OSM    O1212359   4.665   1.779   6.224  0.5766 -0.1750  0.1240
  118OSM    C1S12360   4.480   1.767   6.552 -0.2202 -0.2413 -0.0507
  118OSM    H1S12361   4.377   1.808   6.541  0.9438  2.8423 -0.2913
  118OSM    H1T12362   4.557   1.840   6.585  0.1662  0.1490 -1.7583
  118OSM     NF12363   4.444   1.700   6.779 -0.3599 -0.2853  0.0480
  118OSM    HNF12364   4.524   1.726   6.832  0.6020 -0.6233 -1.1990
  118OSM    C2S12365   4.495   1.651   6.649 -0.3929 -0.1887  0.4285
  118OSM    H2S12366   4.422   1.577   6.610 -0.0964 -0.4162  0.3034
  118OSM    C3S12367   4.633   1.592   6.651  0.3217 -0.7234  0.5472
  118OSM    H3S12368   4.698   1.675   6.685  0.1239 -0.1373 -0.4421
  118OSM     O312369   4.690   1.564   6.519  0.3581  0.1122  0.9978
  118OSM    HO312370   4.635   1.608   6.454  0.5194  0.7730  1.2965
  118OSM    C4S12371   4.635   1.475   6.741 -0.1831  0.5440 -0.2788
  118OSM    H4S12372   4.654   1.490   6.848 -2.3510 -2.0530  0.5912
  118OSM    C5S12373   4.611   1.348   6.698 -0.5534  0.0957 -0.0174
  118OSM    H5S12374   4.608   1.335   6.589 -1.8498 -1.8334  0.1957
  118OSM    C6S12375   4.617   1.223   6.787 -0.0537  0.1064  0.8351
  118OSM    H6S12376   4.691   1.156   6.738  0.0935  0.2834  0.8154
  118OSM    H6T12377   4.523   1.164   6.774 -0.0289  0.6330 -2.8864
  118OSM    C7S12378   4.647   1.249   6.931 -0.0392  0.2182  0.5802
  118OSM    H7S12379   4.731   1.322   6.934 -1.2697  1.6757  1.5954
  118OSM    H7T12380   4.689   1.156   6.974 -0.5242 -0.0131  0.5618
  118OSM    C8S12381   4.534   1.300   7.019 -0.5677  0.0631  0.5187
  118OSM    H8S12382   4.456   1.224   6.998 -0.3470  0.4679 -2.0173
  118OSM    H8T12383   4.479   1.393   6.992 -3.9156 -1.4451  1.6230
  118OSM    C9S12384   4.595   1.326   7.160  0.3911 -0.0360  0.4169
  118OSM    H9S12385   4.658   1.417   7.169 -0.5048  0.6670 -0.2718
  118OSM    H9T12386   4.659   1.240   7.192  0.6283 -0.1213 -0.2677
  118OSM   C10S12387   4.484   1.341   7.265  0.1115 -0.7617  0.4295
  118OSM   H10S12388   4.431   1.244   7.269  1.0809 -1.3327 -0.3459
  118OSM   H10T12389   4.412   1.414   7.224 -0.4148 -1.2135  0.5402
  118OSM   C11S12390   4.528   1.405   7.401 -0.1515  0.3391  1.0250
  118OSM   H11S12391   4.445   1.447   7.460 -0.5911  1.2702 -0.2008
  118OSM   H11T12392   4.589   1.494   7.375  1.4895 -1.4105 -1.6603
  118OSM   C12S12393   4.602   1.312   7.495 -0.2753 -0.1283 -0.1500
  118OSM   H12S12394   4.699   1.270   7.460  0.0042  1.0177 -0.8127
  118OSM   H12T12395   4.537   1.226   7.523 -0.1842  0.2890  1.4015
  118OSM   C13S12396   4.625   1.378   7.624  0.0356  0.2383 -0.2461
  118OSM   H13S12397   4.527   1.418   7.659 -0.1329  1.1431 -1.6623
  118OSM   H13T12398   4.702   1.458   7.634  0.1138  0.0636  0.6327
  118OSM   C14S12399   4.656   1.267   7.729  0.1746 -0.6175  0.1943
  118OSM   H14S12400   4.736   1.200   7.690  1.6890 -0.1427  2.3316
  118OSM   H14T12401   4.568   1.203   7.752  0.3345  0.1637  3.3999
  118OSM   C15S12402   4.703   1.339   7.852 -0.9470  0.3189 -0.0191
  118OSM   H15S12403   4.623   1.409   7.883 -1.6775 -0.2482 -0.6030
  118OSM   H15T12404   4.795   1.389   7.814 -0.7472 -0.4982 -0.6442
  118OSM   C16S12405   4.746   1.250   7.968 -0.4550 -0.3300 -0.4995
  118OSM   H16S12406   4.791   1.312   8.048 -0.5708  0.1927 -0.8352
  118OSM   H16T12407   4.820   1.175   7.935 -0.2346 -0.3863  0.1072
  118OSM   C17S12408   4.629   1.174   8.042  0.3978  0.0849  0.9880
  118OSM   H17S12409   4.564   1.130   7.963 -0.7904 -1.9006  2.9785
  118OSM   H17T12410   4.569   1.248   8.100 -1.3890 -0.8081  0.3729
  118OSM   C18S12411   4.673   1.065   8.137 -0.6446 -0.4674  0.6160
  118OSM   H18S12412   4.741   0.995   8.083  0.4795  1.1882 -0.2175
  118OSM   H18T12413   4.580   1.016   8.172 -2.5392  0.2992 -2.8795
  118OSM   H18U12414   4.733   1.113   8.217  0.7459 -1.6198  0.3072
  118OSM    C1F12415   4.324   1.743   6.793  0.3811  0.3855  0.5405
  118OSM     OF12416   4.237   1.703   6.722 -0.1225 -0.1795  0.0211
  118OSM    C2F12417   4.295   1.836   6.905 -0.0770  0.4578  0.0447
  118OSM    H2F12418   4.214   1.904   6.871  0.9431  1.1630 -1.0430
  118OSM    H2G12419   4.384   1.898   6.930  0.8897 -0.1782 -1.6196
  118OSM    C3F12420   4.241   1.752   7.030 -0.0623 -0.4787 -0.0316
  118OSM    H3F12421   4.328   1.689   7.057  0.8534  0.4927 -0.6274
  118OSM    H3G12422   4.152   1.693   6.998 -0.2698  0.3990 -1.1466
  118OSM    C4F12423   4.194   1.830   7.146  0.3524  0.2536  0.1440
  118OSM    H4F12424   4.102   1.888   7.127 -0.1588 -0.1056  1.4028
  118OSM    H4G12425   4.272   1.901   7.182 -0.5976  0.7774  1.2428
  118OSM    C5F12426   4.151   1.742   7.273  0.1363  0.4399 -0.2787
  118OSM    H5F12427   4.115   1.646   7.229 -0.3302  0.8304 -0.7589
  118OSM    H5G12428   4.069   1.796   7.323 -0.8765 -2.6772  1.7241
  118OSM    C6F12429   4.271   1.721   7.361  0.5971  0.2848  0.6243
  118OSM    H6F12430   4.348   1.758   7.290 -2.0002  1.4231 -1.7802
  118OSM    H6G12431   4.292   1.617   7.395  0.9047  0.0285 -0.3358
  118OSM    C7F12432   4.274   1.809   7.490 -0.7448 -0.8268  0.0628
  118OSM    H7F12433   4.196   1.887   7.483  0.4992  0.4251 -0.3799
  118OSM    H7G12434   4.374   1.853   7.513  0.5066 -3.4990  0.1767
  118OSM    C8F12435   4.253   1.717   7.612 -0.1056 -0.8815  0.2856
  118OSM    H8F12436   4.345   1.654   7.612 -1.3770 -2.8227 -0.7154
  118OSM    H8G12437   4.167   1.649   7.597 -1.3198  0.6696 -0.1342
  118OSM    C9F12438   4.229   1.791   7.740  0.0157  0.5565 -0.1230
  118OSM    H9F12439   4.162   1.879   7.738  0.6082  1.0087 -1.6616
  118OSM   C10F12440   4.282   1.749   7.861  0.3314 -0.0287 -0.0512
  118OSM   H10F12441   4.255   1.798   7.956  1.3406 -0.4031  0.4427
  118OSM   C11F12442   4.361   1.619   7.886 -0.0978  0.5756 -0.3229
  118OSM   H11F12443   4.462   1.625   7.841  1.0649  2.8214  2.2587
  118OSM   H11G12444   4.309   1.533   7.839  1.4350 -1.1400  1.0126
  118OSM   C12F12445   4.386   1.578   8.030 -0.8311  0.4099 -0.2070
  118OSM   H12F12446   4.437   1.480   8.036 -1.0320  0.3778  1.1051
  118OSM   H12G12447   4.286   1.556   8.073 -1.1506  1.4385 -0.3850
  118OSM   C13F12448   4.469   1.681   8.107  0.6658 -0.0554  0.3080
  118OSM   H13F12449   4.417   1.780   8.110 -1.2281 -1.0216  3.2934
  118OSM   H13G12450   4.571   1.695   8.065 -0.1175  1.5745 -1.1956
  118OSM   C14F12451   4.479   1.638   8.253 -0.3103  0.0331  0.0526
  118OSM   H14F12452   4.562   1.684   8.310  1.1463 -2.5799  0.2113
  118OSM   H14G12453   4.514   1.532   8.259  0.7970  0.3912 -0.0321
  118OSM   C15F12454   4.349   1.674   8.330 -0.4908  0.8886  0.4889
  118OSM   H15F12455   4.267   1.616   8.282  1.2507  0.5397 -2.2490
  118OSM   H15G12456   4.328   1.783   8.331 -1.1479  0.7662  1.4806
  118OSM   C16F12457   4.363   1.631   8.479 -0.1313 -0.0407  0.2222
  118OSM   H16F12458   4.421   1.718   8.519 -0.0177 -0.7769  1.7343
  118OSM   H16G12459   4.421   1.537   8.487 -1.7126 -1.0186  0.4738
  118OSM   C17F12460   4.237   1.607   8.560 -0.2351 -0.0451  0.0864
  118OSM   H17F12461   4.270   1.605   8.666  0.9672 -2.2446 -0.2610
  118OSM   H17G12462   4.191   1.507   8.539 -0.0841 -0.3333  1.1020
  118OSM   C18F12463   4.126   1.711   8.531  0.3998  0.2305 -0.0131
  118OSM   H18F12464   4.167   1.815   8.527  1.2839 -0.1117 -0.1443
  118OSM   H18G12465   4.049   1.712   8.611 -0.2950  1.1726 -0.6750
  118OSM   H18H12466   4.079   1.688   8.434 -0.6975 -0.3729  0.6471
  119OSM      N12467   5.988   3.470   6.297 -0.4469 -0.1134 -0.3184
  119OSM    C1512468   5.926   3.490   6.169 -1.0209 -0.2565  0.0894
  119OSM   H15A12469   5.820   3.470   6.171 -1.2579  0.9199  0.3151
  119OSM   H15B12470   5.969   3.429   6.092 -2.4481  1.2528 -2.0232
  119OSM   H15C12471   5.935   3.594   6.141 -0.1262  0.6163  3.2128
  119OSM    C1412472   5.959   3.329   6.337 -0.5474  0.2007 -0.2463
  119OSM   H14A12473   6.007   3.306   6.431 -0.0469  4.9616  0.9719
  119OSM   H14B12474   5.997   3.260   6.264 -0.9179  1.2569 -1.4756
  119OSM   H14C12475   5.854   3.306   6.346 -0.5058 -0.0286 -0.3378
  119OSM    C1312476   6.139   3.488   6.284  0.4042  1.1027 -0.6832
  119OSM   H13A12477   6.191   3.461   6.374  0.4890  1.4102 -0.6420
  119OSM   H13B12478   6.174   3.585   6.252 -2.9579  2.3703 -0.9609
  119OSM   H13C12479   6.179   3.427   6.204  2.4005 -2.2066  2.5352
  119OSM    C1212480   5.927   3.562   6.399 -0.7408  0.3554 -0.0612
  119OSM   H12A12481   5.977   3.538   6.492 -0.1471  1.0239 -0.1937
  119OSM   H12B12482   5.821   3.548   6.408 -0.5766 -1.7334 -0.8080
  119OSM    C1112483   5.954   3.716   6.367 -0.5129  0.3097 -0.1491
  119OSM   H11A12484   6.063   3.731   6.380 -0.7756  1.5200  0.9531
  119OSM   H11B12485   5.907   3.779   6.446 -0.2430 -0.5767  0.7549
  119OSM      P12486   5.995   3.843   6.139  0.6793  0.2261  0.1433
  119OSM    O1312487   6.118   3.780   6.101  0.2671 -0.0169  0.6359
  119OSM    O1412488   5.913   3.902   6.028  0.4253  0.1014  0.7290
  119OSM    O1112489   6.037   3.960   6.239 -0.0677  0.6664 -0.2210
  119OSM    O1212490   5.907   3.758   6.237 -0.1761  0.6527  0.4364
  119OSM    C1S12491   5.938   4.034   6.313  1.0795 -0.4962  0.1004
  119OSM    H1S12492   5.833   3.999   6.309 -0.0199  1.5735  4.3775
  119OSM    H1T12493   5.932   4.137   6.273  1.1560  0.6282  2.7441
  119OSM     NF12494   5.877   4.122   6.530  0.8844 -0.2388 -0.1492
  119OSM    HNF12495   5.894   4.220   6.537  1.6916 -0.0752 -3.0590
  119OSM    C2S12496   5.984   4.062   6.460  0.7959 -0.0076 -0.1551
  119OSM    H2S12497   5.998   3.962   6.506  1.5217  0.3123  0.3304
  119OSM    C3S12498   6.116   4.141   6.465 -0.4683 -0.2096  0.1514
  119OSM    H3S12499   6.095   4.244   6.430 -0.4446 -0.7834 -1.6723
  119OSM     O312500   6.219   4.097   6.375  0.3596 -0.0946 -0.2347
  119OSM    HO312501   6.174   4.022   6.335  2.3096 -1.9820  0.8798
  119OSM    C4S12502   6.174   4.131   6.604  0.4635 -0.0711  0.4191
  119OSM    H4S12503   6.202   4.028   6.630  0.1380 -0.2412  0.1031
  119OSM    C5S12504   6.204   4.229   6.687  0.4127  0.1970 -0.0725
  119OSM    H5S12505   6.190   4.334   6.660  0.2083 -0.1037 -1.2068
  119OSM    C6S12506   6.261   4.199   6.823 -0.3722  0.0010 -0.0788
  119OSM    H6S12507   6.360   4.243   6.844 -0.0159 -1.0938  0.6186
  119OSM    H6T12508   6.269   4.091   6.846 -2.1308 -0.0734  0.3173
  119OSM    C7S12509   6.164   4.258   6.927  0.3521  0.0905 -0.2732
  119OSM    H7S12510   6.066   4.211   6.907 -0.6246  0.9675  1.9978
  119OSM    H7T12511   6.158   4.368   6.911  3.2115  0.1637 -1.3803
  119OSM    C8S12512   6.207   4.235   7.073  0.0484 -0.5105 -0.0546
  119OSM    H8S12513   6.306   4.284   7.079  0.7124 -1.3991 -2.4227
  119OSM    H8T12514   6.238   4.128   7.079  4.1402  0.5229 -0.1817
  119OSM    C9S12515   6.107   4.291   7.172  0.0711 -0.6571 -0.1905
  119OSM    H9S12516   6.013   4.232   7.175 -0.6575  0.4912  0.9134
  119OSM    H9T12517   6.073   4.391   7.138  0.3019 -0.1238  1.0823
  119OSM   C10S12518   6.156   4.299   7.325 -0.3052 -0.3106  0.6512
  119OSM   H10S12519   6.113   4.396   7.357 -1.5063  0.5496 -3.0605
  119OSM   H10T12520   6.265   4.319   7.309 -0.4516 -0.4295 -0.6559
  119OSM   C11S12521   6.147   4.168   7.402 -0.3893 -0.5174 -0.0739
  119OSM   H11S12522   6.211   4.090   7.356  0.6740 -0.5684  1.4344
  119OSM   H11T12523   6.042   4.135   7.385  0.6788 -4.3152 -0.3083
  119OSM   C12S12524   6.175   4.184   7.553  0.3856 -0.5975 -0.2985
  119OSM   H12S12525   6.285   4.191   7.571  0.0238  0.3480  1.8369
  119OSM   H12T12526   6.144   4.093   7.608 -2.0554  0.8135  0.8006
  119OSM   C13S12527   6.079   4.290   7.619 -0.0669  0.8160  0.3017
  119OSM   H13S12528   5.978   4.253   7.592  0.6420  0.5990 -2.2790
  119OSM   H13T12529   6.092   4.394   7.581  1.9183  0.3876 -0.3052
  119OSM   C14S12530   6.102   4.294   7.763  0.0597 -0.1222 -0.4304
  119OSM   H14S12531   6.197   4.349   7.775 -1.5100  2.7451 -0.1731
  119OSM   H14T12532   6.099   4.196   7.816  0.9604  0.2982  0.4286
  119OSM   C15S12533   5.998   4.381   7.834 -0.2911 -0.5194 -0.1078
  119OSM   H15S12534   5.896   4.338   7.844 -0.6174  0.0984 -0.7514
  119OSM   H15T12535   5.982   4.473   7.775  0.7311 -0.2317  0.0590
  119OSM   C16S12536   6.045   4.419   7.972 -0.2457 -0.1060 -0.3325
  119OSM   H16S12537   5.985   4.505   8.010 -0.2656 -0.6678  0.9610
  119OSM   H16T12538   6.150   4.452   7.966  0.2174 -0.9017  2.2270
  119OSM   C17S12539   6.029   4.310   8.084  0.1670  1.1234  0.6753
  119OSM   H17S12540   6.082   4.217   8.053  1.2672  0.7878  3.2839
  119OSM   H17T12541   5.921   4.284   8.086 -0.0847  2.0563 -0.0254
  119OSM   C18S12542   6.081   4.362   8.215 -0.2461  0.1087 -0.0867
  119OSM   H18S12543   6.099   4.273   8.279  1.4940  0.0512 -0.5976
  119OSM   H18T12544   6.007   4.426   8.267  0.7051  1.6370 -0.5330
  119OSM   H18U12545   6.174   4.422   8.207 -0.1321  0.2345  1.6662
  119OSM    C1F12546   5.765   4.075   6.581  0.2840 -0.2107  0.2197
  119OSM     OF12547   5.729   3.960   6.558  0.3602 -0.0600 -0.1092
  119OSM    C2F12548   5.688   4.169   6.660 -0.1965  0.2730  0.7550
  119OSM    H2F12549   5.640   4.239   6.588  0.1765 -0.5650 -0.3374
  119OSM    H2G12550   5.750   4.212   6.741  1.7035 -1.7560  0.4849
  119OSM    C3F12551   5.578   4.086   6.742  0.5199 -0.6414  0.3316
  119OSM    H3F12552   5.624   3.997   6.791  0.9673 -1.6663 -1.8464
  119OSM    H3G12553   5.503   4.048   6.670  2.1853 -1.9979 -0.7764
  119OSM    C4F12554   5.507   4.171   6.849  0.0284  0.1140 -0.5709
  119OSM    H4F12555   5.429   4.233   6.799 -0.9637 -2.3974 -2.3432
  119OSM    H4G12556   5.586   4.234   6.895  0.5560 -0.2506 -0.9673
  119OSM    C5F12557   5.422   4.088   6.953 -1.1909 -0.7488  0.2791
  119OSM    H5F12558   5.351   4.024   6.896 -2.4918  1.1861 -0.3730
  119OSM    H5G12559   5.362   4.159   7.014  0.0919  0.2789  0.3725
  119OSM    C6F12560   5.503   3.992   7.043  0.1793  0.1218 -0.0983
  119OSM    H6F12561   5.554   4.058   7.117 -1.8356  0.3607  1.1251
  119OSM    H6G12562   5.575   3.937   6.978  0.0889  0.1194 -0.1947
  119OSM    C7F12563   5.428   3.881   7.107 -0.4134  0.5999  0.8845
  119OSM    H7F12564   5.504   3.812   7.149  2.4891  3.1490  0.1279
  119OSM    H7G12565   5.385   3.816   7.028 -0.3875  0.8851  0.6337
  119OSM    C8F12566   5.318   3.924   7.209  0.2484  0.7697 -0.1255
  119OSM    H8F12567   5.321   4.033   7.229 -0.8966  0.9878 -1.0018
  119OSM    H8G12568   5.335   3.875   7.307 -4.0122  0.9574  0.9406
  119OSM    C9F12569   5.178   3.877   7.179 -0.3333 -0.0027 -0.3937
  119OSM    H9F12570   5.162   3.854   7.072  1.1096  1.8558 -1.0645
  119OSM   C10F12571   5.079   3.869   7.269 -0.7514 -0.0706  0.3268
  119OSM   H10F12572   4.976   3.842   7.240  0.0326 -2.3157 -0.5375
  119OSM   C11F12573   5.093   3.915   7.411 -0.2726  0.3261  0.2404
  119OSM   H11F12574   5.045   4.014   7.422 -1.1994 -0.2775  2.0540
  119OSM   H11G12575   5.199   3.935   7.437  0.0310  1.2601 -1.5313
  119OSM   C12F12576   5.033   3.809   7.497  0.2639 -0.5300 -0.0679
  119OSM   H12F12577   5.083   3.713   7.469 -0.0941  0.2779 -4.0499
  119OSM   H12G12578   4.923   3.806   7.482  0.1613  1.6290 -0.0623
  119OSM   C13F12579   5.035   3.839   7.643 -0.0811 -0.4465 -0.1329
  119OSM   H13F12580   4.989   3.940   7.655 -0.7773 -0.6120 -1.3005
  119OSM   H13G12581   5.142   3.856   7.669  0.4198  0.6680 -2.6208
  119OSM   C14F12582   4.962   3.736   7.732  0.1052 -0.7078  0.0833
  119OSM   H14F12583   5.012   3.638   7.744 -1.8276 -1.6854  0.6717
  119OSM   H14G12584   4.868   3.700   7.685 -0.8835  1.0602  0.6097
  119OSM   C15F12585   4.920   3.778   7.872 -0.0157 -0.2659  0.4707
  119OSM   H15F12586   4.842   3.858   7.868  0.5769  0.3728  1.2628
  119OSM   H15G12587   5.004   3.835   7.917  0.2374  1.4910 -2.0486
  119OSM   C16F12588   4.890   3.656   7.966 -0.0776  0.1411 -0.5729
  119OSM   H16F12589   4.986   3.606   7.992  0.7696  1.9167 -0.1359
  119OSM   H16G12590   4.836   3.580   7.906  0.1351 -1.3145  1.0104
  119OSM   C17F12591   4.816   3.692   8.097 -0.9148 -0.1764 -0.2779
  119OSM   H17F12592   4.786   3.603   8.156 -2.0353  1.5667  1.8948
  119OSM   H17G12593   4.727   3.754   8.074 -0.3343 -0.2722 -3.1511
  119OSM   C18F12594   4.904   3.784   8.189 -0.3243 -0.2253 -0.3973
  119OSM   H18F12595   4.851   3.813   8.282  0.9011 -0.3301  0.3556
  119OSM   H18G12596   4.925   3.880   8.136 -2.1527  1.6299  1.9868
  119OSM   H18H12597   4.999   3.730   8.206 -0.5011 -0.0188  1.4547
  120OSM      N12598   2.901   3.169   6.402 -0.1815  0.1328 -0.8705
  120OSM    C1512599   2.752   3.173   6.423  0.1616 -0.1999  0.4454
  120OSM   H15A12600   2.698   3.102   6.361  0.3199  2.0788 -2.5127
  120OSM   H15B12601   2.722   3.268   6.381 -0.9728 -0.1816  1.2454
  120OSM   H15C12602   2.716   3.159   6.524  1.3087 -3.1468  0.5439
  120OSM    C1412603   2.956   3.264   6.504 -0.0210  0.5312  0.6585
  120OSM   H14A12604   2.927   3.237   6.604 -2.2104 -1.0679 -0.3055
  120OSM   H14B12605   2.916   3.361   6.476 -0.8117  0.1421  0.4088
  120OSM   H14C12606   3.063   3.251   6.502  0.0652  1.2213  0.3545
  120OSM    C1312607   2.944   3.027   6.427  0.3682  0.4220  0.5232
  120OSM   H13A12608   3.048   3.016   6.398  0.2044  0.3511 -0.0383
  120OSM   H13B12609   2.896   2.959   6.358 -1.0877  3.1907 -1.3731
  120OSM   H13C12610   2.927   2.988   6.526  0.9026 -3.7159 -0.8055
  120OSM    C1212611   2.956   3.218   6.274  0.8038  0.6437 -0.0143
  120OSM   H12A12612   2.942   3.145   6.195  1.4456  0.3137  0.1693
  120OSM   H12B12613   3.063   3.207   6.271  0.6877 -0.6251 -2.9315
  120OSM    C1112614   2.930   3.360   6.232  0.1830  0.0650  0.8989
  120OSM   H11A12615   2.955   3.358   6.123 -1.0113  1.0566  0.5921
  120OSM   H11B12616   2.997   3.439   6.271 -0.9283  2.0783 -1.0501
  120OSM      P12617   2.754   3.528   6.300 -0.1052 -0.3681  0.8350
  120OSM    O1312618   2.768   3.623   6.188 -0.1474 -0.4326 -0.1956
  120OSM    O1412619   2.619   3.518   6.356 -0.1225 -0.2991 -0.3644
  120OSM    O1112620   2.861   3.558   6.415  0.7676 -0.6369  0.2093
  120OSM    O1212621   2.792   3.392   6.243 -0.2967  0.3328 -0.2999
  120OSM    C1S12622   2.832   3.671   6.501  0.4944 -0.1336  0.1983
  120OSM    H1S12623   2.758   3.648   6.580  3.2878  1.4454  3.5438
  120OSM    H1T12624   2.782   3.754   6.445 -1.8474 -1.1504  0.6661
  120OSM     NF12625   2.910   3.803   6.684 -0.5817  0.2831 -0.0739
  120OSM    HNF12626   2.901   3.902   6.677 -1.7764  0.4156  2.4484
  120OSM    C2S12627   2.956   3.724   6.572  0.4958 -0.1557  0.1659
  120OSM    H2S12628   3.015   3.641   6.616 -0.5589 -0.3036  1.3510
  120OSM    C3S12629   3.047   3.798   6.473 -0.1351 -0.0943  0.1473
  120OSM    H3S12630   2.993   3.887   6.434 -0.4020 -0.8645 -1.3133
  120OSM     O312631   3.074   3.722   6.354 -0.7860 -0.5341 -0.5011
  120OSM    HO312632   3.000   3.661   6.345 -0.7890 -0.2882 -2.4862
  120OSM    C4S12633   3.172   3.857   6.533 -0.3260  0.6300 -0.3703
  120OSM    H4S12634   3.169   3.964   6.557  2.8291  0.0090  3.9844
  120OSM    C5S12635   3.284   3.792   6.567 -0.4617 -0.4398 -0.8189
  120OSM    H5S12636   3.303   3.688   6.537  0.5003 -0.9212  1.3222
  120OSM    C6S12637   3.413   3.858   6.608  0.9722 -0.0410 -0.4679
  120OSM    H6S12638   3.422   3.966   6.581 -0.0195  0.3298  0.5928
  120OSM    H6T12639   3.497   3.798   6.568  0.0501 -2.1968  0.6571
  120OSM    C7S12640   3.423   3.839   6.766 -0.1910  0.0745  0.1544
  120OSM    H7S12641   3.413   3.735   6.803 -2.3033  0.9484  2.2775
  120OSM    H7T12642   3.344   3.900   6.814 -1.0893  0.5425 -1.8076
  120OSM    C8S12643   3.559   3.895   6.806  0.1888 -0.4218  0.8826
  120OSM    H8S12644   3.568   4.002   6.777 -1.1941 -0.6721 -0.6101
  120OSM    H8T12645   3.647   3.841   6.763 -3.1990 -5.4737 -0.5083
  120OSM    C9S12646   3.565   3.880   6.954 -0.3233 -0.7163 -0.4734
  120OSM    H9S12647   3.532   3.776   6.980  0.6822 -1.0632 -0.5500
  120OSM    H9T12648   3.488   3.944   7.001 -1.1697 -1.0510 -1.3550
  120OSM   C10S12649   3.700   3.910   7.020 -0.7467  0.3469  0.6339
  120OSM   H10S12650   3.745   3.993   6.961 -1.1503  0.8112  0.9727
  120OSM   H10T12651   3.760   3.817   7.012 -2.4583 -0.8302  0.9480
  120OSM   C11S12652   3.680   3.955   7.166 -0.0124 -0.4189 -0.0324
  120OSM   H11S12653   3.622   3.869   7.206  0.9373 -1.4263 -0.7520
  120OSM   H11T12654   3.623   4.047   7.188 -0.4032 -0.9906  1.4825
  120OSM   C12S12655   3.814   3.980   7.238  0.0577  0.0338  0.0824
  120OSM   H12S12656   3.791   3.993   7.346  1.8836  0.9766  0.3924
  120OSM   H12T12657   3.857   4.079   7.214  0.3902  0.3046  1.6599
  120OSM   C13S12658   3.906   3.862   7.221  0.2860  0.1648 -0.3942
  120OSM   H13S12659   3.945   3.864   7.118  0.2844 -1.4721 -0.4589
  120OSM   H13T12660   3.852   3.765   7.226 -2.0979  1.3707 -0.8954
  120OSM   C14S12661   4.024   3.871   7.316 -0.4008  0.8612  0.7360
  120OSM   H14S12662   4.038   3.972   7.358  0.7321  0.3814  1.5669
  120OSM   H14T12663   4.119   3.844   7.265  0.1073  1.8460  1.1373
  120OSM   C15S12664   4.000   3.777   7.433 -0.3190 -0.0065 -0.2314
  120OSM   H15S12665   3.891   3.792   7.451 -0.3988  2.3793 -2.1991
  120OSM   H15T12666   4.051   3.826   7.519 -1.2448 -0.4783  0.6101
  120OSM   C16S12667   4.058   3.630   7.422 -0.4329 -0.4501  0.1882
  120OSM   H16S12668   4.043   3.605   7.315  2.2368 -2.0957  0.1078
  120OSM   H16T12669   3.999   3.563   7.488 -1.7799 -1.0199 -1.5208
  120OSM   C17S12670   4.206   3.636   7.441 -0.3892 -0.3963 -0.4755
  120OSM   H17S12671   4.238   3.673   7.541  0.9368 -0.4883 -0.8389
  120OSM   H17T12672   4.251   3.702   7.364  0.5907  1.1740  1.3378
  120OSM   C18S12673   4.275   3.505   7.422 -0.7433 -0.2730  0.2457
  120OSM   H18S12674   4.379   3.525   7.453 -0.5385  1.8493 -1.5492
  120OSM   H18T12675   4.264   3.481   7.314  0.0310  1.0567 -0.1534
  120OSM   H18U12676   4.237   3.423   7.488 -1.6294 -1.3921 -1.5617
  120OSM    C1F12677   2.884   3.749   6.800 -0.4049  0.3304 -0.2477
  120OSM     OF12678   2.867   3.629   6.817  0.2203  1.1062  0.4397
  120OSM    C2F12679   2.891   3.833   6.920 -0.0980 -0.4093 -0.0145
  120OSM    H2F12680   2.788   3.859   6.955  0.2816  2.3507 -0.6884
  120OSM    H2G12681   2.946   3.922   6.883  0.2320 -0.9141 -0.7385
  120OSM    C3F12682   2.968   3.786   7.039 -0.3143 -0.2660  0.9180
  120OSM    H3F12683   2.969   3.869   7.114 -0.8543  0.5330  0.0665
  120OSM    H3G12684   3.072   3.758   7.012 -0.2636  1.6253 -1.1018
  120OSM    C4F12685   2.900   3.669   7.107 -0.7343 -0.4210 -0.1576
  120OSM    H4F12686   2.905   3.581   7.040 -1.2025 -0.5520 -0.0262
  120OSM    H4G12687   2.794   3.696   7.125 -0.1033  2.5951 -0.3395
  120OSM    C5F12688   2.974   3.644   7.239 -0.0603 -1.1433 -0.8012
  120OSM    H5F12689   3.081   3.659   7.211 -0.7565 -0.1817 -3.1853
  120OSM    H5G12690   2.956   3.536   7.259  0.9341 -1.5153 -1.8115
  120OSM    C6F12691   2.928   3.723   7.360 -0.0209  0.6735 -0.1695
  120OSM    H6F12692   2.817   3.725   7.368 -0.2289 -0.3660 -2.3008
  120OSM    H6G12693   2.967   3.824   7.332 -0.9529  1.6354  1.8099
  120OSM    C7F12694   3.000   3.670   7.480 -0.1137  0.1916 -0.2481
  120OSM    H7F12695   3.104   3.698   7.454  0.1690 -1.6411 -1.2199
  120OSM    H7G12696   2.978   3.562   7.487 -0.8204  0.3082 -0.5200
  120OSM    C8F12697   2.975   3.740   7.608 -0.5802 -0.2391 -0.6167
  120OSM    H8F12698   2.996   3.847   7.591 -0.5698 -0.2450 -0.6432
  120OSM    H8G12699   3.056   3.718   7.681 -2.3601  0.6232  1.7474
  120OSM    C9F12700   2.846   3.708   7.675  0.2595  0.0958 -0.6190
  120OSM    H9F12701   2.757   3.706   7.611 -0.4300  1.8955  0.2056
  120OSM   C10F12702   2.819   3.694   7.804 -0.0458  0.3484 -0.1266
  120OSM   H10F12703   2.712   3.685   7.827 -0.1707  0.5613 -0.6089
  120OSM   C11F12704   2.905   3.705   7.926  0.3547 -0.4663 -0.5012
  120OSM   H11F12705   2.840   3.724   8.014  1.6096 -1.9010  0.7909
  120OSM   H11G12706   2.977   3.789   7.919  2.6285 -2.3659 -1.7777
  120OSM   C12F12707   2.982   3.584   7.959  0.4689 -0.0820 -0.2985
  120OSM   H12F12708   3.022   3.531   7.870  2.3296  1.5286 -0.4719
  120OSM   H12G12709   2.924   3.508   8.016  1.0728 -0.4510 -0.1713
  120OSM   C13F12710   3.103   3.619   8.057 -0.0951 -0.0143  0.0078
  120OSM   H13F12711   3.049   3.636   8.152 -0.5040 -2.4814  0.2932
  120OSM   H13G12712   3.157   3.709   8.023  4.4027 -3.2144 -2.4590
  120OSM   C14F12713   3.205   3.505   8.087 -0.5315  0.1402 -0.1923
  120OSM   H14F12714   3.296   3.556   8.125  0.3956 -1.5146 -0.0965
  120OSM   H14G12715   3.232   3.459   7.990 -0.1834  0.2863 -0.1674
  120OSM   C15F12716   3.164   3.392   8.184 -0.3101 -0.9439  0.3870
  120OSM   H15F12717   3.066   3.357   8.146  0.5663 -4.9838  1.4111
  120OSM   H15G12718   3.155   3.434   8.287  0.0007  0.1678 -0.0243
  120OSM   C16F12719   3.263   3.273   8.172 -0.8259 -0.6447 -0.4012
  120OSM   H16F12720   3.269   3.252   8.063  2.8594  2.5890 -1.0614
  120OSM   H16G12721   3.228   3.193   8.239 -0.4541 -0.3760  0.1189
  120OSM   C17F12722   3.408   3.317   8.215  0.1684 -0.6596 -0.1886
  120OSM   H17F12723   3.401   3.363   8.316 -0.0995 -0.1497 -0.4345
  120OSM   H17G12724   3.442   3.392   8.140 -1.2978  1.4564  1.1414
  120OSM   C18F12725   3.512   3.206   8.222 -0.3914 -0.0005 -0.2143
  120OSM   H18F12726   3.614   3.245   8.205 -0.5869  1.6767  2.0245
  120OSM   H18G12727   3.487   3.141   8.136 -0.4836  1.6783 -1.5008
  120OSM   H18H12728   3.504   3.151   8.319 -1.7252 -0.6079 -0.6316
  121OSM      N12729   4.375   1.002   5.972  1.0882  0.0613 -0.3614
  121OSM    C1512730   4.509   0.945   5.992  0.5315  0.3173  0.2793
  121OSM   H15A12731   4.496   0.843   6.024  1.6915 -0.5279 -1.7543
  121OSM   H15B12732   4.568   1.010   6.056  0.5025  0.2330  0.3910
  121OSM   H15C12733   4.560   0.929   5.898 -0.0089  0.5426 -0.0563
  121OSM    C1412734   4.321   1.026   6.111  0.1348  0.5566  0.0765
  121OSM   H14A12735   4.219   1.056   6.094 -0.6054 -1.1515  1.2340
  121OSM   H14B12736   4.384   1.101   6.157 -0.1390  0.9177 -0.1384
  121OSM   H14C12737   4.313   0.937   6.172 -0.6850  0.4402 -0.1871
  121OSM    C1312738   4.389   1.137   5.906  0.2072  0.4424  0.2710
  121OSM   H13A12739   4.436   1.127   5.810  1.6171 -1.1987  1.0800
  121OSM   H13B12740   4.439   1.208   5.971  0.0616  0.4875  0.3373
  121OSM   H13C12741   4.288   1.175   5.893  0.5073  0.9812 -0.5457
  121OSM    C1212742   4.280   0.911   5.896  0.3025  0.3248 -0.0783
  121OSM   H12A12743   4.260   0.825   5.958 -3.1623  1.7046  0.9780
  121OSM   H12B12744   4.332   0.889   5.804 -0.3005 -0.5600 -0.2222
  121OSM    C1112745   4.139   0.969   5.867  0.2937  0.0582 -0.1296
  121OSM   H11A12746   4.085   0.893   5.806 -0.4694  0.1905  0.3720
  121OSM   H11B12747   4.153   1.060   5.806 -1.1459  1.6565  1.8131
  121OSM      P12748   4.003   0.883   6.069  0.2039  0.4819 -0.3836
  121OSM    O1312749   3.887   0.830   5.988  0.0665  0.2806 -0.0251
  121OSM    O1412750   4.108   0.786   6.105  0.1196 -0.0128 -0.2437
  121OSM    O1112751   3.943   0.959   6.193  0.3969 -0.1018 -0.4351
  121OSM    O1212752   4.068   1.002   5.986 -0.1203 -0.0054 -0.0079
  121OSM    C1S12753   3.957   0.911   6.332  0.5485  0.4426  0.9208
  121OSM    H1S12754   4.056   0.862   6.343  0.7969 -1.0024 -4.6592
  121OSM    H1T12755   3.884   0.826   6.338  2.3006 -1.4211 -1.7200
  121OSM     NF12756   3.981   0.979   6.559  0.5374  0.0289 -0.6650
  121OSM    HNF12757   3.916   0.959   6.632  1.0280 -1.1479 -0.5302
  121OSM    C2S12758   3.935   1.023   6.433 -0.0241 -0.8034  0.1395
  121OSM    H2S12759   3.990   1.111   6.392 -1.1673  0.3783  1.0577
  121OSM    C3S12760   3.780   1.077   6.421  0.4737  0.2663 -0.3899
  121OSM    H3S12761   3.707   0.994   6.433 -0.7562  1.3910  0.1273
  121OSM     O312762   3.741   1.122   6.290 -0.0773  0.0786 -0.0544
  121OSM    HO312763   3.809   1.082   6.236  0.1763  0.3560  0.0619
  121OSM    C4S12764   3.759   1.186   6.528  0.3992  0.5474  1.0652
  121OSM    H4S12765   3.731   1.139   6.624 -1.3178 -2.2265 -0.6485
  121OSM    C5S12766   3.773   1.313   6.513  0.3121 -0.0508 -0.5823
  121OSM    H5S12767   3.792   1.361   6.416 -1.6880 -0.0799 -1.0336
  121OSM    C6S12768   3.777   1.411   6.631 -0.5001  0.2846  0.0903
  121OSM    H6S12769   3.719   1.502   6.603  0.0367  0.4392 -0.5717
  121OSM    H6T12770   3.883   1.445   6.641 -0.2504 -0.4162 -0.1277
  121OSM    C7S12771   3.733   1.362   6.770  0.1599 -0.0056 -0.1076
  121OSM    H7S12772   3.806   1.286   6.804  0.3978  0.2024 -0.1502
  121OSM    H7T12773   3.630   1.320   6.770 -0.6344  1.6564 -3.1391
  121OSM    C8S12774   3.735   1.483   6.868 -0.9719  0.2197  0.0694
  121OSM    H8S12775   3.684   1.572   6.826  0.1157  0.8739  0.0879
  121OSM    H8T12776   3.845   1.503   6.871 -0.8265 -0.6008  1.7896
  121OSM    C9S12777   3.675   1.451   7.001 -0.3717 -0.1859  0.0164
  121OSM    H9S12778   3.708   1.348   7.025  1.5808  0.3928  0.0485
  121OSM    H9T12779   3.564   1.452   7.006 -0.4364 -1.9821 -0.4854
  121OSM   C10S12780   3.732   1.547   7.107  0.0225  0.3795 -1.1977
  121OSM   H10S12781   3.681   1.646   7.116  1.0159  0.7701  0.5517
  121OSM   H10T12782   3.837   1.552   7.073  0.6469 -2.3337  0.0829
  121OSM   C11S12783   3.721   1.481   7.254 -0.3514 -0.0291  0.6153
  121OSM   H11S12784   3.781   1.389   7.237  0.1678  0.7001 -2.0241
  121OSM   H11T12785   3.616   1.452   7.277 -0.0527 -1.6035  0.1409
  121OSM   C12S12786   3.790   1.576   7.347 -0.1594  0.2840  0.2980
  121OSM   H12S12787   3.744   1.677   7.342  0.0243  0.4466  1.5724
  121OSM   H12T12788   3.897   1.590   7.320  0.9303 -0.5726  3.7058
  121OSM   C13S12789   3.780   1.527   7.494  0.5224  0.4656 -0.2774
  121OSM   H13S12790   3.815   1.422   7.506 -1.0670 -0.0970 -0.4268
  121OSM   H13T12791   3.677   1.524   7.534  0.8648 -1.6161  0.5796
  121OSM   C14S12792   3.865   1.600   7.601  0.8720 -0.4646 -0.2383
  121OSM   H14S12793   3.841   1.708   7.614 -0.4459 -0.9175  1.5355
  121OSM   H14T12794   3.973   1.599   7.573  1.3512  1.3245  1.2879
  121OSM   C15S12795   3.841   1.537   7.737  0.0355 -0.1485 -0.1202
  121OSM   H15S12796   3.850   1.426   7.728 -0.6824 -0.1504 -0.8608
  121OSM   H15T12797   3.736   1.553   7.771  0.2842 -0.4582  0.8528
  121OSM   C16S12798   3.927   1.591   7.847 -0.4211  0.2975 -0.9800
  121OSM   H16S12799   3.928   1.701   7.833 -2.1925  0.8634  2.3392
  121OSM   H16T12800   4.033   1.560   7.830  0.2764  1.5566  0.8069
  121OSM   C17S12801   3.869   1.558   7.981  0.4491 -1.0737 -0.1122
  121OSM   H17S12802   3.854   1.449   7.995  0.8539 -1.0125  0.8622
  121OSM   H17T12803   3.768   1.604   7.985  0.2155 -1.6775  1.9003
  121OSM   C18S12804   3.951   1.620   8.098  0.0458 -0.1266  0.1322
  121OSM   H18S12805   3.947   1.731   8.103 -0.0720 -0.1842  2.6366
  121OSM   H18T12806   4.060   1.603   8.083  0.1958 -0.6994  1.6733
  121OSM   H18U12807   3.908   1.578   8.191 -2.3472 -0.4780 -1.0591
  121OSM    C1F12808   4.103   0.976   6.605 -0.3695  0.4647 -0.7295
  121OSM     OF12809   4.201   1.031   6.549  0.1588  0.3167 -0.7331
  121OSM    C2F12810   4.118   0.874   6.716  0.1717  0.2757  0.7814
  121OSM    H2F12811   4.194   0.800   6.683 -2.1256 -1.4255 -1.0208
  121OSM    H2G12812   4.018   0.828   6.729  0.3788 -0.1233  0.9873
  121OSM    C3F12813   4.183   0.950   6.833 -0.4798 -0.4176 -0.2760
  121OSM    H3F12814   4.096   1.006   6.875  0.3419 -0.0313  0.9320
  121OSM    H3G12815   4.274   1.004   6.800  0.4037 -1.8327 -0.2274
  121OSM    C4F12816   4.229   0.845   6.940  0.0176  0.2161  0.3117
  121OSM    H4F12817   4.285   0.772   6.878  0.1750  0.0480  0.6453
  121OSM    H4G12818   4.134   0.801   6.977 -0.2684 -0.8240 -1.5379
  121OSM    C5F12819   4.331   0.896   7.042 -0.6100 -0.0962  1.4686
  121OSM    H5F12820   4.307   0.999   7.077 -1.1383  0.2875  0.0515
  121OSM    H5G12821   4.430   0.906   6.992 -1.5268  2.3100 -0.0676
  121OSM    C6F12822   4.327   0.795   7.152 -0.8354  0.2205  0.5906
  121OSM    H6F12823   4.344   0.697   7.104 -0.4854  1.0652 -1.1077
  121OSM    H6G12824   4.232   0.783   7.207 -1.5114 -2.2973 -0.9887
  121OSM    C7F12825   4.448   0.822   7.240 -0.2886  0.3289 -0.1662
  121OSM    H7F12826   4.537   0.841   7.176  1.5735  1.4405  2.5531
  121OSM    H7G12827   4.473   0.730   7.297 -1.3560  0.5839  0.7526
  121OSM    C8F12828   4.449   0.949   7.328  0.4299  0.2675 -0.5412
  121OSM    H8F12829   4.433   1.033   7.257 -0.2255 -0.2066 -0.9616
  121OSM    H8G12830   4.553   0.958   7.366  1.0025 -1.2912 -1.6293
  121OSM    C9F12831   4.341   0.958   7.426  0.4359 -0.0483 -0.5258
  121OSM    H9F12832   4.241   0.983   7.387 -0.0575 -2.6833 -1.1308
  121OSM   C10F12833   4.359   0.924   7.556  0.5779 -0.0736  0.2864
  121OSM   H10F12834   4.268   0.931   7.618  0.4137 -0.1562  0.0559
  121OSM   C11F12835   4.490   0.880   7.612 -0.2046  0.3245 -0.6488
  121OSM   H11F12836   4.573   0.952   7.594  1.1401 -0.3789  2.1993
  121OSM   H11G12837   4.529   0.783   7.576 -0.7354  0.0062 -0.3687
  121OSM   C12F12838   4.481   0.882   7.763 -0.4011 -0.1950 -1.1625
  121OSM   H12F12839   4.449   0.975   7.814  0.0641 -0.1869 -0.8770
  121OSM   H12G12840   4.584   0.858   7.797  0.3562  0.6274 -2.8061
  121OSM   C13F12841   4.402   0.767   7.824 -0.0970  0.5680  0.4225
  121OSM   H13F12842   4.449   0.674   7.786 -1.3426 -0.3073  0.9462
  121OSM   H13G12843   4.293   0.774   7.801 -0.6494 -0.2212  2.6015
  121OSM   C14F12844   4.418   0.775   7.976  0.3666  0.0912  0.5235
  121OSM   H14F12845   4.393   0.875   8.016  0.6546  0.7350 -0.8285
  121OSM   H14G12846   4.523   0.748   8.002  0.6391  0.5551 -0.0558
  121OSM   C15F12847   4.328   0.674   8.045 -0.3174 -0.2272 -0.2629
  121OSM   H15F12848   4.367   0.575   8.016  1.3596  0.3458 -0.0845
  121OSM   H15G12849   4.224   0.679   8.007 -0.5214  2.0771  0.4472
  121OSM   C16F12850   4.354   0.671   8.198 -0.0077 -0.8739  0.0426
  121OSM   H16F12851   4.464   0.678   8.193 -0.0930  0.5713 -0.3217
  121OSM   H16G12852   4.326   0.571   8.239 -0.1610 -0.2974  1.4207
  121OSM   C17F12853   4.289   0.784   8.279  0.1896  0.2538 -0.3957
  121OSM   H17F12854   4.185   0.764   8.312  0.7513  0.4670  1.6691
  121OSM   H17G12855   4.288   0.883   8.230  1.4915  1.0814  1.1315
  121OSM   C18F12856   4.362   0.809   8.408  0.1305  0.6799  0.1665
  121OSM   H18F12857   4.468   0.840   8.397  0.4440 -0.2217  0.5360
  121OSM   H18G12858   4.370   0.716   8.469  0.7957  1.1225  0.7577
  121OSM   H18H12859   4.319   0.894   8.465 -0.6145  0.2970  0.1827
  122OSM      N12860   3.875   1.302   5.983  0.1373  0.4088 -0.1161
  122OSM    C1512861   3.775   1.193   5.988 -0.5279 -0.6368  0.1840
  122OSM   H15A12862   3.831   1.103   5.971  0.0881 -0.7217  2.4756
  122OSM   H15B12863   3.713   1.204   5.899  0.8976 -1.4656 -0.9600
  122OSM   H15C12864   3.708   1.189   6.073  1.0737  2.0622  1.6975
  122OSM    C1412865   3.986   1.279   6.078 -0.4230 -0.1146 -0.4708
  122OSM   H14A12866   3.956   1.273   6.181  1.7749 -1.4752  0.1530
  122OSM   H14B12867   4.078   1.333   6.065  0.2478 -1.2097 -0.3188
  122OSM   H14C12868   4.033   1.184   6.058  1.5451  0.4952  0.9686
  122OSM    C1312869   3.931   1.317   5.842  0.6326 -0.6035  0.0682
  122OSM   H13A12870   3.983   1.411   5.831  1.2624 -0.9388  0.1463
  122OSM   H13B12871   3.857   1.317   5.763  0.4251  0.1900  0.2524
  122OSM   H13C12872   3.989   1.229   5.816  0.1997 -1.2599  1.2531
  122OSM    C1212873   3.788   1.426   6.016  0.0089 -0.6133  0.1431
  122OSM   H12A12874   3.723   1.406   6.099  0.5284  0.7110  0.9002
  122OSM   H12B12875   3.722   1.445   5.933 -0.2617 -0.1717  0.4587
  122OSM    C1112876   3.861   1.564   6.031 -0.5834  0.0577  0.7790
  122OSM   H11A12877   3.878   1.579   6.140  0.0025 -1.0593  0.8501
  122OSM   H11B12878   3.782   1.637   6.002 -0.1198 -0.1409 -1.1163
  122OSM      P12879   4.117   1.618   6.018  0.0467 -0.1778 -0.0197
  122OSM    O1312880   4.234   1.551   5.954 -0.0340  0.6907  0.2898
  122OSM    O1412881   4.118   1.772   6.031 -0.5022 -0.0509  0.1529
  122OSM    O1112882   4.097   1.554   6.162 -0.1184 -0.2370  0.2323
  122OSM    O1212883   3.979   1.576   5.951 -0.1599 -0.2665  0.3715
  122OSM    C1S12884   4.121   1.640   6.281 -0.9716  0.7532  0.4516
  122OSM    H1S12885   4.061   1.733   6.271 -0.0325  1.4816  1.4208
  122OSM    H1T12886   4.226   1.674   6.289 -1.5817  2.2345  3.5690
  122OSM     NF12887   4.040   1.656   6.521  0.0816  0.1225  0.5515
  122OSM    HNF12888   4.114   1.669   6.586  0.0201  0.5456  0.5422
  122OSM    C2S12889   4.074   1.562   6.413 -0.7181 -0.5227  0.5564
  122OSM    H2S12890   3.978   1.514   6.383 -1.8459  1.8424  0.1241
  122OSM    C3S12891   4.186   1.460   6.449 -0.1084 -0.2159  0.4115
  122OSM    H3S12892   4.281   1.516   6.461  0.3422 -0.0358 -2.8997
  122OSM     O312893   4.204   1.377   6.335  0.5434  0.6028 -0.3479
  122OSM    HO312894   4.154   1.430   6.272  0.3949  0.4937 -0.3218
  122OSM    C4S12895   4.148   1.370   6.566 -0.3631 -0.0403  0.4292
  122OSM    H4S12896   4.065   1.298   6.557 -1.1714  0.8419  0.6614
  122OSM    C5S12897   4.192   1.381   6.697 -0.4904 -0.6586 -0.5770
  122OSM    H5S12898   4.261   1.463   6.719 -1.7461  0.7793 -1.7169
  122OSM    C6S12899   4.141   1.291   6.810 -0.7859 -0.5821  0.0613
  122OSM    H6S12900   4.218   1.213   6.829  0.2181  0.0614 -1.1534
  122OSM    H6T12901   4.046   1.238   6.788  0.1148 -1.0838 -3.1876
  122OSM    C7S12902   4.137   1.363   6.950  0.1791 -0.0714  0.6008
  122OSM    H7S12903   4.071   1.453   6.942 -0.1765 -0.2577  1.3460
  122OSM    H7T12904   4.239   1.399   6.975  0.6723  0.4642 -1.9114
  122OSM    C8S12905   4.088   1.267   7.058 -0.2748 -0.7681  0.6530
  122OSM    H8S12906   4.149   1.174   7.062  0.0366 -0.6072 -0.2589
  122OSM    H8T12907   3.984   1.234   7.037 -0.9059  1.3555  0.2041
  122OSM    C9S12908   4.090   1.334   7.197  0.0989 -0.4313  0.7333
  122OSM    H9S12909   3.990   1.382   7.210 -0.0466 -1.0026  1.8036
  122OSM    H9T12910   4.168   1.413   7.191 -3.6308  3.6281  0.3012
  122OSM   C10S12911   4.118   1.236   7.310 -0.2417  0.1955 -0.3768
  122OSM   H10S12912   4.221   1.197   7.302  0.5212  2.1217 -0.5018
  122OSM   H10T12913   4.043   1.155   7.296  0.0716 -0.1580 -0.0236
  122OSM   C11S12914   4.097   1.292   7.452  0.3038  0.9999 -0.1728
  122OSM   H11S12915   3.989   1.318   7.459  0.8942  3.5502  0.6268
  122OSM   H11T12916   4.160   1.383   7.459  2.0399 -0.0562 -1.3864
  122OSM   C12S12917   4.152   1.206   7.566 -0.0461  0.5067  0.2607
  122OSM   H12S12918   4.261   1.190   7.554 -0.7322 -3.7231 -2.2299
  122OSM   H12T12919   4.114   1.102   7.560 -0.4469  0.7090 -0.9744
  122OSM   C13S12920   4.140   1.265   7.713 -0.2366 -0.2692 -0.0187
  122OSM   H13S12921   4.037   1.300   7.732  0.4730  1.9611  0.0404
  122OSM   H13T12922   4.193   1.363   7.713 -4.2123  2.0954 -0.6598
  122OSM   C14S12923   4.190   1.177   7.827  1.0977  0.1440  0.2403
  122OSM   H14S12924   4.296   1.147   7.809  1.1249  0.7025 -0.6183
  122OSM   H14T12925   4.130   1.084   7.833  2.0536 -0.4263  1.4034
  122OSM   C15S12926   4.186   1.256   7.954 -0.6288 -0.1998 -1.0301
  122OSM   H15S12927   4.083   1.298   7.964 -1.1728 -1.8742  1.3329
  122OSM   H15T12928   4.254   1.343   7.939 -0.1762 -0.5733 -1.1510
  122OSM   C16S12929   4.212   1.180   8.082 -0.2377 -0.9141 -0.0079
  122OSM   H16S12930   4.308   1.124   8.079 -0.1702 -0.8277  0.4309
  122OSM   H16T12931   4.130   1.107   8.093  0.1682 -1.6099 -1.3749
  122OSM   C17S12932   4.210   1.266   8.209 -0.0594 -0.9258  0.0546
  122OSM   H17S12933   4.108   1.300   8.237  0.8427  1.2329  0.9547
  122OSM   H17T12934   4.264   1.363   8.200 -0.7529 -0.5405 -0.0898
  122OSM   C18S12935   4.258   1.186   8.331 -0.3340  0.2247  0.3042
  122OSM   H18S12936   4.201   1.091   8.322 -0.7453  0.6445 -2.4057
  122OSM   H18T12937   4.249   1.247   8.424  2.6442  1.5814 -0.1877
  122OSM   H18U12938   4.366   1.159   8.326 -0.1826  0.7254  0.8384
  122OSM    C1F12939   3.941   1.741   6.509  0.1547  0.0618 -0.2681
  122OSM     OF12940   3.859   1.726   6.418  1.2459  0.0974 -0.3871
  122OSM    C2F12941   3.934   1.853   6.610 -0.2059  0.1759  0.2579
  122OSM    H2F12942   3.967   1.948   6.563  0.0559  0.6354  1.3364
  122OSM    H2G12943   4.003   1.831   6.694 -0.2206 -2.0686 -0.2641
  122OSM    C3F12944   3.793   1.885   6.662  0.8449 -0.2481 -0.1136
  122OSM    H3F12945   3.727   1.797   6.678 -0.0835  0.4182 -0.2615
  122OSM    H3G12946   3.744   1.941   6.580  1.9189  0.8409 -0.0333
  122OSM    C4F12947   3.786   1.971   6.790  0.1790  0.0003 -0.1979
  122OSM    H4F12948   3.693   2.032   6.801  0.7343  0.6183  1.2951
  122OSM    H4G12949   3.867   2.045   6.772 -0.8761  1.0825 -0.6862
  122OSM    C5F12950   3.812   1.882   6.916 -0.2585  0.1641  0.1541
  122OSM    H5F12951   3.908   1.828   6.902 -0.3065 -0.2276  1.1698
  122OSM    H5G12952   3.726   1.811   6.923 -0.4166  0.4296  1.0658
  122OSM    C6F12953   3.839   1.952   7.050  0.5506 -0.1348 -0.0105
  122OSM    H6F12954   3.898   2.046   7.040 -0.8532  0.9889  1.6089
  122OSM    H6G12955   3.896   1.887   7.119  2.4500  2.1773  0.7485
  122OSM    C7F12956   3.709   1.999   7.124  0.4260 -0.7328 -0.6064
  122OSM    H7F12957   3.635   1.917   7.131 -1.2898  0.6335 -1.9261
  122OSM    H7G12958   3.658   2.082   7.071  0.6206  0.8566  1.5109
  122OSM    C8F12959   3.729   2.046   7.268 -0.0898 -0.0268  0.3758
  122OSM    H8F12960   3.778   1.970   7.333 -0.7927  0.7126  1.8172
  122OSM    H8G12961   3.632   2.069   7.317  1.1170  1.2852  2.3286
  122OSM    C9F12962   3.812   2.171   7.282 -0.5121 -0.6154  0.2586
  122OSM    H9F12963   3.851   2.215   7.189 -2.0061  2.0954  0.8398
  122OSM   C10F12964   3.842   2.219   7.405 -0.3386  0.4566 -0.1105
  122OSM   H10F12965   3.912   2.304   7.404 -0.3448  0.4586 -0.6136
  122OSM   C11F12966   3.797   2.156   7.533 -0.2514 -0.0055 -0.4531
  122OSM   H11F12967   3.735   2.064   7.524 -1.1518  0.6235 -0.8027
  122OSM   H11G12968   3.746   2.229   7.599 -0.8004  0.2800 -1.1925
  122OSM   C12F12969   3.922   2.124   7.609 -0.3010 -0.4496  0.5155
  122OSM   H12F12970   3.978   2.219   7.619  0.1139 -0.7137  0.7121
  122OSM   H12G12971   3.986   2.055   7.550 -0.3307  0.2097 -0.3186
  122OSM   C13F12972   3.903   2.080   7.750  0.1886 -0.6249 -0.0542
  122OSM   H13F12973   3.892   1.970   7.754  0.5495 -0.7023 -0.9128
  122OSM   H13G12974   3.820   2.133   7.801  0.1456 -0.6652 -0.0822
  122OSM   C14F12975   4.029   2.101   7.834  0.5631  0.1894 -0.3180
  122OSM   H14F12976   4.052   2.209   7.848 -2.3618  0.6379  2.0737
  122OSM   H14G12977   4.117   2.056   7.783  0.4936  1.1336 -1.3235
  122OSM   C15F12978   4.024   2.046   7.974  0.0163 -0.1834 -0.2613
  122OSM   H15F12979   4.004   1.937   7.974  3.2283 -0.8768 -0.0219
  122OSM   H15G12980   3.946   2.099   8.032 -0.0938  0.0815 -0.6452
  122OSM   C16F12981   4.156   2.077   8.048  0.0688  0.0590 -0.1804
  122OSM   H16F12982   4.176   2.186   8.047 -0.1574  0.1005 -0.0573
  122OSM   H16G12983   4.242   2.028   7.997 -0.0058 -2.9645  2.3080
  122OSM   C17F12984   4.148   2.028   8.194  0.0103  0.0862 -0.4113
  122OSM   H17F12985   4.116   1.922   8.208 -3.1164  1.0351  0.5921
  122OSM   H17G12986   4.062   2.076   8.245 -0.6426 -0.5897 -0.8601
  122OSM   C18F12987   4.271   2.051   8.280  0.5080 -0.1370 -0.2330
  122OSM   H18F12988   4.302   2.157   8.270 -1.6903  0.4174 -2.0541
  122OSM   H18G12989   4.355   1.982   8.257  1.7042  0.7197  1.3669
  122OSM   H18H12990   4.243   2.032   8.385 -1.9290 -1.5109 -1.0482
  123OSM      N12991   1.516   2.668   6.490  0.1800 -0.5100 -0.1768
  123OSM    C1512992   1.519   2.792   6.571  0.1812  0.3814 -0.3664
  123OSM   H15A12993   1.600   2.859   6.546 -0.0244  0.8173  0.1045
  123OSM   H15B12994   1.535   2.769   6.675 -1.5379 -1.2604 -0.4086
  123OSM   H15C12995   1.422   2.841   6.573  0.2157  0.5203  2.8771
  123OSM    C1412996   1.449   2.570   6.577 -0.5105  0.0322  0.0337
  123OSM   H14A12997   1.525   2.536   6.646 -1.5670 -2.9200 -0.1205
  123OSM   H14B12998   1.436   2.473   6.532  2.5586 -0.9816  1.0347
  123OSM   H14C12999   1.353   2.603   6.613 -1.3352  0.1932 -2.1578
  123OSM    C1313000   1.439   2.705   6.366  0.2415 -0.3274 -0.1087
  123OSM   H13A13001   1.436   2.631   6.288 -1.4177 -1.2798  0.7896
  123OSM   H13B13002   1.473   2.798   6.325 -1.0823  0.3488  0.2508
  123OSM   H13C13003   1.337   2.729   6.394 -0.3933  0.1061 -2.5552
  123OSM    C1213004   1.655   2.621   6.448  0.3345  0.0425 -0.1125
  123OSM   H12A13005   1.705   2.698   6.392 -0.2556 -1.6458 -3.1771
  123OSM   H12B13006   1.639   2.545   6.373 -1.4402 -0.5933  0.8583
  123OSM    C1113007   1.747   2.559   6.561  0.0814 -0.2580 -0.1782
  123OSM   H11A13008   1.749   2.651   6.624  0.6053 -0.1427 -0.3613
  123OSM   H11B13009   1.855   2.545   6.540  0.4725  0.7576  1.0106
  123OSM      P13010   1.720   2.307   6.556 -0.0099 -0.0473  0.2222
  123OSM    O1313011   1.592   2.266   6.483 -0.3760  0.2173 -0.4024
  123OSM    O1413012   1.843   2.322   6.470 -0.1833 -0.0207  0.4035
  123OSM    O1113013   1.752   2.209   6.678  0.0145 -0.5356  0.0008
  123OSM    O1213014   1.690   2.442   6.622 -0.0796 -0.0603  0.7562
  123OSM    C1S13015   1.690   2.253   6.805 -0.3979 -0.0289 -0.1314
  123OSM    H1S13016   1.587   2.291   6.795  0.2916  1.8225 -0.5053
  123OSM    H1T13017   1.749   2.324   6.867 -0.4248  0.8102 -1.0590
  123OSM     NF13018   1.637   2.141   7.027 -0.2518 -0.6657  0.2536
  123OSM    HNF13019   1.699   2.164   7.102 -0.5113  0.3691  0.1748
  123OSM    C2S13020   1.695   2.123   6.898  0.1674 -0.2882  0.1433
  123OSM    H2S13021   1.632   2.047   6.847  1.5114 -1.9155  0.7958
  123OSM    C3S13022   1.843   2.069   6.904  0.2352  0.1439  0.1500
  123OSM    H3S13023   1.915   2.145   6.941  0.2281  0.2588 -0.0706
  123OSM     O313024   1.904   2.044   6.776  0.5456  1.1620  0.0953
  123OSM    HO313025   1.853   2.098   6.716 -0.7780  0.3461  0.4553
  123OSM    C4S13026   1.851   1.939   6.985 -0.1717 -0.5743 -0.1585
  123OSM    H4S13027   1.791   1.854   6.948 -3.7939 -0.0535  3.7092
  123OSM    C5S13028   1.916   1.923   7.103  0.0173 -0.0555 -0.2977
  123OSM    H5S13029   1.968   2.010   7.146 -0.6416 -0.6094  1.7319
  123OSM    C6S13030   1.910   1.796   7.193  0.2162 -0.0463  0.0215
  123OSM    H6S13031   2.000   1.733   7.177 -0.4054 -1.4401  1.7245
  123OSM    H6T13032   1.826   1.732   7.161  0.0009  1.2572 -2.2018
  123OSM    C7S13033   1.893   1.831   7.338  0.0180  0.0257  0.0191
  123OSM    H7S13034   1.796   1.884   7.327 -1.7350 -2.5765  1.6352
  123OSM    H7T13035   1.968   1.897   7.386  1.2952 -1.4637  0.1767
  123OSM    C8S13036   1.890   1.702   7.425  0.3978 -0.1728  0.3174
  123OSM    H8S13037   1.982   1.648   7.394  1.1376  0.5659  1.1595
  123OSM    H8T13038   1.811   1.630   7.395  2.1397 -2.8711  1.7847
  123OSM    C9S13039   1.891   1.733   7.568 -0.5640  1.1259 -0.2723
  123OSM    H9S13040   1.796   1.779   7.600 -2.1842 -1.6748 -0.6893
  123OSM    H9T13041   1.972   1.807   7.588 -0.6556  1.4181 -0.9290
  123OSM   C10S13042   1.918   1.603   7.641 -0.2652 -0.5359  0.1418
  123OSM   H10S13043   2.025   1.583   7.620 -0.8106 -1.1146 -2.4576
  123OSM   H10T13044   1.858   1.523   7.591 -0.2061  0.2087 -1.1606
  123OSM   C11S13045   1.882   1.617   7.793  1.0125 -0.2417 -1.0296
  123OSM   H11S13046   1.924   1.712   7.833  0.1437  0.7380 -2.3609
  123OSM   H11T13047   1.934   1.534   7.845  0.3791 -0.0400 -0.0447
  123OSM   C12S13048   1.728   1.624   7.811  0.1061 -0.6935 -0.4875
  123OSM   H12S13049   1.688   1.544   7.744  2.0240 -0.3034 -2.1947
  123OSM   H12T13050   1.697   1.720   7.763 -0.8309 -0.4015  0.6656
  123OSM   C13S13051   1.678   1.631   7.951  0.3657  0.4784  0.0631
  123OSM   H13S13052   1.755   1.655   8.027 -2.6448  2.0898  2.9044
  123OSM   H13T13053   1.646   1.528   7.978 -0.3926  0.0257 -2.3151
  123OSM   C14S13054   1.551   1.720   7.969  0.2450  0.3188 -0.1642
  123OSM   H14S13055   1.466   1.677   7.912 -0.7830 -0.8158  2.1275
  123OSM   H14T13056   1.575   1.822   7.930  0.8163  0.8470  1.4971
  123OSM   C15S13057   1.507   1.737   8.110 -0.5778 -0.0242 -0.0028
  123OSM   H15S13058   1.434   1.820   8.118 -1.5592 -0.8624 -0.0460
  123OSM   H15T13059   1.595   1.766   8.171 -0.9590  2.0109 -0.3370
  123OSM   C16S13060   1.438   1.617   8.177 -0.1055  0.6302  1.1334
  123OSM   H16S13061   1.514   1.538   8.163 -0.3808  0.2817  1.5792
  123OSM   H16T13062   1.337   1.592   8.140 -0.1177  0.8749  0.9977
  123OSM   C17S13063   1.427   1.626   8.328  0.2258 -0.0046  0.0727
  123OSM   H17S13064   1.382   1.534   8.370  0.4953  0.2733  1.0030
  123OSM   H17T13065   1.356   1.709   8.346 -1.3061 -1.0246 -1.0337
  123OSM   C18S13066   1.554   1.645   8.412  0.1281  0.1018  0.4521
  123OSM   H18S13067   1.537   1.660   8.520  3.8527  1.3261  1.0264
  123OSM   H18T13068   1.609   1.733   8.372  0.2447 -0.2693 -0.2178
  123OSM   H18U13069   1.616   1.553   8.409 -0.0087 -0.0298 -3.5443
  123OSM    C1F13070   1.512   2.177   7.046 -0.4824 -0.0298  1.1508
  123OSM     OF13071   1.427   2.169   6.958 -0.1793 -0.8004 -0.4478
  123OSM    C2F13072   1.476   2.231   7.185 -0.4005 -0.1728 -0.4987
  123OSM    H2F13073   1.568   2.257   7.242 -0.6545 -0.5527  0.0948
  123OSM    H2G13074   1.419   2.156   7.245  1.2995 -0.5006  0.7930
  123OSM    C3F13075   1.407   2.371   7.167 -0.0042  0.4685 -0.0632
  123OSM    H3F13076   1.324   2.365   7.093  1.3881  0.7533 -1.7092
  123OSM    H3G13077   1.481   2.443   7.125  1.5297 -2.2671 -2.3913
  123OSM    C4F13078   1.344   2.431   7.296 -0.4423 -0.1637  0.4183
  123OSM    H4F13079   1.285   2.517   7.260 -0.2943  0.1874  1.0034
  123OSM    H4G13080   1.407   2.483   7.371 -0.8487  3.3383 -1.5032
  123OSM    C5F13081   1.229   2.351   7.370 -0.2765  0.7078 -0.2277
  123OSM    H5F13082   1.285   2.257   7.391 -0.0305  0.3628 -2.2048
  123OSM    H5G13083   1.137   2.332   7.311 -0.0308  0.2306 -0.4678
  123OSM    C6F13084   1.195   2.418   7.505  0.1486 -0.3420 -0.2306
  123OSM    H6F13085   1.150   2.516   7.481 -2.5194 -1.4816 -0.2211
  123OSM    H6G13086   1.290   2.447   7.554 -0.0425  0.0143 -0.0690
  123OSM    C7F13087   1.107   2.338   7.603 -0.0680  0.3652  0.2356
  123OSM    H7F13088   1.147   2.236   7.622 -0.3050  0.2953  0.3669
  123OSM    H7G13089   1.007   2.317   7.559  0.0435  0.8460 -0.2498
  123OSM    C8F13090   1.085   2.398   7.744 -1.2679  0.6370 -0.0846
  123OSM    H8F13091   1.185   2.419   7.789 -1.7792 -0.4833  1.6594
  123OSM    H8G13092   1.025   2.326   7.803 -2.5577  0.3548 -1.6764
  123OSM    C9F13093   1.011   2.528   7.739  0.1581 -0.0645  0.4157
  123OSM    H9F13094   0.976   2.565   7.642  3.0301 -1.9220 -1.4544
  123OSM   C10F13095   0.993   2.604   7.845  0.5171 -0.0055  1.1929
  123OSM   H10F13096   0.926   2.691   7.835 -0.5347 -0.7662  1.5037
  123OSM   C11F13097   1.040   2.582   7.985  0.4060  0.2894 -0.0323
  123OSM   H11F13098   1.040   2.682   8.034  0.3336  0.3140 -0.0821
  123OSM   H11G13099   1.143   2.541   7.990  0.2306 -0.0248  1.7869
  123OSM   C12F13100   0.960   2.486   8.075  0.8056  0.5736 -0.8603
  123OSM   H12F13101   0.978   2.381   8.045 -1.6388 -0.1567 -0.0510
  123OSM   H12G13102   0.852   2.510   8.077  0.3809 -1.0006  2.4868
  123OSM   C13F13103   1.006   2.498   8.221  0.1045  0.5220  0.7362
  123OSM   H13F13104   1.000   2.603   8.257 -0.8144  0.6789  0.1627
  123OSM   H13G13105   1.113   2.470   8.224 -0.2705 -2.0903 -3.2032
  123OSM   C14F13106   0.933   2.395   8.313  0.3859  0.3567 -0.1221
  123OSM   H14F13107   1.002   2.405   8.400  0.5264 -1.6880  0.0368
  123OSM   H14G13108   0.936   2.286   8.297  1.5515  0.1984  1.0136
  123OSM   C15F13109   0.801   2.452   8.360 -0.0664 -0.8123 -1.3199
  123OSM   H15F13110   0.733   2.461   8.273 -1.0364 -0.7277 -0.5712
  123OSM   H15G13111   0.812   2.555   8.399 -0.6435 -1.1689 -0.1583
  123OSM   C16F13112   0.724   2.366   8.476 -0.2023  0.0969  0.4926
  123OSM   H16F13113   0.793   2.375   8.562  0.3683 -0.8420  0.1439
  123OSM   H16G13114   0.723   2.257   8.453 -1.8441  0.3753 -0.9342
  123OSM   C17F13115   0.588   2.424   8.511  0.4021 -0.1415 -0.3843
  123OSM   H17F13116   0.592   2.535   8.508  0.6092 -0.0884  1.0505
  123OSM   H17G13117   0.561   2.399   8.616  3.5213  2.2890  1.1765
  123OSM   C18F13118   0.481   2.373   8.418  0.3570 -0.1921  0.3649
  123OSM   H18F13119   0.397   2.442   8.439  2.4038  1.7783  2.7665
  123OSM   H18G13120   0.440   2.271   8.432 -2.0863  0.6649 -0.1335
  123OSM   H18H13121   0.513   2.382   8.312  0.6811 -0.6441  0.4178
  124OSM      N13122   4.572   6.346   6.024 -0.3398  0.6663 -0.2336
  124OSM    C1513123   4.672   6.436   6.089  0.5077  0.2865  0.4612
  124OSM   H15A13124   4.722   6.394   6.175 -0.4136 -0.4610  0.6417
  124OSM   H15B13125   4.623   6.529   6.113 -2.5102 -0.3916 -2.3910
  124OSM   H15C13126   4.751   6.458   6.018 -0.4786  1.1049 -0.4145
  124OSM    C1413127   4.529   6.408   5.895  0.1263 -0.2854  0.7072
  124OSM   H14A13128   4.485   6.330   5.834  0.7591  0.0333 -0.1771
  124OSM   H14B13129   4.611   6.460   5.848 -1.8489  1.4117 -1.0780
  124OSM   H14C13130   4.454   6.486   5.901 -0.9295 -0.9693 -1.9812
  124OSM    C1313131   4.633   6.215   5.997  0.0471  0.2317  0.7436
  124OSM   H13A13132   4.723   6.209   5.938 -0.9174 -3.1574 -0.6140
  124OSM   H13B13133   4.558   6.143   5.967  1.9221 -1.1257 -0.8794
  124OSM   H13C13134   4.674   6.173   6.088 -0.0324 -1.9580 -0.1641
  124OSM    C1213135   4.452   6.334   6.108 -0.1249  0.1016 -0.9476
  124OSM   H12A13136   4.414   6.431   6.137  0.4745 -0.5938  2.6748
  124OSM   H12B13137   4.485   6.293   6.203  2.7916  2.4476 -0.7991
  124OSM    C1113138   4.329   6.247   6.067 -0.6117 -0.1175 -0.1755
  124OSM   H11A13139   4.286   6.299   5.978  0.9254 -0.8981 -1.4151
  124OSM   H11B13140   4.260   6.250   6.154  0.7453 -1.5242  0.9943
  124OSM      P13141   4.366   5.996   6.128 -0.2390 -0.2122 -0.4093
  124OSM    O1313142   4.255   5.903   6.114 -0.2950  0.2923 -0.5243
  124OSM    O1413143   4.496   5.930   6.107  0.2565 -0.7636  0.7146
  124OSM    O1113144   4.357   6.057   6.273 -0.1586 -0.4012  0.2566
  124OSM    O1213145   4.365   6.114   6.026 -0.1007  0.0356 -0.5522
  124OSM    C1S13146   4.469   6.057   6.373  0.4217  0.4078  0.5048
  124OSM    H1S13147   4.533   6.145   6.352  3.0792 -1.4144  0.3873
  124OSM    H1T13148   4.535   5.967   6.366 -0.2918  0.0205 -2.0215
  124OSM     NF13149   4.512   6.135   6.600  0.2850 -0.1957  0.3002
  124OSM    HNF13150   4.567   6.073   6.655  1.4199  1.1812  0.7838
  124OSM    C2S13151   4.413   6.075   6.518 -0.4218  0.0036 -0.1924
  124OSM    H2S13152   4.332   6.151   6.512 -0.0888  0.3414 -0.4208
  124OSM    C3S13153   4.356   5.941   6.568 -0.5156  0.4435  0.0045
  124OSM    H3S13154   4.433   5.861   6.565 -0.2185  0.4613  3.4528
  124OSM     O313155   4.256   5.885   6.484 -0.5237 -0.3905 -0.2621
  124OSM    HO313156   4.279   5.940   6.408  0.6560  1.3672  1.2671
  124OSM    C4S13157   4.303   5.945   6.706  0.5845 -0.0742 -0.2575
  124OSM    H4S13158   4.224   6.021   6.715  0.6932  0.0192 -0.0845
  124OSM    C5S13159   4.346   5.884   6.816  0.1746 -0.2278 -0.4098
  124OSM    H5S13160   4.431   5.818   6.797  2.8297  3.0108 -0.5969
  124OSM    C6S13161   4.286   5.907   6.950  0.6787  0.1445 -0.1016
  124OSM    H6S13162   4.183   5.950   6.946  0.8286  0.5071 -0.1121
  124OSM    H6T13163   4.337   5.986   7.009 -0.7804  0.7287  0.4111
  124OSM    C7S13164   4.274   5.780   7.028  0.4333 -0.0748 -0.7116
  124OSM    H7S13165   4.365   5.716   7.026 -0.0794 -0.8062 -0.9844
  124OSM    H7T13166   4.202   5.710   6.982 -1.7878 -0.6473  3.1791
  124OSM    C8S13167   4.211   5.801   7.170  0.3679 -0.5878  0.8074
  124OSM    H8S13168   4.171   5.702   7.200  0.2901 -1.1661 -1.0823
  124OSM    H8T13169   4.139   5.885   7.166 -0.4289 -1.2307  1.2702
  124OSM    C9S13170   4.320   5.829   7.282 -0.4167  0.1231  0.0956
  124OSM    H9S13171   4.346   5.936   7.271  0.8025 -0.1839 -0.2140
  124OSM    H9T13172   4.408   5.766   7.254 -0.7331  0.3010 -1.3745
  124OSM   C10S13173   4.261   5.820   7.417  0.8529 -0.5291 -0.0957
  124OSM   H10S13174   4.212   5.721   7.420  1.4076 -0.7972  0.3778
  124OSM   H10T13175   4.179   5.895   7.430 -0.3858 -1.4440 -2.0981
  124OSM   C11S13176   4.356   5.831   7.539  0.1479  0.2146 -0.6686
  124OSM   H11S13177   4.404   5.931   7.542  1.3051 -0.3577  0.9152
  124OSM   H11T13178   4.445   5.769   7.514  0.6406 -0.3285  2.0997
  124OSM   C12S13179   4.296   5.799   7.667  0.8190 -0.2437  0.2221
  124OSM   H12S13180   4.268   5.693   7.682 -0.8471  0.1115 -0.1210
  124OSM   H12T13181   4.203   5.861   7.672  0.4326 -0.6103 -1.7134
  124OSM   C13S13182   4.389   5.855   7.776 -0.3425  0.0094 -0.7547
  124OSM   H13S13183   4.408   5.958   7.739  2.0717 -0.3746 -0.7527
  124OSM   H13T13184   4.483   5.796   7.784 -0.6317 -0.2472  1.1157
  124OSM   C14S13185   4.310   5.855   7.918 -0.4579  0.6559  0.3266
  124OSM   H14S13186   4.275   5.751   7.934 -0.7507  0.7893  0.5546
  124OSM   H14T13187   4.222   5.922   7.921  0.7955  2.3839  0.2307
  124OSM   C15S13188   4.404   5.874   8.040  0.3465  0.1849  0.7502
  124OSM   H15S13189   4.482   5.796   8.028  0.3006  0.3864 -1.0575
  124OSM   H15T13190   4.341   5.835   8.123  0.4410 -1.5355  0.0582
  124OSM   C16S13191   4.458   6.009   8.064 -1.2430 -0.0058  0.6216
  124OSM   H16S13192   4.383   6.092   8.065  1.4266  2.5713  1.7563
  124OSM   H16T13193   4.539   6.033   7.992  0.1122  1.1710  2.4415
  124OSM   C17S13194   4.518   6.027   8.206  0.0472 -0.0936 -0.0019
  124OSM   H17S13195   4.603   5.957   8.218  1.2253  1.0212 -1.3022
  124OSM   H17T13196   4.442   6.002   8.282  0.0402 -2.4115 -0.7116
  124OSM   C18S13197   4.567   6.168   8.229 -0.3613  0.2854 -0.0343
  124OSM   H18S13198   4.617   6.178   8.328 -1.9785  1.1793  0.7376
  124OSM   H18T13199   4.474   6.229   8.240 -1.6766 -1.1109 -2.6016
  124OSM   H18U13200   4.647   6.198   8.158  1.1123 -0.2185  1.3571
  124OSM    C1F13201   4.556   6.264   6.589  0.1862 -0.5681  0.3284
  124OSM     OF13202   4.481   6.350   6.540 -0.2538  0.8056 -0.1906
  124OSM    C2F13203   4.699   6.295   6.637  0.1602  0.6131 -0.1605
  124OSM    H2F13204   4.769   6.288   6.551  0.4214  0.3197  0.0778
  124OSM    H2G13205   4.722   6.209   6.702 -2.3804 -0.5002 -0.6181
  124OSM    C3F13206   4.719   6.423   6.715  0.2142 -0.3355 -0.1415
  124OSM    H3F13207   4.653   6.414   6.804 -1.0190 -1.8501 -1.1615
  124OSM    H3G13208   4.674   6.512   6.665  1.5167  1.8352  2.3068
  124OSM    C4F13209   4.863   6.467   6.753  0.1561 -0.1377  0.6376
  124OSM    H4F13210   4.919   6.497   6.661 -1.2481  0.7042  0.0189
  124OSM    H4G13211   4.918   6.385   6.802  0.5778  0.3773  1.0326
  124OSM    C5F13212   4.866   6.581   6.849  0.1067 -0.4033  0.9642
  124OSM    H5F13213   4.800   6.661   6.809  1.2371  0.3888  0.6325
  124OSM    H5G13214   4.967   6.628   6.844 -0.3458  0.7222  1.8940
  124OSM    C6F13215   4.818   6.549   6.991  0.2445 -0.7384  0.6667
  124OSM    H6F13216   4.900   6.495   7.042  0.3968 -1.1663 -0.0151
  124OSM    H6G13217   4.735   6.476   6.982 -0.6681  0.4445 -1.1655
  124OSM    C7F13218   4.761   6.673   7.068  0.7934 -0.3393 -0.1693
  124OSM    H7F13219   4.670   6.707   7.014  0.4622 -0.5308  0.2594
  124OSM    H7G13220   4.828   6.760   7.053  0.7636 -0.0982  0.9953
  124OSM    C8F13221   4.712   6.632   7.211 -0.1667 -0.2793 -0.0522
  124OSM    H8F13222   4.654   6.537   7.203 -1.5804  0.7056 -2.7973
  124OSM    H8G13223   4.647   6.710   7.256  2.2848  1.7103  0.1821
  124OSM    C9F13224   4.831   6.615   7.298 -0.0422  0.0534 -0.0526
  124OSM    H9F13225   4.925   6.610   7.241 -0.8819  1.3215 -1.6377
  124OSM   C10F13226   4.837   6.617   7.437  0.1852  0.0136 -0.0817
  124OSM   H10F13227   4.939   6.607   7.478  0.7049  1.4922 -0.9497
  124OSM   C11F13228   4.717   6.625   7.529 -0.3323  1.0460 -1.0108
  124OSM   H11F13229   4.643   6.551   7.490 -2.2936  2.5033 -0.2046
  124OSM   H11G13230   4.667   6.724   7.530  0.2167  1.3234 -0.5423
  124OSM   C12F13231   4.735   6.585   7.680  0.0933 -0.1911 -0.3392
  124OSM   H12F13232   4.781   6.485   7.698 -0.3148 -0.1630  0.9326
  124OSM   H12G13233   4.631   6.582   7.718  0.5393 -1.2850  0.8464
  124OSM   C13F13234   4.814   6.683   7.775 -0.3372 -0.2950 -0.7404
  124OSM   H13F13235   4.761   6.777   7.800  1.9578  1.0852 -0.7899
  124OSM   H13G13236   4.912   6.700   7.726 -0.2936 -1.2546 -1.0131
  124OSM   C14F13237   4.839   6.605   7.906  0.5894 -0.4212 -0.2206
  124OSM   H14F13238   4.890   6.507   7.890  0.3098 -0.4199 -1.2088
  124OSM   H14G13239   4.734   6.587   7.940  0.1644  1.5446 -0.3693
  124OSM   C15F13240   4.911   6.685   8.010  0.1228 -0.2707 -0.0352
  124OSM   H15F13241   5.017   6.691   7.976 -0.2427 -0.6413 -1.2844
  124OSM   H15G13242   4.914   6.619   8.100 -1.0728 -0.6207 -0.2409
  124OSM   C16F13243   4.872   6.833   8.045  0.8477 -0.5831  0.7541
  124OSM   H16F13244   4.767   6.838   8.082  0.8404 -0.3599  0.7067
  124OSM   H16G13245   4.887   6.884   7.947  0.2315  0.6867  1.2954
  124OSM   C17F13246   4.971   6.899   8.144 -0.2004 -0.5461  0.3477
  124OSM   H17F13247   4.974   7.009   8.131  0.3559 -0.5174  0.6693
  124OSM   H17G13248   5.071   6.860   8.116 -0.6907 -0.3239 -1.8760
  124OSM   C18F13249   4.937   6.854   8.280  0.2335  0.5979  0.1113
  124OSM   H18F13250   5.005   6.904   8.352  2.9308  2.3730 -3.3723
  124OSM   H18G13251   4.957   6.745   8.287 -0.0676  0.5045 -0.4547
  124OSM   H18H13252   4.835   6.874   8.317 -0.3746 -3.5247  1.1607
  125OSM      N13253   6.629   5.266   6.048  0.2424  0.3974  0.2704
  125OSM    C1513254   6.734   5.252   6.152 -0.0838 -0.3637  0.4156
  125OSM   H15A13255   6.689   5.204   6.237  0.2663 -1.3552  0.0553
  125OSM   H15B13256   6.760   5.354   6.175 -0.1366 -0.2770  0.0999
  125OSM   H15C13257   6.818   5.196   6.115  1.4888  2.4278 -0.5056
  125OSM    C1413258   6.513   5.351   6.095  0.1712 -0.4479 -0.2621
  125OSM   H14A13259   6.455   5.376   6.008  2.3227 -1.3399 -2.0647
  125OSM   H14B13260   6.555   5.438   6.145  0.0513 -1.6553  2.0345
  125OSM   H14C13261   6.458   5.295   6.169 -0.4306 -0.5356 -0.7673
  125OSM    C1313262   6.687   5.334   5.924 -0.4719  0.5549  0.2891
  125OSM   H13A13263   6.744   5.267   5.861 -0.2970 -0.4480  1.4603
  125OSM   H13B13264   6.738   5.426   5.948 -0.5892  0.5673  0.4940
  125OSM   H13C13265   6.598   5.365   5.872 -0.1944  1.7082  0.4791
  125OSM    C1213266   6.571   5.131   6.000  0.2167  0.1186 -0.3191
  125OSM   H12A13267   6.662   5.076   5.979 -0.7919 -1.3393 -1.0418
  125OSM   H12B13268   6.509   5.139   5.911 -0.5513 -1.6473  0.0023
  125OSM    C1113269   6.500   5.026   6.089 -0.3032 -0.7382  0.3846
  125OSM   H11A13270   6.477   4.937   6.027  1.8770 -0.8104 -0.3932
  125OSM   H11B13271   6.400   5.051   6.129 -0.0304 -0.0859  0.6726
  125OSM      P13272   6.693   4.882   6.175 -0.3072  0.2911  0.0570
  125OSM    O1313273   6.650   4.760   6.244 -0.3653 -0.1328 -0.2370
  125OSM    O1413274   6.726   4.871   6.033  0.3338  0.4135 -0.1513
  125OSM    O1113275   6.815   4.947   6.246  0.7100 -0.4134 -0.3120
  125OSM    O1213276   6.585   4.995   6.201 -0.2595 -0.1789  0.2723
  125OSM    C1S13277   6.808   5.006   6.381  0.1602 -0.2544  0.0661
  125OSM    H1S13278   6.704   5.015   6.420  0.4315 -1.2164  1.0942
  125OSM    H1T13279   6.843   5.111   6.375  2.9473 -1.0433  1.0693
  125OSM     NF13280   6.863   4.950   6.626  0.3351 -0.3457  0.7832
  125OSM    HNF13281   6.940   4.986   6.678  0.2352  0.6401  0.2621
  125OSM    C2S13282   6.878   4.913   6.486 -0.0465  0.0029 -0.0488
  125OSM    H2S13283   6.841   4.809   6.475 -2.9657  0.6924  1.9833
  125OSM    C3S13284   7.033   4.901   6.461  0.1057 -0.2018  0.3779
  125OSM    H3S13285   7.085   4.994   6.491  0.2298  0.3134 -1.3581
  125OSM     O313286   7.069   4.893   6.320 -0.4527 -0.6564  0.3529
  125OSM    HO313287   6.988   4.921   6.276  0.4980  1.6247 -0.0867
  125OSM    C4S13288   7.098   4.785   6.532  0.2317 -0.2057  0.0334
  125OSM    H4S13289   7.086   4.686   6.487  2.0291 -0.3763 -0.1328
  125OSM    C5S13290   7.184   4.790   6.637 -0.3637  0.2255  0.4617
  125OSM    H5S13291   7.219   4.885   6.680  2.0098  0.7607 -2.3245
  125OSM    C6S13292   7.238   4.662   6.703 -0.4608  0.0446 -0.2212
  125OSM    H6S13293   7.340   4.639   6.666 -1.0470 -3.9566  0.2246
  125OSM    H6T13294   7.184   4.574   6.662  0.9618 -0.8078 -0.3395
  125OSM    C7S13295   7.221   4.668   6.861 -0.1606 -0.0794 -0.1513
  125OSM    H7S13296   7.285   4.755   6.888  1.7451 -1.1707 -0.9000
  125OSM    H7T13297   7.274   4.587   6.915 -1.3063 -0.2853  0.6991
  125OSM    C8S13298   7.080   4.685   6.906 -0.0699  0.0458 -0.3494
  125OSM    H8S13299   7.028   4.587   6.902 -0.7584  0.4155 -0.6361
  125OSM    H8T13300   7.021   4.750   6.837  1.0830  0.5811 -0.8469
  125OSM    C9S13301   7.070   4.739   7.051  0.7784  0.5352  0.4906
  125OSM    H9S13302   6.965   4.765   7.075  0.1126 -1.1355 -0.5064
  125OSM    H9T13303   7.125   4.836   7.054 -0.4914  1.3940 -1.6903
  125OSM   C10S13304   7.105   4.636   7.162 -0.2057 -0.2476 -0.2325
  125OSM   H10S13305   7.212   4.611   7.141  1.0866  2.6320  2.1047
  125OSM   H10T13306   7.028   4.557   7.154 -1.6783  1.2450 -1.4865
  125OSM   C11S13307   7.096   4.696   7.305  0.7023 -0.1815  0.2320
  125OSM   H11S13308   6.987   4.704   7.325  0.3290 -2.7656 -0.4752
  125OSM   H11T13309   7.153   4.791   7.317  0.8669 -0.4346  1.6733
  125OSM   C12S13310   7.133   4.597   7.415 -0.4484 -0.3322 -0.5301
  125OSM   H12S13311   7.237   4.562   7.396 -0.8467 -1.4446 -0.7395
  125OSM   H12T13312   7.075   4.503   7.404 -1.7065 -0.1189  2.8343
  125OSM   C13S13313   7.105   4.653   7.558 -0.4347  0.1724 -0.0180
  125OSM   H13S13314   7.003   4.697   7.567 -0.4616  0.1415 -0.1769
  125OSM   H13T13315   7.175   4.736   7.583 -2.1741  1.7901 -0.2581
  125OSM   C14S13316   7.110   4.536   7.660  0.4768 -0.0437  0.7911
  125OSM   H14S13317   7.199   4.473   7.640 -0.7473 -0.7135 -3.3805
  125OSM   H14T13318   7.020   4.476   7.635  0.9980 -0.0476 -1.2423
  125OSM   C15S13319   7.113   4.590   7.800 -0.5437  0.1598 -0.3432
  125OSM   H15S13320   7.037   4.672   7.803 -0.7950 -0.0527 -0.8840
  125OSM   H15T13321   7.212   4.638   7.818 -1.5392  1.2743  2.8523
  125OSM   C16S13322   7.083   4.491   7.915  0.2736 -0.2498  1.0258
  125OSM   H16S13323   7.160   4.411   7.922 -0.1257 -0.6798  0.5889
  125OSM   H16T13324   6.986   4.443   7.890  1.0823 -0.4870 -1.9448
  125OSM   C17S13325   7.055   4.567   8.049  0.4007  0.6641  0.6631
  125OSM   H17S13326   6.980   4.647   8.030  1.6876  1.6302 -0.5380
  125OSM   H17T13327   7.150   4.611   8.084  0.7814  0.5056 -0.1484
  125OSM   C18S13328   6.994   4.467   8.163  0.2057  0.4423 -0.4434
  125OSM   H18S13329   7.063   4.384   8.190 -0.7088 -0.7495 -1.6499
  125OSM   H18T13330   6.906   4.410   8.126  2.6473 -3.2425 -1.0262
  125OSM   H18U13331   6.965   4.517   8.259 -0.4009 -0.0439 -0.3655
  125OSM    C1F13332   6.748   4.929   6.689 -0.3776  0.0972  0.1415
  125OSM     OF13333   6.662   4.867   6.631  0.2161 -0.3112 -0.1734
  125OSM    C2F13334   6.737   4.975   6.830  0.2030  0.1017  0.0770
  125OSM    H2F13335   6.788   5.072   6.851  0.6565 -0.3611  1.1902
  125OSM    H2G13336   6.780   4.900   6.899 -2.1905  0.0598  1.6613
  125OSM    C3F13337   6.589   4.979   6.860  0.1703 -0.4879  0.1198
  125OSM    H3F13338   6.535   4.882   6.856 -1.1638  0.0549  2.7861
  125OSM    H3G13339   6.538   5.043   6.785 -0.1131  0.1822  0.8636
  125OSM    C4F13340   6.561   5.037   7.001 -0.1728 -0.1824 -0.2969
  125OSM    H4F13341   6.460   5.082   6.989 -0.0235 -0.5205 -6.0937
  125OSM    H4G13342   6.637   5.116   7.017 -0.5743 -0.2109  2.0544
  125OSM    C5F13343   6.585   4.941   7.119 -1.1317  0.3741  0.0480
  125OSM    H5F13344   6.692   4.912   7.113 -1.1251  0.6494 -1.6198
  125OSM    H5G13345   6.524   4.849   7.109 -0.4844 -0.0772  0.1457
  125OSM    C6F13346   6.561   5.001   7.257 -0.6147 -0.9277  0.1599
  125OSM    H6F13347   6.465   5.056   7.253 -0.2437 -0.3557 -1.8290
  125OSM    H6G13348   6.637   5.081   7.275 -0.5795 -0.3528 -2.2068
  125OSM    C7F13349   6.566   4.894   7.372 -0.1237  0.3775 -0.0546
  125OSM    H7F13350   6.659   4.833   7.376  0.5017  1.3568  0.8282
  125OSM    H7G13351   6.479   4.827   7.355  0.8331 -0.8959 -0.0700
  125OSM    C8F13352   6.542   4.952   7.517 -0.2456 -0.6629 -0.1761
  125OSM    H8F13353   6.509   4.871   7.585  2.3134 -0.3242  1.6218
  125OSM    H8G13354   6.452   5.017   7.509  1.6233  2.0586 -0.7077
  125OSM    C9F13355   6.649   5.044   7.568 -0.0585 -0.5657  1.1959
  125OSM    H9F13356   6.638   5.144   7.525  0.8545 -0.5514  0.9781
  125OSM   C10F13357   6.734   5.017   7.665 -0.3614  0.1302 -0.4829
  125OSM   H10F13358   6.805   5.094   7.700 -1.4325 -0.0697  2.3666
  125OSM   C11F13359   6.742   4.885   7.742  0.4885 -0.2299  0.1028
  125OSM   H11F13360   6.827   4.830   7.695  0.4651 -0.2126  0.0408
  125OSM   H11G13361   6.647   4.830   7.728  0.5083 -0.0064 -1.0016
  125OSM   C12F13362   6.756   4.896   7.898  0.4394 -0.3602  0.8803
  125OSM   H12F13363   6.739   4.797   7.946  1.8273 -0.8869  0.3297
  125OSM   H12G13364   6.686   4.974   7.934  1.1861  0.1789  1.2033
  125OSM   C13F13365   6.900   4.935   7.950 -0.3295  0.1295 -0.3165
  125OSM   H13F13366   6.912   5.034   7.901  2.2022 -0.3778 -0.8723
  125OSM   H13G13367   6.969   4.857   7.911 -0.4832 -2.5046  3.9787
  125OSM   C14F13368   6.900   4.955   8.105 -0.2282  0.4711 -0.0297
  125OSM   H14F13369   6.933   4.864   8.160  0.6584  0.7708 -0.0413
  125OSM   H14G13370   6.808   5.003   8.145 -1.5772 -1.0980 -1.1687
  125OSM   C15F13371   7.024   5.037   8.136 -0.7738 -0.0065 -0.1048
  125OSM   H15F13372   7.029   5.133   8.080  0.2234  0.2007  0.3113
  125OSM   H15G13373   7.113   4.987   8.090 -0.7682 -0.4657  0.3884
  125OSM   C16F13374   7.062   5.058   8.283  0.1476 -0.5616  0.1501
  125OSM   H16F13375   7.166   5.097   8.292  1.4674 -3.7789  0.3701
  125OSM   H16G13376   7.068   4.963   8.340  2.7381  0.0670  1.0846
  125OSM   C17F13377   6.964   5.142   8.354 -0.3660  0.5879 -0.0328
  125OSM   H17F13378   6.867   5.092   8.336  0.1666 -0.7483  0.7186
  125OSM   H17G13379   6.968   5.248   8.319  3.5436  0.8447  0.7235
  125OSM   C18F13380   6.992   5.153   8.503  0.2682 -0.4842 -0.1671
  125OSM   H18F13381   7.079   5.221   8.517  1.0122 -1.0081 -1.9067
  125OSM   H18G13382   7.019   5.051   8.539 -1.5114 -1.6953 -2.0266
  125OSM   H18H13383   6.903   5.178   8.565  0.3510  0.8026 -0.5415
  126OSM      N13384   1.712   1.897   6.246 -0.8271  0.2290 -0.1846
  126OSM    C1513385   1.779   1.828   6.133  0.1216  0.5082 -0.1300
  126OSM   H15A13386   1.752   1.874   6.039  1.7728 -0.9391 -1.3676
  126OSM   H15B13387   1.758   1.722   6.124 -1.4160  0.8854 -1.4385
  126OSM   H15C13388   1.887   1.830   6.125  0.0119  0.1660 -2.2384
  126OSM    C1413389   1.752   2.046   6.254  0.8385 -0.5673 -0.2251
  126OSM   H14A13390   1.854   2.044   6.288  0.7374  0.6606  0.2017
  126OSM   H14B13391   1.686   2.099   6.321  1.4421  0.2491 -0.2603
  126OSM   H14C13392   1.739   2.106   6.166 -0.2928  1.8586  1.4815
  126OSM    C1313393   1.558   1.895   6.223 -0.3359 -0.2087 -0.7967
  126OSM   H13A13394   1.517   1.795   6.225 -1.7715  0.3614 -0.3163
  126OSM   H13B13395   1.538   1.950   6.132 -1.9574 -1.4806 -1.2398
  126OSM   H13C13396   1.517   1.947   6.309  1.0126 -2.0028  1.0405
  126OSM    C1213397   1.751   1.824   6.377  0.0214  1.1352 -0.2495
  126OSM   H12A13398   1.858   1.830   6.387 -0.0425 -0.1376  1.6549
  126OSM   H12B13399   1.731   1.719   6.364  0.9564  1.2156 -2.9911
  126OSM    C1113400   1.692   1.888   6.500  0.5868 -0.8956 -0.5112
  126OSM   H11A13401   1.721   1.994   6.516  0.6671 -1.1776  1.5219
  126OSM   H11B13402   1.740   1.842   6.589 -1.2829 -0.2536  0.9005
  126OSM      P13403   1.484   1.733   6.536  0.0054 -0.2904  0.3333
  126OSM    O1313404   1.355   1.714   6.464 -0.4868  0.3111 -0.0612
  126OSM    O1413405   1.585   1.626   6.514 -0.0607 -0.2363  0.1075
  126OSM    O1113406   1.456   1.732   6.685  0.0716 -0.0456 -0.1588
  126OSM    O1213407   1.548   1.874   6.512  0.0670  0.1189 -0.1524
  126OSM    C1S13408   1.382   1.835   6.746 -1.1951  0.0297 -0.4700
  126OSM    H1S13409   1.277   1.835   6.709 -1.7653 -2.7341  0.8470
  126OSM    H1T13410   1.435   1.932   6.741  0.1751 -0.6103  0.7235
  126OSM     NF13411   1.273   1.912   6.959  0.6372 -0.3456 -0.3371
  126OSM    HNF13412   1.324   1.991   6.993 -1.6957  0.4494  1.6470
  126OSM    C2S13413   1.357   1.805   6.901  0.6772 -0.0514 -0.2580
  126OSM    H2S13414   1.299   1.711   6.899  1.0395 -0.3719  1.9457
  126OSM    C3S13415   1.473   1.769   6.980 -0.0788 -0.9760  0.3391
  126OSM    H3S13416   1.537   1.859   6.993 -2.6694  1.1472 -0.5426
  126OSM     O313417   1.557   1.670   6.921 -0.3448 -0.7265  0.2225
  126OSM    HO313418   1.519   1.654   6.835  1.9409 -3.0380 -0.4935
  126OSM    C4S13419   1.429   1.723   7.118  0.1878  0.1794 -0.3878
  126OSM    H4S13420   1.366   1.634   7.115  0.6687 -0.1423 -2.1435
  126OSM    C5S13421   1.487   1.774   7.230  0.4440  0.4847  0.8378
  126OSM    H5S13422   1.571   1.843   7.216  0.2368  0.4329 -0.8608
  126OSM    C6S13423   1.462   1.728   7.368 -0.0992  0.5076  0.3202
  126OSM    H6S13424   1.553   1.692   7.422  2.8427  3.8192 -1.9478
  126OSM    H6T13425   1.387   1.646   7.370 -0.0631  0.3946 -1.3367
  126OSM    C7S13426   1.406   1.850   7.445  0.1220  1.0234 -0.0106
  126OSM    H7S13427   1.316   1.893   7.396 -1.4260 -0.9782  0.9371
  126OSM    H7T13428   1.487   1.926   7.449  0.9712  0.2090 -1.0219
  126OSM    C8S13429   1.375   1.800   7.587 -0.2844  0.5917 -0.3984
  126OSM    H8S13430   1.476   1.785   7.631 -0.6707  1.6264  0.9031
  126OSM    H8T13431   1.321   1.703   7.585  0.7711  0.0017 -1.8772
  126OSM    C9S13432   1.287   1.897   7.665 -0.2982 -0.4824 -0.0447
  126OSM    H9S13433   1.233   1.832   7.738  0.5766  0.8421  1.8633
  126OSM    H9T13434   1.210   1.940   7.598  0.4851 -0.7861 -1.1661
  126OSM   C10S13435   1.367   2.006   7.751 -0.6488 -0.0285 -0.2555
  126OSM   H10S13436   1.382   2.105   7.702 -1.5542  1.0136  1.4395
  126OSM   H10T13437   1.467   1.967   7.776 -0.4357 -1.0994 -2.4826
  126OSM   C11S13438   1.284   2.038   7.875 -0.1766 -0.6927  0.0015
  126OSM   H11S13439   1.266   1.954   7.946  0.2601 -1.2803 -0.5769
  126OSM   H11T13440   1.188   2.077   7.834  0.2337  0.0731 -0.2437
  126OSM   C12S13441   1.347   2.156   7.955 -0.4426  0.0970  0.1299
  126OSM   H12S13442   1.371   2.243   7.890 -0.1862  1.6379  2.1813
  126OSM   H12T13443   1.441   2.131   8.010  0.5594  3.0103 -0.1132
  126OSM   C13S13444   1.247   2.205   8.062  0.3062 -0.4645 -0.2826
  126OSM   H13S13445   1.152   2.211   8.005  0.4774 -3.2114 -1.0318
  126OSM   H13T13446   1.283   2.305   8.091  0.3170 -0.7628  0.7564
  126OSM   C14S13447   1.234   2.119   8.190 -0.5024 -0.2146 -0.0736
  126OSM   H14S13448   1.229   2.010   8.169  1.3655 -0.4716  0.6634
  126OSM   H14T13449   1.139   2.149   8.239  0.0179 -0.0138  0.8360
  126OSM   C15S13450   1.354   2.130   8.291 -0.3520  0.1026 -0.5024
  126OSM   H15S13451   1.384   2.234   8.316  0.7724 -0.0524 -1.1545
  126OSM   H15T13452   1.441   2.088   8.237 -2.3709 -5.3212 -0.1890
  126OSM   C16S13453   1.325   2.051   8.416 -0.0859  0.4223  0.1209
  126OSM   H16S13454   1.324   1.945   8.385  0.6883  0.6123 -0.5681
  126OSM   H16T13455   1.222   2.078   8.450  0.2784 -0.3087  1.9270
  126OSM   C17S13456   1.414   2.062   8.537  0.0568 -0.2463 -0.2379
  126OSM   H17S13457   1.519   2.062   8.502  0.2019  2.5125 -0.0082
  126OSM   H17T13458   1.398   1.974   8.604  1.1204 -1.9120 -2.0917
  126OSM   C18S13459   1.393   2.197   8.611  0.5180 -0.0707  0.0387
  126OSM   H18S13460   1.375   2.273   8.533 -2.0848  0.3621  0.9614
  126OSM   H18T13461   1.483   2.213   8.674 -0.2753 -1.5411  1.6627
  126OSM   H18U13462   1.305   2.198   8.679  0.6991 -0.8819  0.2953
  126OSM    C1F13463   1.143   1.926   6.933 -0.4047 -0.3100 -0.1857
  126OSM     OF13464   1.085   1.839   6.872  0.3869 -0.2780  0.3831
  126OSM    C2F13465   1.078   2.050   6.968  0.5410 -0.9184 -0.3262
  126OSM    H2F13466   1.030   2.082   6.874  0.3082 -3.8006 -1.2807
  126OSM    H2G13467   1.152   2.131   6.985 -1.3502  0.5274  1.4964
  126OSM    C3F13468   0.967   2.056   7.079  0.0425  0.4086  0.1789
  126OSM    H3F13469   0.907   1.966   7.055  0.6717  0.4076 -1.5363
  126OSM    H3G13470   0.903   2.146   7.068 -1.0279 -0.1926  1.3028
  126OSM    C4F13471   1.023   2.040   7.217 -0.2874 -0.1802  0.4682
  126OSM    H4F13472   1.113   2.104   7.232  0.0582 -0.0262 -1.9047
  126OSM    H4G13473   1.052   1.933   7.224 -0.4297 -0.5748 -3.0665
  126OSM    C5F13474   0.905   2.058   7.311 -1.2080 -0.2902 -0.5376
  126OSM    H5F13475   0.833   1.978   7.280 -0.4555 -2.6336  3.0751
  126OSM    H5G13476   0.862   2.160   7.300  0.0231  0.3499  0.3245
  126OSM    C6F13477   0.930   2.019   7.461  0.2891  0.1027  0.1443
  126OSM    H6F13478   1.010   2.087   7.497 -0.6096  0.9140  0.6551
  126OSM    H6G13479   0.976   1.919   7.476 -2.0717 -0.9708  0.6240
  126OSM    C7F13480   0.809   2.047   7.555 -0.4088 -0.0905  1.0129
  126OSM    H7F13481   0.725   1.981   7.524 -1.9397  1.9319  0.6321
  126OSM    H7G13482   0.772   2.152   7.544  1.0929  0.2910 -1.0588
  126OSM    C8F13483   0.851   2.008   7.699  0.0758 -0.1106  0.2898
  126OSM    H8F13484   0.922   2.084   7.737 -0.0786 -0.5300  1.4653
  126OSM    H8G13485   0.911   1.915   7.690 -0.3276 -0.2623 -1.1225
  126OSM    C9F13486   0.732   2.006   7.791  0.0214  0.1718 -0.3292
  126OSM    H9F13487   0.675   1.913   7.776 -0.6723  0.6074 -0.4480
  126OSM   C10F13488   0.689   2.096   7.890  0.5774 -0.1552  0.7406
  126OSM   H10F13489   0.602   2.064   7.949  1.3129 -2.2264  0.7901
  126OSM   C11F13490   0.742   2.230   7.931  0.8325  0.8236 -0.0422
  126OSM   H11F13491   0.845   2.222   7.889 -0.0769 -2.3740 -2.0395
  126OSM   H11G13492   0.727   2.240   8.040 -1.1827 -1.5072 -0.0176
  126OSM   C12F13493   0.673   2.348   7.857  0.1105  0.2880  0.0024
  126OSM   H12F13494   0.679   2.335   7.747  1.0858  0.6179  0.0056
  126OSM   H12G13495   0.729   2.439   7.886 -1.1066  1.0210  0.1435
  126OSM   C13F13496   0.539   2.381   7.899 -0.2184 -0.0967  0.4358
  126OSM   H13F13497   0.541   2.377   8.010 -0.1249  2.8673  0.6101
  126OSM   H13G13498   0.473   2.299   7.861  1.1963 -0.5768 -1.1245
  126OSM   C14F13499   0.494   2.527   7.875 -0.6332  0.2593 -0.6119
  126OSM   H14F13500   0.489   2.551   7.767 -0.4779 -2.6168 -1.3337
  126OSM   H14G13501   0.566   2.597   7.923 -0.9959  0.2591 -0.0477
  126OSM   C15F13502   0.361   2.544   7.950 -0.7932 -0.0086 -0.0676
  126OSM   H15F13503   0.367   2.514   8.057  0.9804 -1.3857 -0.5032
  126OSM   H15G13504   0.281   2.476   7.913 -0.1953 -0.0327 -1.3733
  126OSM   C16F13505   0.297   2.679   7.930 -0.6622 -0.3090  0.0342
  126OSM   H16F13506   0.283   2.701   7.822 -1.3355 -2.4218 -0.3624
  126OSM   H16G13507   0.363   2.761   7.965 -0.3792 -0.5269  0.0168
  126OSM   C17F13508   0.161   2.689   7.994 -0.1497 -0.2891  0.2811
  126OSM   H17F13509   0.093   2.618   7.944 -0.9928  0.6760  0.0356
  126OSM   H17G13510   0.116   2.787   7.970  0.5701 -0.3648 -1.5188
  126OSM   C18F13511   0.166   2.668   8.144 -0.2356  0.5848 -0.6654
  126OSM   H18F13512   0.259   2.700   8.196 -0.4334 -1.0889  0.8275
  126OSM   H18G13513   0.158   2.563   8.181 -1.4344  0.8426 -0.1536
  126OSM   H18H13514   0.080   2.722   8.190 -0.7309  0.1872 -1.1106
  127OSM      N13515   1.309   3.663   6.542 -0.6978 -0.0177 -0.1566
  127OSM    C1513516   1.195   3.688   6.634 -0.8103  0.2179 -0.6394
  127OSM   H15A13517   1.106   3.635   6.604 -1.2342  0.3078  0.4070
  127OSM   H15B13518   1.173   3.793   6.639  0.8632  0.6308 -1.3292
  127OSM   H15C13519   1.202   3.645   6.733 -2.8411  0.2190 -0.4647
  127OSM    C1413520   1.283   3.752   6.417  1.4954 -0.3866  0.2340
  127OSM   H14A13521   1.343   3.724   6.332 -0.0832 -0.3502 -0.9470
  127OSM   H14B13522   1.311   3.855   6.433  0.6415 -0.2440  0.9230
  127OSM   H14C13523   1.183   3.733   6.381  1.6414  0.1507 -0.4868
  127OSM    C1313524   1.437   3.711   6.609 -0.0519 -0.7257  0.3842
  127OSM   H13A13525   1.442   3.819   6.609 -0.4217 -0.6389  3.0176
  127OSM   H13B13526   1.526   3.682   6.555 -0.7092 -0.7484 -0.7079
  127OSM   H13C13527   1.449   3.678   6.711  4.7137 -0.9621 -0.0193
  127OSM    C1213528   1.326   3.516   6.505 -0.4174 -0.0866 -0.1795
  127OSM   H12A13529   1.230   3.487   6.465 -0.5471  0.7858 -0.5216
  127OSM   H12B13530   1.341   3.462   6.597 -2.6466 -0.8418 -0.2014
  127OSM    C1113531   1.440   3.474   6.411 -0.4818 -0.1859  0.6398
  127OSM   H11A13532   1.428   3.525   6.313  0.6541 -1.5745 -0.2700
  127OSM   H11B13533   1.428   3.366   6.391 -0.7851 -0.0800  0.2322
  127OSM      P13534   1.694   3.414   6.449 -0.1096 -0.1104  0.1720
  127OSM    O1313535   1.661   3.295   6.376  0.3517  0.9225  0.4375
  127OSM    O1413536   1.803   3.500   6.389  0.1435  0.3258  0.2091
  127OSM    O1113537   1.738   3.390   6.599  0.0680 -0.2517  0.1004
  127OSM    O1213538   1.571   3.508   6.457 -0.0790 -0.1333  0.4485
  127OSM    C1S13539   1.646   3.394   6.705 -0.1786 -0.4622 -0.3500
  127OSM    H1S13540   1.595   3.296   6.718 -2.4301  0.4643 -1.5686
  127OSM    H1T13541   1.554   3.452   6.682 -1.8047 -0.4509  4.8908
  127OSM     NF13542   1.587   3.425   6.934  0.1625 -0.0064 -0.7234
  127OSM    HNF13543   1.547   3.503   6.980 -0.2131 -0.5623 -0.1025
  127OSM    C2S13544   1.696   3.448   6.837  0.1379  0.3379  0.0149
  127OSM    H2S13545   1.786   3.392   6.870 -1.4287 -2.1058  0.4149
  127OSM    C3S13546   1.743   3.593   6.826 -0.4902 -0.4874  0.3209
  127OSM    H3S13547   1.657   3.657   6.793 -0.5746 -0.4604  0.5925
  127OSM     O313548   1.841   3.622   6.729 -1.1949 -0.2115  0.3400
  127OSM    HO313549   1.836   3.539   6.681  2.2854 -1.4840  1.8304
  127OSM    C4S13550   1.801   3.656   6.953 -0.4647  0.0331 -0.1438
  127OSM    H4S13551   1.888   3.603   6.995 -3.4411 -2.5499  3.3621
  127OSM    C5S13552   1.746   3.754   7.019 -0.3257  0.0683 -0.3750
  127OSM    H5S13553   1.654   3.799   6.978  1.1121  1.2842 -2.4990
  127OSM    C6S13554   1.792   3.826   7.143 -0.0740  0.0895 -0.2125
  127OSM    H6S13555   1.817   3.934   7.137  0.1519  0.0570  0.0930
  127OSM    H6T13556   1.877   3.767   7.184  0.2416 -0.3213 -1.4172
  127OSM    C7S13557   1.686   3.808   7.259 -0.3002  0.2988  0.3403
  127OSM    H7S13558   1.668   3.703   7.289  0.5314  1.0782  3.9747
  127OSM    H7T13559   1.585   3.846   7.233  0.2077  1.4739  0.0373
  127OSM    C8S13560   1.722   3.882   7.391 -0.4618  0.0050  0.0180
  127OSM    H8S13561   1.741   3.991   7.383  0.0984 -0.2112 -2.5579
  127OSM    H8T13562   1.816   3.831   7.418  0.2439  0.2487 -1.8551
  127OSM    C9S13563   1.609   3.865   7.496 -0.4413  0.1312 -0.1275
  127OSM    H9S13564   1.584   3.757   7.499 -0.0539 -0.2038 -4.2405
  127OSM    H9T13565   1.521   3.926   7.466 -0.7204  0.0214  0.4460
  127OSM   C10S13566   1.661   3.905   7.636  0.0877 -0.0629 -0.4462
  127OSM   H10S13567   1.670   4.015   7.630 -3.5568  0.3342 -0.9528
  127OSM   H10T13568   1.765   3.867   7.647  0.4830  0.6338 -1.6569
  127OSM   C11S13569   1.586   3.862   7.766  0.8559 -0.0552  0.7350
  127OSM   H11S13570   1.562   3.753   7.766 -0.1714  0.0924 -1.6986
  127OSM   H11T13571   1.484   3.904   7.758 -0.1179 -2.2182  0.9083
  127OSM   C12S13572   1.657   3.900   7.887 -1.0690 -0.1894  0.1222
  127OSM   H12S13573   1.669   4.011   7.885 -1.3548 -0.1732 -0.8484
  127OSM   H12T13574   1.762   3.866   7.882 -1.4823 -1.7498  1.3251
  127OSM   C13S13575   1.589   3.867   8.018 -1.1221 -0.1640 -0.3574
  127OSM   H13S13576   1.599   3.758   8.034 -1.3166 -0.2385 -0.7469
  127OSM   H13T13577   1.482   3.895   8.009 -0.0340  4.7614 -0.9814
  127OSM   C14S13578   1.658   3.946   8.130  0.4348 -0.0165 -0.8244
  127OSM   H14S13579   1.635   4.055   8.119  1.2157  0.1967 -0.3629
  127OSM   H14T13580   1.768   3.935   8.120  0.7599 -1.6928  3.0018
  127OSM   C15S13581   1.614   3.894   8.265  0.1087 -0.6802  0.1690
  127OSM   H15S13582   1.644   3.789   8.280  0.6900 -0.2846  2.0172
  127OSM   H15T13583   1.506   3.918   8.278  0.4637 -0.2431  2.9700
  127OSM   C16S13584   1.663   3.980   8.383  0.1437 -0.3350 -0.4519
  127OSM   H16S13585   1.638   4.087   8.370 -0.6088  0.0670  3.1519
  127OSM   H16T13586   1.774   3.977   8.380  0.2950  1.3538  1.3518
  127OSM   C17S13587   1.600   3.927   8.507 -0.4977  0.2268 -0.5742
  127OSM   H17S13588   1.610   3.817   8.516 -3.3493 -0.0147  0.7199
  127OSM   H17T13589   1.491   3.943   8.500 -0.7671  0.1944  2.2828
  127OSM   C18S13590   1.645   4.004   8.641 -0.1565  0.2162  0.7369
  127OSM   H18S13591   1.613   4.110   8.636  1.0474  0.5567 -0.2744
  127OSM   H18T13592   1.756   3.993   8.639 -0.1725  0.1447 -0.6655
  127OSM   H18U13593   1.605   3.963   8.736 -1.0428  1.3383  0.8696
  127OSM    C1F13594   1.573   3.297   6.987  0.6377  0.0024 -0.4727
  127OSM     OF13595   1.637   3.200   6.944  0.4544  0.1057  0.7475
  127OSM    C2F13596   1.471   3.278   7.102  0.2432  0.1295 -0.0553
  127OSM    H2F13597   1.415   3.184   7.088 -0.7422  0.1795  2.8921
  127OSM    H2G13598   1.401   3.364   7.110  0.5017  0.5390 -1.6826
  127OSM    C3F13599   1.547   3.255   7.232 -0.0061 -0.0983  0.2935
  127OSM    H3F13600   1.606   3.162   7.242 -0.3095 -0.2315  0.9345
  127OSM    H3G13601   1.472   3.238   7.312  0.9003  0.6474  1.3417
  127OSM    C4F13602   1.627   3.377   7.272 -0.1519  0.3591  0.8218
  127OSM    H4F13603   1.566   3.467   7.299  0.3857  0.8348  0.4822
  127OSM    H4G13604   1.677   3.404   7.177 -0.1929 -4.1635 -0.7202
  127OSM    C5F13605   1.738   3.355   7.374 -0.4170 -0.5846  0.3855
  127OSM    H5F13606   1.785   3.454   7.388  0.6825 -1.3076  2.1525
  127OSM    H5G13607   1.813   3.286   7.329 -1.0197  0.6587 -2.8247
  127OSM    C6F13608   1.686   3.310   7.514  0.0842 -0.6623 -0.0115
  127OSM    H6F13609   1.772   3.321   7.584 -0.4637 -1.6267  0.8472
  127OSM    H6G13610   1.657   3.202   7.512 -0.8551 -0.4201 -1.7771
  127OSM    C7F13611   1.580   3.397   7.578 -0.3762  0.1975  0.1973
  127OSM    H7F13612   1.485   3.401   7.520 -0.3872 -1.3958  0.0431
  127OSM    H7G13613   1.615   3.502   7.572 -0.0621  0.0545 -0.6110
  127OSM    C8F13614   1.560   3.356   7.725  0.1328  0.7521  0.4535
  127OSM    H8F13615   1.485   3.425   7.771 -0.6850  1.2971 -1.5935
  127OSM    H8G13616   1.655   3.367   7.781 -1.6556  0.4720  3.8633
  127OSM    C9F13617   1.495   3.217   7.738 -0.7324 -0.2848 -0.3019
  127OSM    H9F13618   1.498   3.159   7.644 -1.7463  1.0053 -1.1621
  127OSM   C10F13619   1.424   3.173   7.840 -0.8633  0.1917  0.6104
  127OSM   H10F13620   1.375   3.075   7.840 -2.3161  0.8948 -0.3642
  127OSM   C11F13621   1.401   3.250   7.967 -0.2585  0.1399  0.5019
  127OSM   H11F13622   1.293   3.276   7.967 -0.0317  1.2255 -1.3502
  127OSM   H11G13623   1.459   3.345   7.977 -0.2186  0.2485 -0.6857
  127OSM   C12F13624   1.437   3.171   8.098 -1.0374 -0.1772 -0.0039
  127OSM   H12F13625   1.547   3.169   8.113 -0.5156  3.7964 -2.0474
  127OSM   H12G13626   1.389   3.071   8.093 -1.5075  0.0612 -0.2823
  127OSM   C13F13627   1.376   3.240   8.217  0.6790 -0.2002  0.5020
  127OSM   H13F13628   1.272   3.276   8.204 -0.0358 -2.1118  0.6279
  127OSM   H13G13629   1.438   3.330   8.238 -0.3725  0.6961 -0.1274
  127OSM   C14F13630   1.371   3.155   8.352 -0.4373 -0.3430  0.8154
  127OSM   H14F13631   1.477   3.130   8.370 -0.1199  0.9042  0.7894
  127OSM   H14G13632   1.318   3.059   8.333  1.9229 -1.7090  0.8081
  127OSM   C15F13633   1.326   3.225   8.486  0.5663 -0.4710 -0.1948
  127OSM   H15F13634   1.218   3.240   8.467  0.2225 -1.2571  1.0102
  127OSM   H15G13635   1.393   3.312   8.499 -0.9790  0.6734  0.4320
  127OSM   C16F13636   1.344   3.139   8.614  0.3459  0.3091  0.1720
  127OSM   H16F13637   1.453   3.161   8.626  0.2750  2.7688 -2.5458
  127OSM   H16G13638   1.333   3.029   8.604  2.3719  0.0146  0.6115
  127OSM   C17F13639   1.261   3.191   8.736 -0.4739 -0.2699  0.4069
  127OSM   H17F13640   1.295   3.131   8.823  0.7966  0.7093  0.6075
  127OSM   H17G13641   1.157   3.152   8.723  0.5176 -3.1358  0.2748
  127OSM   C18F13642   1.274   3.336   8.779 -0.1431 -0.2785  0.8947
  127OSM   H18F13643   1.260   3.396   8.686  1.3565  2.3516  2.2365
  127OSM   H18G13644   1.375   3.365   8.815 -0.7998  1.3461  1.5636
  127OSM   H18H13645   1.199   3.371   8.853 -0.5260  1.1047 -0.1175
  128OSM      N13646   1.526   1.147   6.559 -0.1548 -0.0440  0.6551
  128OSM    C1513647   1.543   1.102   6.695 -0.6211 -0.0962 -0.8804
  128OSM   H15A13648   1.621   1.152   6.752 -1.2406  1.1266 -1.0660
  128OSM   H15B13649   1.571   0.998   6.685  1.6673  0.0790  2.1678
  128OSM   H15C13650   1.453   1.102   6.754  0.7956  0.0979  1.4149
  128OSM    C1413651   1.527   1.294   6.553 -0.5753 -0.1795 -0.4087
  128OSM   H14A13652   1.626   1.329   6.579 -1.0123  0.1335  0.9531
  128OSM   H14B13653   1.461   1.335   6.628 -2.5236 -1.2644 -1.4566
  128OSM   H14C13654   1.492   1.331   6.458  1.0619 -0.0048 -0.9800
  128OSM    C1313655   1.644   1.103   6.485  0.3140  0.1322  0.3102
  128OSM   H13A13656   1.732   1.160   6.509  0.3057 -1.1905  4.1739
  128OSM   H13B13657   1.623   1.092   6.379 -0.3298  2.8272  0.0805
  128OSM   H13C13658   1.670   1.000   6.507  1.2231  0.2006 -0.3577
  128OSM    C1213659   1.399   1.081   6.508  0.3444 -0.0819  0.0239
  128OSM   H12A13660   1.316   1.099   6.574 -1.0936  1.4335 -2.0566
  128OSM   H12B13661   1.411   0.974   6.521  0.8211  0.0341  0.5693
  128OSM    C1113662   1.353   1.112   6.363 -0.0330 -0.4178  0.6241
  128OSM   H11A13663   1.284   1.030   6.335  0.7855 -0.2407 -2.2500
  128OSM   H11B13664   1.444   1.097   6.300  1.2574  0.4159  2.1946
  128OSM      P13665   1.147   1.274   6.337 -0.0018 -0.3779  0.4450
  128OSM    O1313666   1.126   1.418   6.362 -0.6069 -0.1998 -0.1422
  128OSM    O1413667   1.104   1.215   6.205 -0.2148 -0.1344 -0.4770
  128OSM    O1113668   1.081   1.187   6.445 -0.9773 -0.4551 -0.4752
  128OSM    O1213669   1.304   1.248   6.355 -0.4460 -0.1467 -0.1677
  128OSM    C1S13670   0.964   1.224   6.516 -0.4246  0.4562 -0.1825
  128OSM    H1S13671   0.873   1.190   6.461  0.1290 -1.0946 -0.2026
  128OSM    H1T13672   0.961   1.333   6.537  0.3357  0.1243  1.9089
  128OSM     NF13673   1.023   1.237   6.758  0.1408 -0.1591 -0.9371
  128OSM    HNF13674   1.116   1.225   6.792 -0.3609  2.8295  2.0137
  128OSM    C2S13675   0.960   1.153   6.654 -0.2513 -0.1598 -0.0647
  128OSM    H2S13676   0.852   1.138   6.675 -0.5278 -1.0273 -1.8988
  128OSM    C3S13677   1.023   1.003   6.648 -0.2530 -0.1192  0.6345
  128OSM    H3S13678   1.133   1.011   6.635  0.1638 -4.1044  0.4132
  128OSM     O313679   0.969   0.922   6.538 -0.3643  0.3442  0.0275
  128OSM    HO313680   0.962   0.985   6.466 -1.5010  1.0026  0.6759
  128OSM    C4S13681   1.010   0.939   6.784  0.3616  0.2119 -0.0447
  128OSM    H4S13682   1.098   0.967   6.844  1.3025 -1.2765 -0.6598
  128OSM    C5S13683   0.929   0.851   6.835  0.9021  0.5050  0.0094
  128OSM    H5S13684   0.846   0.810   6.774  1.2681  1.2067 -0.9829
  128OSM    C6S13685   0.925   0.810   6.977 -0.0761  0.2553 -0.0095
  128OSM    H6S13686   0.998   0.729   6.999  0.0664  0.0038 -1.3551
  128OSM    H6T13687   0.824   0.765   6.982 -0.6224  1.3616 -0.7132
  128OSM    C7S13688   0.974   0.910   7.086 -0.9738 -0.4519 -0.4274
  128OSM    H7S13689   0.926   1.008   7.069 -0.6602 -0.1435  0.4160
  128OSM    H7T13690   1.081   0.931   7.065 -0.5625  0.1861  1.9626
  128OSM    C8S13691   0.939   0.860   7.230 -0.3079 -0.5040 -0.3502
  128OSM    H8S13692   0.846   0.799   7.224 -1.9594  1.8206  0.1051
  128OSM    H8T13693   0.917   0.941   7.302 -1.5377 -2.4742  1.6144
  128OSM    C9S13694   1.050   0.772   7.281 -0.3665 -0.5672 -0.8350
  128OSM    H9S13695   1.137   0.837   7.304 -0.3989 -1.3614  1.9520
  128OSM    H9T13696   1.089   0.698   7.208  0.6302 -0.8808 -0.0079
  128OSM   C10S13697   1.003   0.701   7.406 -0.1347  0.2132  0.2071
  128OSM   H10S13698   1.080   0.625   7.429  2.0237  2.5397  1.1155
  128OSM   H10T13699   0.903   0.653   7.397  0.3679 -1.3177  2.0583
  128OSM   C11S13700   1.003   0.794   7.528  0.5122 -0.2389 -0.4418
  128OSM   H11S13701   0.911   0.855   7.518 -0.0259 -1.3541 -3.3041
  128OSM   H11T13702   1.099   0.848   7.516  0.3666  0.1273  0.0136
  128OSM   C12S13703   0.995   0.725   7.663 -0.5318  0.2915 -0.9220
  128OSM   H12S13704   1.067   0.640   7.660  1.6616  1.9342  1.2380
  128OSM   H12T13705   0.890   0.693   7.682 -0.2098  0.3597  1.2684
  128OSM   C13S13706   1.039   0.828   7.780  0.6884  0.3748  1.3091
  128OSM   H13S13707   0.949   0.895   7.775  0.3751 -0.1233 -2.0750
  128OSM   H13T13708   1.128   0.887   7.748  0.9848 -2.0621 -3.0799
  128OSM   C14S13709   1.036   0.752   7.905  0.8050 -0.7026  0.7204
  128OSM   H14S13710   1.125   0.685   7.913  0.8832 -1.1702 -2.6835
  128OSM   H14T13711   0.950   0.682   7.898  0.9463 -0.8775  0.6981
  128OSM   C15S13712   1.015   0.843   8.026  0.3880  0.8279  0.5049
  128OSM   H15S13713   0.912   0.885   8.026 -0.5060 -0.8841  3.9795
  128OSM   H15T13714   1.085   0.928   8.017  0.0358  0.8909 -2.3374
  128OSM   C16S13715   1.033   0.757   8.154  0.3209  0.4537  0.0062
  128OSM   H16S13716   1.136   0.718   8.167  1.1665  2.6679  0.4584
  128OSM   H16T13717   0.972   0.666   8.139  0.0712  0.8022 -1.2203
  128OSM   C17S13718   0.970   0.818   8.268 -0.2130  0.3579 -0.8325
  128OSM   H17S13719   0.863   0.791   8.282  0.1439 -1.2622 -1.0221
  128OSM   H17T13720   0.973   0.929   8.263  2.4669  0.3505 -0.5556
  128OSM   C18S13721   1.029   0.772   8.398  0.3568 -0.3202 -0.4362
  128OSM   H18S13722   1.133   0.741   8.377  0.2311  0.8058 -3.1993
  128OSM   H18T13723   0.969   0.685   8.433  1.6752 -1.3330 -0.6192
  128OSM   H18U13724   1.028   0.854   8.474  0.9139  0.8853 -1.6782
  128OSM    C1F13725   0.966   1.347   6.808  0.8865  0.4652  0.4564
  128OSM     OF13726   0.861   1.392   6.753 -0.3347  0.1455  0.3979
  128OSM    C2F13727   1.021   1.414   6.931 -0.3717 -0.4028 -0.4433
  128OSM    H2F13728   1.127   1.446   6.919 -0.5198  1.0220  1.4499
  128OSM    H2G13729   1.013   1.338   7.012 -0.4293  0.5751  0.4806
  128OSM    C3F13730   0.941   1.540   6.980  0.3653 -0.3600 -0.4978
  128OSM    H3F13731   0.837   1.510   7.005  0.7420 -0.0095  1.6585
  128OSM    H3G13732   0.947   1.615   6.899  2.7946 -0.9328 -0.9506
  128OSM    C4F13733   1.006   1.597   7.114  0.5100  0.1971 -0.5233
  128OSM    H4F13734   0.974   1.700   7.140 -2.5547 -0.7783  0.0425
  128OSM    H4G13735   1.117   1.595   7.105  0.5374 -1.5357 -0.1974
  128OSM    C5F13736   0.970   1.501   7.236 -0.0023 -0.2870 -0.4029
  128OSM    H5F13737   1.015   1.403   7.210 -0.4973 -0.5278 -0.3681
  128OSM    H5G13738   0.861   1.492   7.254  0.3737 -3.2364  1.1281
  128OSM    C6F13739   1.040   1.551   7.365 -0.6249 -0.2719 -0.5154
  128OSM    H6F13740   1.015   1.658   7.381  0.2452 -0.4662  3.0786
  128OSM    H6G13741   1.151   1.546   7.352 -0.3032  1.4420  1.1138
  128OSM    C7F13742   0.986   1.502   7.494  0.3255  0.8210  0.0914
  128OSM    H7F13743   1.021   1.401   7.522  0.9369  1.1443  0.5209
  128OSM    H7G13744   0.875   1.496   7.494  0.3867 -1.9038  1.7523
  128OSM    C8F13745   1.020   1.595   7.613  1.1828 -0.1314 -0.5047
  128OSM    H8F13746   0.973   1.693   7.589  1.8019 -0.1505 -1.9200
  128OSM    H8G13747   1.125   1.617   7.642  0.9672  1.6734 -0.9614
  128OSM    C9F13748   0.948   1.533   7.733  0.7455  0.1731 -0.3219
  128OSM    H9F13749   0.859   1.472   7.715  0.5671 -0.3179  1.9336
  128OSM   C10F13750   0.991   1.561   7.859 -0.1359  0.0291  0.0271
  128OSM   H10F13751   0.947   1.499   7.938 -1.9558  1.3028  0.0662
  128OSM   C11F13752   1.097   1.662   7.893  0.4078 -0.1778 -0.0098
  128OSM   H11F13753   1.078   1.751   7.830 -0.8362 -1.1305 -1.0322
  128OSM   H11G13754   1.202   1.631   7.871  1.0290  3.0595 -2.1717
  128OSM   C12F13755   1.080   1.709   8.041  0.4971 -0.8463  0.6210
  128OSM   H12F13756   1.179   1.749   8.072 -0.5625  2.0256  0.5458
  128OSM   H12G13757   1.052   1.624   8.107 -1.1545 -2.5390 -2.0790
  128OSM   C13F13758   0.980   1.822   8.062 -0.0135  0.2308  0.1987
  128OSM   H13F13759   0.892   1.797   7.999 -2.2325  2.8430  2.0043
  128OSM   H13G13760   1.024   1.911   8.012  1.8659 -0.1757  1.0537
  128OSM   C14F13761   0.937   1.867   8.208 -1.1058 -0.3012  0.0310
  128OSM   H14F13762   0.865   1.951   8.204  0.8317  1.6086  1.9760
  128OSM   H14G13763   1.028   1.907   8.258 -1.2405 -1.1527  0.9972
  128OSM   C15F13764   0.873   1.759   8.299 -0.1857 -0.0214  0.1361
  128OSM   H15F13765   0.943   1.673   8.304  2.0277  1.7383  1.6502
  128OSM   H15G13766   0.778   1.721   8.257 -0.1764 -1.6970  1.5168
  128OSM   C16F13767   0.855   1.802   8.449 -0.0842  0.7180  0.3030
  128OSM   H16F13768   0.766   1.869   8.456  0.3740  1.2818  0.7628
  128OSM   H16G13769   0.950   1.844   8.488  1.5144 -2.7518  0.4659
  128OSM   C17F13770   0.826   1.684   8.541 -0.0163  0.1338  0.0536
  128OSM   H17F13771   0.914   1.618   8.550  1.6624  2.0830 -1.2845
  128OSM   H17G13772   0.745   1.626   8.491 -0.0453 -0.3049  0.5909
  128OSM   C18F13773   0.771   1.717   8.672  0.1567 -0.1494  0.2467
  128OSM   H18F13774   0.689   1.791   8.657  0.1932 -0.2105 -0.2740
  128OSM   H18G13775   0.841   1.767   8.742 -1.0660  0.8731  0.7941
  128OSM   H18H13776   0.719   1.630   8.718 -0.6831 -0.3890 -1.0865
  129OSM      N13777   6.545   1.526   6.166 -0.1860 -0.2478 -0.6865
  129OSM    C1513778   6.636   1.535   6.294 -0.1265  0.2110  0.8373
  129OSM   H15A13779   6.611   1.454   6.361  0.7437 -0.3218  0.5240
  129OSM   H15B13780   6.633   1.633   6.339 -2.8702  0.0474  1.1979
  129OSM   H15C13781   6.740   1.526   6.266 -0.1043  0.2442  0.9094
  129OSM    C1413782   6.562   1.388   6.117  0.1879  0.0649  0.2002
  129OSM   H14A13783   6.665   1.361   6.097  0.2543  0.9526 -0.7388
  129OSM   H14B13784   6.516   1.379   6.019  1.9262 -1.4506 -0.5458
  129OSM   H14C13785   6.527   1.315   6.188 -0.2047 -0.1172 -0.1762
  129OSM    C1313786   6.400   1.553   6.195 -0.2763  0.0220  0.6143
  129OSM   H13A13787   6.369   1.501   6.285  1.9994  1.7655  2.5388
  129OSM   H13B13788   6.329   1.528   6.118  1.8878 -2.5025 -0.7626
  129OSM   H13C13789   6.387   1.656   6.223  0.2192 -0.7106  4.0048
  129OSM    C1213790   6.601   1.620   6.068 -0.0628 -0.0779  0.0619
  129OSM   H12A13791   6.552   1.594   5.976 -0.0792  0.6362 -0.1312
  129OSM   H12B13792   6.705   1.592   6.064  0.7315  2.7724 -1.3908
  129OSM    C1113793   6.602   1.773   6.097  0.0375 -1.0843 -0.4062
  129OSM   H11A13794   6.493   1.795   6.108  0.4473  0.2829  1.3159
  129OSM   H11B13795   6.641   1.835   6.013 -1.2673  0.3758  0.0085
  129OSM      P13796   6.675   1.954   6.279 -0.3939 -0.0937  0.0696
  129OSM    O1313797   6.788   1.960   6.374 -0.3927  0.2578 -0.4856
  129OSM    O1413798   6.676   2.057   6.168 -0.1343  0.1016 -0.4349
  129OSM    O1113799   6.543   1.980   6.365 -0.5226  0.3014 -0.2541
  129OSM    O1213800   6.669   1.809   6.216 -0.4327  0.0981 -0.6024
  129OSM    C1S13801   6.509   1.880   6.462 -0.3065  0.0138 -0.0618
  129OSM    H1S13802   6.597   1.867   6.529  0.1214  0.2011 -0.5870
  129OSM    H1T13803   6.477   1.780   6.424  0.2445 -0.4803  0.7252
  129OSM     NF13804   6.387   1.830   6.662 -0.7163 -0.1549  0.1536
  129OSM    HNF13805   6.329   1.750   6.668  1.0128 -1.6408 -1.6574
  129OSM    C2S13806   6.389   1.915   6.550  0.2012 -0.6405  0.2320
  129OSM    H2S13807   6.397   2.020   6.584 -1.4426 -0.4099  0.0115
  129OSM    C3S13808   6.255   1.910   6.471  0.0384  0.2175  0.6644
  129OSM    H3S13809   6.242   1.803   6.442 -0.3420  0.0118  1.5721
  129OSM     O313810   6.253   1.982   6.349  0.4653  0.8553  0.0224
  129OSM    HO313811   6.342   1.999   6.318  0.4504 -0.1143 -0.5937
  129OSM    C4S13812   6.143   1.934   6.559  0.2639 -0.7756 -0.1700
  129OSM    H4S13813   6.169   2.011   6.633 -0.6358 -0.8335  0.2151
  129OSM    C5S13814   6.023   1.877   6.575  0.8064  0.0062 -0.2804
  129OSM    H5S13815   5.998   1.782   6.525 -1.5746  0.3779  0.0830
  129OSM    C6S13816   5.925   1.913   6.685 -0.2164 -0.8482  0.3426
  129OSM    H6S13817   5.867   1.827   6.726 -1.2410  0.4613  1.7329
  129OSM    H6T13818   5.845   1.973   6.637  1.1691 -0.4911 -1.6524
  129OSM    C7S13819   5.972   1.983   6.818  0.0945  0.3250  0.4474
  129OSM    H7S13820   5.878   2.002   6.874  0.8222  1.6655  1.2777
  129OSM    H7T13821   6.019   2.078   6.785  2.8653  0.6202  4.5360
  129OSM    C8S13822   6.083   1.917   6.904 -0.0999  0.7238  0.2009
  129OSM    H8S13823   6.180   1.937   6.854  0.4376 -0.1516  0.8710
  129OSM    H8T13824   6.072   1.807   6.904 -0.0977  0.5624 -3.7554
  129OSM    C9S13825   6.096   1.969   7.040  0.2390 -0.2424 -1.2790
  129OSM    H9S13826   5.996   1.983   7.086  0.5762  1.8608 -1.1008
  129OSM    H9T13827   6.143   2.069   7.039  2.0949 -1.0712 -2.5420
  129OSM   C10S13828   6.187   1.886   7.131 -0.0813  0.2626 -0.6334
  129OSM   H10S13829   6.293   1.887   7.098  0.8520  2.4663  2.0741
  129OSM   H10T13830   6.146   1.782   7.132  3.0635 -1.1512  2.2609
  129OSM   C11S13831   6.164   1.941   7.275  0.4675 -0.0655  0.0404
  129OSM   H11S13832   6.056   1.960   7.293  0.9944  1.3292  2.1091
  129OSM   H11T13833   6.225   2.033   7.277  1.3677 -0.6535  0.0247
  129OSM   C12S13834   6.219   1.843   7.376  0.3170 -0.4630 -0.6301
  129OSM   H12S13835   6.319   1.874   7.414  0.1540  0.1738 -0.7044
  129OSM   H12T13836   6.230   1.746   7.324  0.1051 -0.9292  0.1724
  129OSM   C13S13837   6.134   1.836   7.500  0.4207  0.0817  0.2666
  129OSM   H13S13838   6.029   1.817   7.470  0.7700  1.6214 -2.1881
  129OSM   H13T13839   6.117   1.932   7.553  2.9598  1.2448 -0.8726
  129OSM   C14S13840   6.181   1.729   7.595 -0.2571  0.1055 -0.1065
  129OSM   H14S13841   6.291   1.724   7.601 -0.3061 -0.3601  0.5815
  129OSM   H14T13842   6.149   1.630   7.555  3.8087 -1.4645  0.0999
  129OSM   C15S13843   6.110   1.736   7.728 -0.0573 -0.5800 -0.2818
  129OSM   H15S13844   6.081   1.631   7.748  1.4372 -1.7382 -3.4863
  129OSM   H15T13845   6.016   1.796   7.728  0.6245  0.5394  1.1398
  129OSM   C16S13846   6.206   1.774   7.844  0.2990  1.0042  0.3890
  129OSM   H16S13847   6.143   1.789   7.934 -1.4015 -0.0086 -0.5854
  129OSM   H16T13848   6.264   1.867   7.824  0.7816  0.5321 -0.4723
  129OSM   C17S13849   6.309   1.666   7.884 -0.3917  0.4899 -0.2271
  129OSM   H17S13850   6.382   1.635   7.807  1.6991  1.9775  1.0642
  129OSM   H17T13851   6.245   1.579   7.910 -1.0142  0.7916 -0.7231
  129OSM   C18S13852   6.394   1.690   8.012 -0.1080 -0.3767  0.3818
  129OSM   H18S13853   6.504   1.700   7.997  0.3779 -2.7238  1.9381
  129OSM   H18T13854   6.368   1.605   8.078 -0.6491 -3.0518 -2.9853
  129OSM   H18U13855   6.361   1.787   8.056  0.1328  0.1504 -0.5680
  129OSM    C1F13856   6.475   1.848   6.758  0.4808 -0.8583  0.3138
  129OSM     OF13857   6.542   1.949   6.761 -0.8093  0.1671 -0.2037
  129OSM    C2F13858   6.471   1.751   6.868 -0.1764 -0.2097  0.4741
  129OSM    H2F13859   6.486   1.648   6.829  1.1551 -1.2226  3.2976
  129OSM    H2G13860   6.372   1.756   6.918  0.3740  2.2190  1.4682
  129OSM    C3F13861   6.588   1.774   6.966  0.3142 -0.2433  0.3952
  129OSM    H3F13862   6.563   1.870   7.017  0.3600  0.5265 -0.9720
  129OSM    H3G13863   6.687   1.787   6.919  0.1314 -0.9292 -0.1919
  129OSM    C4F13864   6.620   1.658   7.061 -0.1668  0.3107 -0.8123
  129OSM    H4F13865   6.702   1.692   7.128  0.7765 -0.9402 -1.2803
  129OSM    H4G13866   6.649   1.568   7.002 -0.7672 -0.0581 -0.5635
  129OSM    C5F13867   6.506   1.615   7.152 -0.0379 -0.0212 -0.3083
  129OSM    H5F13868   6.449   1.528   7.113  0.7451 -0.5916 -0.2085
  129OSM    H5G13869   6.441   1.704   7.170  2.0360  1.9091 -1.8404
  129OSM    C6F13870   6.568   1.585   7.287 -0.6843  0.4128 -0.5819
  129OSM    H6F13871   6.619   1.669   7.340 -1.2640 -0.4651  1.4937
  129OSM    H6G13872   6.650   1.509   7.290 -1.1473 -0.0730  0.5962
  129OSM    C7F13873   6.454   1.527   7.375  0.4966  0.7116  0.1652
  129OSM    H7F13874   6.391   1.452   7.323 -1.4796  0.0853  3.1525
  129OSM    H7G13875   6.371   1.595   7.406  0.5458  0.0024  1.9916
  129OSM    C8F13876   6.506   1.463   7.505 -0.5180  0.4159 -0.3809
  129OSM    H8F13877   6.585   1.517   7.560  0.0145 -0.3835 -0.3425
  129OSM    H8G13878   6.557   1.366   7.487 -0.9869  0.3420 -1.3838
  129OSM    C9F13879   6.393   1.438   7.605  0.3799 -0.1924 -0.3508
  129OSM    H9F13880   6.298   1.480   7.570  0.5186  1.4613  1.0902
  129OSM   C10F13881   6.390   1.366   7.715 -0.1019 -0.0179 -0.0885
  129OSM   H10F13882   6.294   1.357   7.767  0.0296  0.2197  0.2019
  129OSM   C11F13883   6.500   1.277   7.772  1.3358  0.6710 -0.5933
  129OSM   H11F13884   6.591   1.290   7.710  2.4802 -0.5466  0.7751
  129OSM   H11G13885   6.464   1.172   7.761 -1.6488  1.6375 -1.0431
  129OSM   C12F13886   6.532   1.316   7.918 -0.3424  0.3397  0.2331
  129OSM   H12F13887   6.553   1.425   7.921 -1.5385  0.5747  0.4211
  129OSM   H12G13888   6.620   1.261   7.959 -0.6125  0.0810  0.4702
  129OSM   C13F13889   6.408   1.287   8.008  0.0306  0.3525  0.4267
  129OSM   H13F13890   6.364   1.190   7.976  0.7274  0.2455 -0.2331
  129OSM   H13G13891   6.322   1.357   8.001 -1.0196 -0.8370  0.9462
  129OSM   C14F13892   6.448   1.273   8.156 -0.1282 -0.4826  0.0445
  129OSM   H14F13893   6.463   1.378   8.187 -2.2844 -0.5307  1.4713
  129OSM   H14G13894   6.536   1.205   8.165  0.1418 -0.3476 -1.2510
  129OSM   C15F13895   6.344   1.223   8.260 -0.2747  0.2694  0.3010
  129OSM   H15F13896   6.390   1.203   8.359  0.1060 -2.3711 -0.3285
  129OSM   H15G13897   6.305   1.135   8.205 -1.3130  1.1673 -0.4537
  129OSM   C16F13898   6.228   1.322   8.294 -0.4897  0.2520  0.2973
  129OSM   H16F13899   6.178   1.368   8.206 -1.3504 -1.3425 -0.0680
  129OSM   H16G13900   6.267   1.408   8.353  2.0586  0.1222 -1.0423
  129OSM   C17F13901   6.119   1.259   8.367 -0.0108  0.7602 -0.2522
  129OSM   H17F13902   6.088   1.182   8.293  3.3302 -0.9986 -0.0239
  129OSM   H17G13903   6.034   1.326   8.389 -1.1950 -0.8206  0.1810
  129OSM   C18F13904   6.153   1.186   8.496  0.0616  0.5418 -0.1006
  129OSM   H18F13905   6.208   1.252   8.566 -2.5296  2.0967  0.5966
  129OSM   H18G13906   6.201   1.089   8.471  2.3169  1.7937 -0.8858
  129OSM   H18H13907   6.070   1.155   8.564  0.6950 -0.3499  0.2965
  130OSM      N13908   2.931   5.270   6.196 -0.8398 -0.1965 -0.4577
  130OSM    C1513909   2.835   5.207   6.105  0.1232  0.6555 -0.0513
  130OSM   H15A13910   2.874   5.108   6.087  0.8094  0.7237  1.0000
  130OSM   H15B13911   2.813   5.264   6.016 -0.6227  1.7668  0.8269
  130OSM   H15C13912   2.738   5.196   6.153  0.4056 -0.5546  0.2829
  130OSM    C1413913   2.962   5.172   6.302 -0.0947  0.0847 -0.3367
  130OSM   H14A13914   2.980   5.071   6.266  0.4593  0.6546 -1.7289
  130OSM   H14B13915   2.894   5.167   6.385  1.1870 -1.8513  0.6773
  130OSM   H14C13916   3.057   5.201   6.345 -0.1399  0.8988 -0.7683
  130OSM    C1313917   3.062   5.299   6.120  0.2162  0.1992  0.2003
  130OSM   H13A13918   3.100   5.208   6.076  1.5575 -0.3206  2.2952
  130OSM   H13B13919   3.134   5.323   6.197 -2.2067 -0.5878  2.8889
  130OSM   H13C13920   3.051   5.380   6.049  1.7593  0.9316  0.7530
  130OSM    C1213921   2.879   5.400   6.249 -0.0690 -0.2394 -0.3657
  130OSM   H12A13922   2.856   5.471   6.172  1.3071  0.0027 -0.5746
  130OSM   H12B13923   2.959   5.449   6.303 -1.1184  2.4641 -1.1454
  130OSM    C1113924   2.751   5.397   6.342  0.6819 -0.2110 -0.0185
  130OSM   H11A13925   2.728   5.502   6.371 -2.1972 -0.8402  0.2549
  130OSM   H11B13926   2.772   5.350   6.440  0.6466 -1.4180 -0.5794
  130OSM      P13927   2.563   5.410   6.168 -0.2764  0.0080  0.1729
  130OSM    O1313928   2.644   5.519   6.118  0.4952 -0.2253 -0.3238
  130OSM    O1413929   2.511   5.318   6.065  0.2729 -0.2722 -0.2639
  130OSM    O1113930   2.435   5.478   6.241 -0.3427 -1.0070 -0.4394
  130OSM    O1213931   2.645   5.331   6.275  0.0503 -0.2058  0.1108
  130OSM    C1S13932   2.388   5.439   6.369 -0.4884 -0.4814 -0.1633
  130OSM    H1S13933   2.442   5.346   6.398  1.1098  0.3099 -0.4869
  130OSM    H1T13934   2.282   5.410   6.358 -0.1512 -1.0429 -2.4441
  130OSM     NF13935   2.354   5.489   6.605  0.6704 -0.6135 -0.7433
  130OSM    HNF13936   2.277   5.538   6.644  0.2366 -1.6899 -0.2116
  130OSM    C2S13937   2.417   5.539   6.483  0.4963 -0.1376  0.3181
  130OSM    H2S13938   2.528   5.541   6.492  0.5103  0.3215  0.0970
  130OSM    C3S13939   2.366   5.675   6.446 -0.5724  0.4665 -0.0902
  130OSM    H3S13940   2.256   5.673   6.427 -0.4837  1.0907 -0.7302
  130OSM     O313941   2.399   5.724   6.318 -0.2532 -0.5816  0.8788
  130OSM    HO313942   2.404   5.645   6.263  1.1370 -1.8674  2.7612
  130OSM    C4S13943   2.410   5.773   6.553 -0.2155  0.4855  0.6538
  130OSM    H4S13944   2.519   5.780   6.547 -0.1401  1.4206  2.3515
  130OSM    C5S13945   2.332   5.843   6.634  0.2149  0.5176  0.0347
  130OSM    H5S13946   2.224   5.824   6.634 -0.0044  1.6029  1.1341
  130OSM    C6S13947   2.379   5.941   6.744 -0.7008 -0.9833 -0.2976
  130OSM    H6S13948   2.367   6.043   6.703  2.2182 -1.5035 -2.8359
  130OSM    H6T13949   2.484   5.910   6.763 -0.3236 -0.2294 -1.0743
  130OSM    C7S13950   2.294   5.925   6.871  0.7843  0.1801 -0.2666
  130OSM    H7S13951   2.291   5.821   6.910  0.1066  0.5356  0.6630
  130OSM    H7T13952   2.187   5.941   6.846  0.9087  0.0604 -0.8825
  130OSM    C8S13953   2.328   6.025   6.988  0.4273 -0.9109 -0.0145
  130OSM    H8S13954   2.253   6.011   7.070 -1.1781 -0.6706 -1.3740
  130OSM    H8T13955   2.307   6.126   6.946 -1.1847  0.4667  3.6250
  130OSM    C9S13956   2.469   6.025   7.039 -0.3405 -1.3395  0.0814
  130OSM    H9S13957   2.530   6.085   6.968 -0.8053 -1.7468 -0.6772
  130OSM    H9T13958   2.511   5.924   7.019  1.2702 -0.4782 -1.0806
  130OSM   C10S13959   2.506   6.065   7.192 -0.4564  0.2341 -0.0168
  130OSM   H10S13960   2.426   6.138   7.218 -1.8651 -0.7892 -1.3140
  130OSM   H10T13961   2.610   6.104   7.200 -0.2156 -0.0105 -1.5616
  130OSM   C11S13962   2.493   5.943   7.285 -0.4134  0.6436 -0.1981
  130OSM   H11S13963   2.595   5.899   7.276 -1.4080 -1.6881 -0.8684
  130OSM   H11T13964   2.428   5.863   7.243 -0.9061  0.9045  0.0629
  130OSM   C12S13965   2.455   5.977   7.425 -0.5976  0.6813 -0.1371
  130OSM   H12S13966   2.353   6.021   7.427 -0.6649  0.5756 -1.0074
  130OSM   H12T13967   2.521   6.060   7.456 -1.1770  0.5742  1.5372
  130OSM   C13S13968   2.462   5.870   7.531 -0.2206  1.0454 -0.4422
  130OSM   H13S13969   2.566   5.833   7.526 -0.6750 -0.6456  1.4434
  130OSM   H13T13970   2.396   5.784   7.509 -0.1778  0.0564  2.8475
  130OSM   C14S13971   2.419   5.939   7.666  0.1341  0.1218 -0.2315
  130OSM   H14S13972   2.320   5.987   7.656  0.1636  0.1870 -0.2103
  130OSM   H14T13973   2.499   6.015   7.683 -0.3280  0.1272  2.2526
  130OSM   C15S13974   2.419   5.843   7.779 -0.5195 -0.2962 -0.6822
  130OSM   H15S13975   2.521   5.799   7.785 -0.4055  0.1522  1.2880
  130OSM   H15T13976   2.337   5.768   7.772  0.4733 -1.6122  1.0729
  130OSM   C16S13977   2.380   5.896   7.918  0.0704 -0.2415  0.3466
  130OSM   H16S13978   2.456   5.965   7.963 -0.6985  0.1575  1.0623
  130OSM   H16T13979   2.371   5.810   7.988 -1.7435 -0.5740 -0.2406
  130OSM   C17S13980   2.243   5.964   7.921  0.7314 -0.0673  0.4117
  130OSM   H17S13981   2.168   5.894   7.878  0.6471  0.0567  0.3576
  130OSM   H17T13982   2.241   6.056   7.859  1.8132 -0.1402  0.2487
  130OSM   C18S13983   2.211   6.020   8.060 -0.3305 -0.6835 -0.2900
  130OSM   H18S13984   2.175   5.937   8.126 -1.2111 -0.0992 -0.0201
  130OSM   H18T13985   2.125   6.090   8.060 -1.1874 -1.6936 -0.5064
  130OSM   H18U13986   2.294   6.075   8.108  0.5421 -0.9185 -1.4731
  130OSM    C1F13987   2.392   5.382   6.675  0.6816 -0.0999  0.8703
  130OSM     OF13988   2.491   5.313   6.646  0.4611  0.1282  0.1501
  130OSM    C2F13989   2.308   5.344   6.799  0.1153  0.6313 -0.0141
  130OSM    H2F13990   2.212   5.394   6.776  1.8987  4.0156 -0.8357
  130OSM    H2G13991   2.360   5.403   6.878  0.6168 -0.4558  0.4955
  130OSM    C3F13992   2.313   5.191   6.829  0.1373 -0.0601  0.8395
  130OSM    H3F13993   2.419   5.163   6.843  0.7336  0.8852 -1.3798
  130OSM    H3G13994   2.267   5.154   6.735  0.3718  2.0843 -0.1867
  130OSM    C4F13995   2.228   5.138   6.952  0.3638 -0.2961 -0.4365
  130OSM    H4F13996   2.257   5.032   6.973  0.7563 -0.5792 -2.2494
  130OSM    H4G13997   2.121   5.137   6.923 -0.2363  0.8205  1.5721
  130OSM    C5F13998   2.244   5.225   7.082 -0.0269 -0.4937 -0.3941
  130OSM    H5F13999   2.207   5.328   7.061  1.2353  0.4493  1.7391
  130OSM    H5G14000   2.354   5.227   7.099 -0.1264  2.6505  0.5434
  130OSM    C6F14001   2.161   5.187   7.209  0.7357  0.7137 -0.1020
  130OSM    H6F14002   2.168   5.076   7.212 -2.8093  0.3964  0.8643
  130OSM    H6G14003   2.057   5.221   7.190 -0.1571 -0.9069  1.5628
  130OSM    C7F14004   2.204   5.245   7.343  0.5937  0.4533 -0.0212
  130OSM    H7F14005   2.181   5.353   7.339  2.1234  0.8544  1.0350
  130OSM    H7G14006   2.313   5.233   7.358  0.5426 -0.2728 -0.1993
  130OSM    C8F14007   2.133   5.167   7.467  0.2014 -0.1428  0.0917
  130OSM    H8F14008   2.188   5.206   7.556 -1.3143 -0.3475  1.1513
  130OSM    H8G14009   2.158   5.059   7.457 -1.4592 -0.5796  0.3982
  130OSM    C9F14010   1.983   5.210   7.487  0.1672  0.8516 -0.9621
  130OSM    H9F14011   1.961   5.317   7.472 -0.0504  1.1649  1.2069
  130OSM   C10F14012   1.887   5.134   7.551  0.4998  0.2194  0.1055
  130OSM   H10F14013   1.787   5.179   7.562 -0.2260 -1.1370 -0.6697
  130OSM   C11F14014   1.885   4.989   7.593 -0.4406  0.1862 -0.5335
  130OSM   H11F14015   1.977   4.936   7.558 -1.1634 -0.5312 -1.3986
  130OSM   H11G14016   1.794   4.944   7.547 -1.9673  0.8591  1.6895
  130OSM   C12F14017   1.865   4.980   7.736 -0.2286  0.4785 -0.1454
  130OSM   H12F14018   1.818   4.882   7.761 -1.7883  1.8454  2.8447
  130OSM   H12G14019   1.787   5.049   7.774 -0.8573 -1.7642  3.1095
  130OSM   C13F14020   1.983   4.984   7.824  0.3008 -0.4375  0.6093
  130OSM   H13F14021   2.040   5.078   7.811  0.2399 -0.1702  2.0815
  130OSM   H13G14022   2.055   4.902   7.802  0.4648  0.2034 -1.4215
  130OSM   C14F14023   1.940   4.964   7.971  0.5315  0.4790  0.3240
  130OSM   H14F14024   1.912   4.858   7.985  0.6403  0.5316  0.9339
  130OSM   H14G14025   1.849   5.024   7.991  0.5470  0.1416  1.4748
  130OSM   C15F14026   2.042   4.996   8.085  0.4975  0.5708 -0.4103
  130OSM   H15F14027   2.063   5.105   8.072 -2.3036  1.2637  0.1143
  130OSM   H15G14028   2.131   4.931   8.074 -0.9555 -1.9977  1.7929
  130OSM   C16F14029   1.997   4.968   8.224  0.3747  0.0816  0.1566
  130OSM   H16F14030   1.959   4.864   8.221  0.7841 -0.0499 -1.6457
  130OSM   H16G14031   1.913   5.038   8.244  0.6436  0.4517 -0.0029
  130OSM   C17F14032   2.100   4.991   8.330 -0.0271  0.2680 -0.5268
  130OSM   H17F14033   2.132   5.097   8.327 -0.1704  0.4445  2.0717
  130OSM   H17G14034   2.196   4.936   8.315 -1.8503 -2.9588 -1.3654
  130OSM   C18F14035   2.069   4.954   8.484  0.6346  1.0939  0.1407
  130OSM   H18F14036   2.145   5.007   8.547  1.1869  0.3943  0.0702
  130OSM   H18G14037   2.074   4.847   8.513  2.1629  1.8410  3.0390
  130OSM   H18H14038   1.968   4.992   8.511  0.3084 -1.5005  3.2228
  131OSM      N14039   5.951   2.223   6.265 -0.3817  0.2183  0.1486
  131OSM    C1514040   5.942   2.127   6.150  0.0469 -0.3505  0.2043
  131OSM   H15A14041   5.835   2.108   6.145  0.1311 -1.2265  1.2936
  131OSM   H15B14042   5.989   2.031   6.164  2.3936  0.3716 -2.0104
  131OSM   H15C14043   5.985   2.173   6.062  0.8452  0.9549  1.2509
  131OSM    C1414044   5.909   2.353   6.215  0.1664  0.1040  0.0194
  131OSM   H14A14045   5.806   2.365   6.184  0.0132  2.1277  1.1198
  131OSM   H14B14046   5.973   2.391   6.137 -1.1363  1.3914 -0.4809
  131OSM   H14C14047   5.922   2.428   6.292 -0.0272 -1.5334  1.7151
  131OSM    C1314048   5.864   2.173   6.374  0.0828  0.5557 -0.3716
  131OSM   H13A14049   5.863   2.238   6.460  2.0352  0.2252 -0.0642
  131OSM   H13B14050   5.885   2.076   6.415  0.6943  1.0533  0.5178
  131OSM   H13C14051   5.763   2.172   6.335 -0.4368  2.5786  0.7659
  131OSM    C1214052   6.091   2.221   6.323 -0.4420  0.3055  0.5754
  131OSM   H12A14053   6.107   2.126   6.373 -2.3622 -0.9689 -1.0964
  131OSM   H12B14054   6.107   2.293   6.402  0.6280  0.5276  0.1665
  131OSM    C1114055   6.205   2.245   6.218 -0.0965  0.3261 -0.3016
  131OSM   H11A14056   6.199   2.169   6.138 -1.6230  0.6249 -0.5044
  131OSM   H11B14057   6.303   2.246   6.271 -0.1825 -1.0691 -0.0737
  131OSM      P14058   6.236   2.498   6.230  0.1220  0.2193  0.0852
  131OSM    O1314059   6.348   2.562   6.155 -0.0038  0.0481  0.4018
  131OSM    O1414060   6.119   2.584   6.256  0.0187  0.5673 -0.2917
  131OSM    O1114061   6.289   2.462   6.378 -0.1185 -0.0977 -0.1630
  131OSM    O1214062   6.192   2.365   6.161  0.7257 -0.7951  0.0169
  131OSM    C1S14063   6.427   2.468   6.416  0.1040  0.1743 -0.3177
  131OSM    H1S14064   6.474   2.567   6.396  0.5422  0.1867  0.7126
  131OSM    H1T14065   6.470   2.386   6.355 -1.6917 -1.8666  1.0229
  131OSM     NF14066   6.587   2.417   6.591 -0.1712 -0.3057 -0.0647
  131OSM    HNF14067   6.612   2.320   6.587  1.3315  0.0219  0.6994
  131OSM    C2S14068   6.445   2.436   6.561 -0.4057 -0.3469  0.1612
  131OSM    H2S14069   6.412   2.524   6.621 -1.4380 -2.4167  2.8252
  131OSM    C3S14070   6.348   2.316   6.604 -0.0128 -0.2676  0.1997
  131OSM    H3S14071   6.372   2.227   6.542 -1.4384 -0.4994 -0.0558
  131OSM     O314072   6.205   2.336   6.586 -0.1758  0.0733  0.2719
  131OSM    HO314073   6.206   2.411   6.525 -0.0693  0.8336  1.1811
  131OSM    C4S14074   6.375   2.276   6.748 -0.3476 -0.2362 -0.3067
  131OSM    H4S14075   6.418   2.177   6.766  3.9293  1.7658  2.2645
  131OSM    C5S14076   6.347   2.354   6.850  0.6702  0.2746  0.2168
  131OSM    H5S14077   6.291   2.446   6.830  1.1210  0.5529  0.2148
  131OSM    C6S14078   6.358   2.331   7.000 -0.3676 -0.2065  0.2055
  131OSM    H6S14079   6.257   2.331   7.048 -0.7521  2.0777 -0.5111
  131OSM    H6T14080   6.421   2.416   7.032 -3.3595  2.1053  0.3751
  131OSM    C7S14081   6.438   2.200   7.028  0.5531 -0.0782  1.0500
  131OSM    H7S14082   6.541   2.212   6.987  0.6560  3.1938  1.9480
  131OSM    H7T14083   6.389   2.118   6.972 -0.7394  0.6309  1.1109
  131OSM    C8S14084   6.448   2.154   7.169  0.1651  0.4153 -0.7588
  131OSM    H8S14085   6.459   2.045   7.184 -0.2390  0.3429 -0.9666
  131OSM    H8T14086   6.350   2.172   7.219  1.1921  2.2214  0.7295
  131OSM    C9S14087   6.554   2.236   7.254  0.8009 -0.0744  0.2648
  131OSM    H9S14088   6.529   2.338   7.217  4.1115  1.3676  1.6720
  131OSM    H9T14089   6.655   2.204   7.221  0.8710  0.4660 -0.0485
  131OSM   C10S14090   6.549   2.226   7.407  0.0906 -0.1569 -0.7198
  131OSM   H10S14091   6.597   2.316   7.451  1.0429 -1.5027  1.1373
  131OSM   H10T14092   6.615   2.144   7.442 -1.5291 -2.0235 -1.8227
  131OSM   C11S14093   6.416   2.192   7.468 -0.3763 -0.8960 -0.0034
  131OSM   H11S14094   6.397   2.085   7.444  0.8865 -1.0440 -0.4031
  131OSM   H11T14095   6.334   2.251   7.421 -0.2081 -0.3255  0.4047
  131OSM   C12S14096   6.424   2.212   7.617  0.3891 -0.0044  0.3495
  131OSM   H12S14097   6.459   2.317   7.630  0.5612  0.0862 -0.7067
  131OSM   H12T14098   6.496   2.138   7.659  0.2807 -0.3639 -0.0911
  131OSM   C13S14099   6.288   2.193   7.690 -0.6096 -0.9982  1.0945
  131OSM   H13S14100   6.265   2.084   7.683  0.2761 -1.0735 -1.6666
  131OSM   H13T14101   6.211   2.244   7.629  1.5715 -1.0980 -1.9681
  131OSM   C14S14102   6.293   2.243   7.831  0.3465  0.0754 -0.4226
  131OSM   H14S14103   6.326   2.349   7.831 -0.3996  0.3281 -1.3390
  131OSM   H14T14104   6.371   2.175   7.873 -1.2552 -0.4983  1.7779
  131OSM   C15S14105   6.172   2.214   7.912 -0.5155  0.5668 -0.5519
  131OSM   H15S14106   6.132   2.112   7.893  0.2672 -0.0456  0.9206
  131OSM   H15T14107   6.089   2.284   7.889 -1.3557 -0.0694  0.4108
  131OSM   C16S14108   6.185   2.232   8.066 -0.7484  0.6777 -0.1166
  131OSM   H16S14109   6.086   2.200   8.106 -0.2806  0.6705  1.0938
  131OSM   H16T14110   6.192   2.339   8.095 -0.9565  0.4999  0.6275
  131OSM   C17S14111   6.297   2.145   8.134 -0.6002 -0.2939 -1.0668
  131OSM   H17S14112   6.389   2.203   8.111 -0.9795  0.0087 -1.8436
  131OSM   H17T14113   6.309   2.047   8.083  3.3419 -1.8409  2.2173
  131OSM   C18S14114   6.281   2.130   8.290  0.3576 -0.4794  0.1243
  131OSM   H18S14115   6.255   2.230   8.331 -1.9311 -0.6941 -0.6240
  131OSM   H18T14116   6.383   2.111   8.330  1.5950  1.2379 -1.9465
  131OSM   H18U14117   6.200   2.055   8.304  1.4361 -2.2914 -2.4959
  131OSM    C1F14118   6.675   2.515   6.605 -0.6370  0.4301  0.6551
  131OSM     OF14119   6.634   2.629   6.585 -0.3865 -0.5810  0.0710
  131OSM    C2F14120   6.815   2.477   6.636 -0.2837 -0.6463 -0.0176
  131OSM    H2F14121   6.871   2.497   6.542  1.1693 -1.2390  0.6970
  131OSM    H2G14122   6.827   2.368   6.650  0.5793 -0.5261  0.2613
  131OSM    C3F14123   6.874   2.546   6.761  0.1147  0.5799  0.7465
  131OSM    H3F14124   6.868   2.657   6.760 -0.6831  0.5500 -0.0827
  131OSM    H3G14125   6.983   2.530   6.771  0.3014  2.4053  2.0964
  131OSM    C4F14126   6.815   2.493   6.894 -0.2847  0.3983  0.2456
  131OSM    H4F14127   6.833   2.384   6.884  0.6656  0.4808  0.9215
  131OSM    H4G14128   6.707   2.514   6.909 -0.7945 -1.5697 -0.4054
  131OSM    C5F14129   6.901   2.540   7.010  0.6097  0.2278  0.2005
  131OSM    H5F14130   6.893   2.650   7.018  0.0623  0.3402 -1.5376
  131OSM    H5G14131   7.007   2.505   7.009  0.6754  0.4124  0.6610
  131OSM    C6F14132   6.841   2.482   7.142 -0.1654 -0.1718  0.6244
  131OSM    H6F14133   6.822   2.373   7.127  0.6269 -0.1221 -0.9011
  131OSM    H6G14134   6.746   2.536   7.162  1.3341  2.6388  0.6536
  131OSM    C7F14135   6.926   2.504   7.269 -0.0218  0.2227 -0.0629
  131OSM    H7F14136   6.951   2.612   7.278 -0.3520  0.2356  0.7577
  131OSM    H7G14137   7.024   2.453   7.267 -0.8454 -1.4341 -1.6105
  131OSM    C8F14138   6.857   2.455   7.405 -0.0666  0.2587  0.3340
  131OSM    H8F14139   6.827   2.348   7.405  1.3684 -0.1617  0.9002
  131OSM    H8G14140   6.765   2.517   7.395  0.1456  0.5615  0.2505
  131OSM    C9F14141   6.925   2.477   7.533  0.1044 -0.3108  0.1234
  131OSM    H9F14142   7.033   2.461   7.536  0.5462  2.1777 -0.2378
  131OSM   C10F14143   6.870   2.512   7.654 -0.7819  0.1467 -0.2693
  131OSM   H10F14144   6.947   2.525   7.732 -0.0995 -0.1835 -0.8695
  131OSM   C11F14145   6.729   2.550   7.684 -0.2197 -0.5185  0.9806
  131OSM   H11F14146   6.667   2.572   7.595  3.2712 -2.1560 -2.1387
  131OSM   H11G14147   6.721   2.647   7.738 -0.2867 -0.0585  0.1514
  131OSM   C12F14148   6.668   2.434   7.759  0.0225 -0.2398  0.2783
  131OSM   H12F14149   6.667   2.339   7.703  2.4991  0.2396 -0.7084
  131OSM   H12G14150   6.566   2.477   7.767 -0.0850 -0.2785 -0.7941
  131OSM   C13F14151   6.726   2.426   7.894 -0.1145 -0.6592 -0.8171
  131OSM   H13F14152   6.718   2.522   7.950 -0.5976 -2.0638  1.6853
  131OSM   H13G14153   6.833   2.395   7.891  0.4990  1.0054  1.2132
  131OSM   C14F14154   6.659   2.332   7.996  0.3916  0.0729 -0.6251
  131OSM   H14F14155   6.624   2.237   7.952 -1.3262  0.2843  0.2002
  131OSM   H14G14156   6.569   2.373   8.047  0.3779  0.1500 -0.7105
  131OSM   C15F14157   6.748   2.297   8.116  1.2234  0.0485  0.4628
  131OSM   H15F14158   6.754   2.393   8.172  0.7719 -1.1822  2.7508
  131OSM   H15G14159   6.853   2.269   8.091  2.2579  3.2169  0.8360
  131OSM   C16F14160   6.674   2.203   8.220  0.1484 -0.3856 -0.0027
  131OSM   H16F14161   6.661   2.111   8.158  0.8751 -0.3308 -0.2486
  131OSM   H16G14162   6.584   2.262   8.248  0.7984  1.0284 -0.8218
  131OSM   C17F14163   6.768   2.176   8.338 -0.4452 -0.0852 -0.2488
  131OSM   H17F14164   6.785   2.279   8.376 -2.2946  1.3741 -3.0128
  131OSM   H17G14165   6.872   2.141   8.323  0.1445  0.5814  1.8917
  131OSM   C18F14166   6.699   2.088   8.442 -0.1560  0.2093  0.7053
  131OSM   H18F14167   6.671   1.989   8.400  0.8358 -0.1606  0.8960
  131OSM   H18G14168   6.608   2.128   8.492 -1.1645 -0.5519 -0.4590
  131OSM   H18H14169   6.778   2.062   8.516  1.0037 -1.4238 -1.0135
  132OSM      N14170   1.565   0.435   6.139  0.0546  0.3888  0.5524
  132OSM    C1514171   1.692   0.506   6.166 -0.1890 -0.1171 -0.3156
  132OSM   H15A14172   1.740   0.518   6.070 -1.0257 -0.3418 -0.7733
  132OSM   H15B14173   1.757   0.455   6.236  0.0330 -2.2094 -1.9391
  132OSM   H15C14174   1.680   0.603   6.211 -0.4704  0.1001 -0.8503
  132OSM    C1414175   1.476   0.518   6.049 -0.5324  0.2348 -0.4324
  132OSM   H14A14176   1.396   0.452   6.018 -0.6892  0.8889 -1.4711
  132OSM   H14B14177   1.543   0.558   5.973  0.0759  0.2567  0.1046
  132OSM   H14C14178   1.430   0.597   6.106  0.1720 -0.0689  0.5857
  132OSM    C1314179   1.604   0.310   6.062  0.7157 -0.7304 -1.0069
  132OSM   H13A14180   1.670   0.251   6.123 -0.0385 -0.7307 -0.1751
  132OSM   H13B14181   1.649   0.341   5.969  1.1151  0.2959 -0.4873
  132OSM   H13C14182   1.515   0.250   6.048  1.4763 -1.7254 -1.7205
  132OSM    C1214183   1.503   0.395   6.272  0.5265  0.0686  0.1784
  132OSM   H12A14184   1.411   0.342   6.256 -1.1165  2.6210  0.5602
  132OSM   H12B14185   1.467   0.483   6.324 -0.0881 -0.1324  0.0978
  132OSM    C1114186   1.579   0.299   6.366  0.7811 -0.0538  0.4117
  132OSM   H11A14187   1.526   0.294   6.464  2.8821  1.1798  1.6960
  132OSM   H11B14188   1.673   0.351   6.394  1.2528 -1.2472  1.1237
  132OSM      P14189   1.542   0.034   6.365 -0.0208 -0.2813 -0.7826
  132OSM    O1314190   1.409   0.009   6.319  0.0229  0.1346 -0.2652
  132OSM    O1414191   1.645  -0.069   6.352 -0.2588  0.0760  0.1265
  132OSM    O1114192   1.532   0.067   6.519 -0.0001  0.2842 -0.2079
  132OSM    O1214193   1.602   0.166   6.311 -0.2803  0.6109  0.8246
  132OSM    C1S14194   1.438  -0.016   6.590  0.0725  0.6891 -0.9670
  132OSM    H1S14195   1.467  -0.122   6.572  0.0760  0.5680 -0.2512
  132OSM    H1T14196   1.333  -0.012   6.554 -0.5321 -0.1257  0.6284
  132OSM     NF14197   1.391  -0.102   6.813  0.2289  0.1042 -0.6821
  132OSM    HNF14198   1.308  -0.067   6.856 -0.2457 -0.3652 -1.1916
  132OSM    C2S14199   1.458   0.004   6.739 -0.0632 -0.5203  0.2807
  132OSM    H2S14200   1.568  -0.007   6.755  0.1148 -0.3359 -0.7305
  132OSM    C3S14201   1.418   0.141   6.800 -0.1860 -0.9574  0.0489
  132OSM    H3S14202   1.310   0.148   6.825  0.1417 -2.9774  2.4065
  132OSM     O314203   1.440   0.254   6.715  0.5216 -0.1652 -0.2355
  132OSM    HO314204   1.448   0.217   6.627  0.9728 -1.1798  0.2195
  132OSM    C4S14205   1.479   0.165   6.939 -0.1085  0.6613  0.0598
  132OSM    H4S14206   1.416   0.119   7.017  1.7147 -1.2581  0.5044
  132OSM    C5S14207   1.595   0.229   6.968  0.0901 -0.3014  0.5948
  132OSM    H5S14208   1.651   0.271   6.883 -0.2845 -1.5418 -0.3035
  132OSM    C6S14209   1.662   0.257   7.102 -0.0592 -0.7343  0.5685
  132OSM    H6S14210   1.664   0.368   7.105 -3.2838 -0.3415 -2.9567
  132OSM    H6T14211   1.767   0.223   7.096  0.1161 -0.0543 -0.8321
  132OSM    C7S14212   1.612   0.200   7.225  1.2514 -0.0971 -0.1122
  132OSM    H7S14213   1.627   0.090   7.223 -1.3288 -0.5514  1.1072
  132OSM    H7T14214   1.502   0.220   7.228  1.3648  1.1891 -2.3572
  132OSM    C8S14215   1.682   0.252   7.357  0.5370 -0.5096  0.3329
  132OSM    H8S14216   1.682   0.363   7.352  2.0423 -0.5427 -2.5601
  132OSM    H8T14217   1.783   0.208   7.373  0.0305 -1.4435  1.0138
  132OSM    C9S14218   1.608   0.214   7.485  0.3831 -0.0838 -0.2530
  132OSM    H9S14219   1.591   0.105   7.498  1.8144 -0.3012  0.0346
  132OSM    H9T14220   1.506   0.255   7.471 -0.5207 -1.8450  0.7934
  132OSM   C10S14221   1.670   0.273   7.613  0.3267  0.3263  0.6763
  132OSM   H10S14222   1.658   0.383   7.620 -2.4109  0.2527 -1.2199
  132OSM   H10T14223   1.779   0.260   7.602  0.2673  0.4812 -0.1676
  132OSM   C11S14224   1.599   0.196   7.724 -0.2532 -1.1080 -0.1654
  132OSM   H11S14225   1.644   0.096   7.743 -1.0238 -1.4960 -0.3452
  132OSM   H11T14226   1.492   0.176   7.700 -0.7375  0.9815  0.1117
  132OSM   C12S14227   1.600   0.282   7.852 -0.6784  0.6433  0.5913
  132OSM   H12S14228   1.543   0.378   7.849 -0.5004  0.7527  0.7010
  132OSM   H12T14229   1.704   0.316   7.869  1.2870 -2.6546 -3.1901
  132OSM   C13S14230   1.555   0.204   7.979  0.9131  0.2496  0.5175
  132OSM   H13S14231   1.617   0.111   7.984  0.4240 -0.5034 -3.5206
  132OSM   H13T14232   1.455   0.159   7.960  1.6271 -1.6922  1.0907
  132OSM   C14S14233   1.567   0.285   8.113 -0.3415 -0.0417  0.2992
  132OSM   H14S14234   1.491   0.366   8.111 -0.4758 -0.1786 -0.6170
  132OSM   H14T14235   1.672   0.320   8.123  0.0073 -0.8853 -0.2662
  132OSM   C15S14236   1.549   0.188   8.232 -0.8850 -0.3127 -0.0363
  132OSM   H15S14237   1.643   0.138   8.263  0.4996  2.5512  0.6645
  132OSM   H15T14238   1.476   0.112   8.196  0.5537 -1.4932 -0.5758
  132OSM   C16S14239   1.502   0.266   8.355  0.0414 -0.2498  0.8502
  132OSM   H16S14240   1.414   0.324   8.322  1.3871  0.9439 -0.8265
  132OSM   H16T14241   1.576   0.345   8.383 -0.1822  0.8253 -1.4222
  132OSM   C17S14242   1.486   0.187   8.478  0.6098  0.2146 -0.0449
  132OSM   H17S14243   1.585   0.146   8.507  0.5526 -0.4112 -0.6985
  132OSM   H17T14244   1.423   0.096   8.472  1.7669 -0.5826 -0.4771
  132OSM   C18S14245   1.442   0.280   8.598  0.8157  1.0009  0.4557
  132OSM   H18S14246   1.345   0.334   8.589  0.8781  1.3742  1.8574
  132OSM   H18T14247   1.522   0.353   8.624  2.3841  0.7881 -3.1782
  132OSM   H18U14248   1.431   0.214   8.687  0.0680 -0.8928 -0.9589
  132OSM    C1F14249   1.402  -0.232   6.809  0.3209 -0.0635 -0.0297
  132OSM     OF14250   1.491  -0.295   6.754  0.3996 -0.5897 -0.3058
  132OSM    C2F14251   1.290  -0.319   6.877 -0.6972  0.2137 -0.8431
  132OSM    H2F14252   1.249  -0.388   6.801 -1.7620  0.3253 -0.3909
  132OSM    H2G14253   1.211  -0.257   6.925 -0.2584 -1.8121  2.8978
  132OSM    C3F14254   1.347  -0.417   6.990 -1.1818 -0.3386  0.0226
  132OSM    H3F14255   1.410  -0.483   6.926 -2.0502 -0.2847 -0.9208
  132OSM    H3G14256   1.280  -0.478   7.054 -0.7199  0.4601  1.2891
  132OSM    C4F14257   1.423  -0.337   7.103 -0.1663 -0.2976  0.4503
  132OSM    H4F14258   1.501  -0.281   7.047  0.5268 -1.9023 -0.2751
  132OSM    H4G14259   1.467  -0.413   7.170  0.5108 -0.3037  0.0130
  132OSM    C5F14260   1.326  -0.253   7.185  0.2650  0.6388  0.6870
  132OSM    H5F14261   1.246  -0.322   7.220  0.8080 -0.2505  0.2181
  132OSM    H5G14262   1.284  -0.172   7.122  1.2699  0.7053  0.0778
  132OSM    C6F14263   1.381  -0.203   7.320  0.6158 -0.4483  0.0944
  132OSM    H6F14264   1.449  -0.115   7.315 -0.4219  0.4860  1.3627
  132OSM    H6G14265   1.430  -0.289   7.370  1.0821  0.7911  1.8745
  132OSM    C7F14266   1.270  -0.129   7.406 -0.0685  0.3914  0.2995
  132OSM    H7F14267   1.176  -0.188   7.405  1.4377 -2.1620 -1.4608
  132OSM    H7G14268   1.233  -0.037   7.357 -1.2422  0.5756  1.4687
  132OSM    C8F14269   1.322  -0.101   7.546 -0.5081 -0.2487 -0.2970
  132OSM    H8F14270   1.241  -0.037   7.588  0.9726  2.3113 -1.1317
  132OSM    H8G14271   1.410  -0.035   7.554 -2.3788  2.2099  1.5550
  132OSM    C9F14272   1.333  -0.225   7.621  0.2257  0.5793 -0.4047
  132OSM    H9F14273   1.410  -0.295   7.584  1.7171  2.4420 -0.9878
  132OSM   C10F14274   1.244  -0.262   7.720 -0.4077 -0.1028  0.0977
  132OSM   H10F14275   1.269  -0.354   7.774  1.3421 -1.0604 -2.1767
  132OSM   C11F14276   1.120  -0.187   7.769 -0.5323 -0.9272 -0.6224
  132OSM   H11F14277   1.059  -0.252   7.835  2.0526 -1.9949  0.8546
  132OSM   H11G14278   1.057  -0.155   7.683  1.1023  2.5231 -0.7191
  132OSM   C12F14279   1.132  -0.051   7.853  0.5768 -0.1434 -0.2232
  132OSM   H12F14280   1.034  -0.006   7.879  0.0118 -0.6195 -1.4069
  132OSM   H12G14281   1.179   0.023   7.785 -0.2320  0.0432 -0.5931
  132OSM   C13F14282   1.230  -0.057   7.967 -0.1099 -0.2718  0.0934
  132OSM   H13F14283   1.231   0.042   8.016 -0.2307  0.6632 -1.7163
  132OSM   H13G14284   1.329  -0.083   7.925 -0.2781 -2.8372  1.0977
  132OSM   C14F14285   1.185  -0.156   8.072 -0.1154  0.2430  0.6433
  132OSM   H14F14286   1.197  -0.258   8.030 -0.2602  0.3792  0.2711
  132OSM   H14G14287   1.077  -0.149   8.100 -0.1781 -0.2594  0.5494
  132OSM   C15F14288   1.279  -0.145   8.196  0.1392 -0.1130 -0.5916
  132OSM   H15F14289   1.289  -0.038   8.227  0.2857 -0.0049 -1.0092
  132OSM   H15G14290   1.383  -0.165   8.162 -0.3816  1.4931 -3.4689
  132OSM   C16F14291   1.231  -0.226   8.323 -0.1849  0.2632  0.3228
  132OSM   H16F14292   1.133  -0.197   8.365 -0.4153 -0.5459  0.3664
  132OSM   H16G14293   1.306  -0.205   8.403  2.0870 -0.1426 -1.5723
  132OSM   C17F14294   1.225  -0.386   8.290  0.2785 -0.0645 -0.1517
  132OSM   H17F14295   1.159  -0.403   8.203 -0.8613 -1.4136  0.9190
  132OSM   H17G14296   1.168  -0.433   8.374  0.5772  0.1112  0.1501
  132OSM   C18F14297   1.360  -0.447   8.271 -0.1576 -0.3016 -0.3445
  132OSM   H18F14298   1.416  -0.409   8.183  2.7809 -0.4184  1.3566
  132OSM   H18G14299   1.349  -0.558   8.262 -0.9695 -0.4210  1.7151
  132OSM   H18H14300   1.428  -0.424   8.355 -0.7301 -0.3682  0.1408
  133SAPE     N14301   3.685   5.418  11.022  0.2330 -0.2864 -0.1177
  133SAPE   HN114302   3.699   5.368  10.932 -3.7498 -2.3526  0.1631
  133SAPE   HN214303   3.758   5.490  11.037  0.6848 -0.7406 -0.0972
  133SAPE   HN314304   3.718   5.353  11.096  0.4301 -2.8269 -2.2842
  133SAPE   C1214305   3.555   5.485  11.041  0.3887  0.1655 -0.3185
  133SAPE  H12A14306   3.544   5.583  10.989  0.8748  1.3915  1.7775
  133SAPE  H12B14307   3.548   5.506  11.149 -0.8678  1.2258 -0.5827
  133SAPE   C1114308   3.433   5.404  11.017  0.4512 -0.5463 -0.2385
  133SAPE  H11A14309   3.355   5.461  11.072  0.5258  0.3122 -0.9931
  133SAPE  H11B14310   3.437   5.303  11.062  0.3925 -1.0246 -1.2670
  133SAPE     P14311   3.269   5.353  10.813  0.0687 -0.3299  0.0407
  133SAPE   O1314312   3.162   5.434  10.872 -0.2480 -0.0749 -0.3942
  133SAPE   O1414313   3.284   5.356  10.669  0.1528  0.1675 -0.6849
  133SAPE   O1214314   3.409   5.398  10.875 -0.0574  0.2238 -0.2224
  133SAPE   O1114315   3.265   5.200  10.860 -0.7471  0.0545 -0.0497
  133SAPE    C114316   3.370   5.117  10.804  0.8663 -0.3370 -0.6941
  133SAPE    HA14317   3.468   5.169  10.798  1.5995 -1.6250 -0.3926
  133SAPE    HB14318   3.388   5.039  10.882 -1.4708  0.6378  0.9490
  133SAPE    C214319   3.324   5.051  10.671 -0.1604  0.1728 -0.4610
  133SAPE    HS14320   3.321   5.132  10.594 -2.6842 -0.1802 -0.8288
  133SAPE   O2114321   3.197   4.982  10.690 -0.8193  0.6933  0.3343
  133SAPE   C2114322   3.096   5.019  10.611  0.0745  0.4497  0.4060
  133SAPE   O2214323   3.108   5.099  10.514  0.4521  0.4016  0.0005
  133SAPE   C2214324   2.972   4.944  10.653  0.6644  0.5128 -0.4198
  133SAPE   H2R14325   2.995   4.836  10.643 -0.6989  0.1229  0.3968
  133SAPE   H2S14326   2.950   4.956  10.761 -1.6996 -1.8489 -0.5353
  133SAPE    C314327   3.446   4.956  10.630 -0.0185  0.1476 -1.0692
  133SAPE    HX14328   3.444   4.884  10.715 -0.8754 -0.0056 -1.2108
  133SAPE    HY14329   3.543   5.010  10.633 -0.0612  0.2562 -1.5948
  133SAPE   O3114330   3.439   4.892  10.500 -0.4120  0.5083 -0.1401
  133SAPE   C3114331   3.443   4.981  10.399 -0.5090  0.6736  0.3465
  133SAPE   O3214332   3.460   5.101  10.414  0.1273 -0.0963 -0.3037
  133SAPE   C3214333   3.448   4.909  10.262 -0.0964  1.3739  0.7355
  133SAPE   H2X14334   3.344   4.878  10.240  0.1840 -1.8932  3.2689
  133SAPE   H2Y14335   3.512   4.819  10.276  0.2674  1.0998 -2.1366
  133SAPE   C2314336   2.845   4.970  10.567 -0.4485 -0.3714  0.2978
  133SAPE   H3R14337   2.811   5.074  10.586  0.9368  0.1910 -0.1712
  133SAPE   H3S14338   2.766   4.907  10.614  0.0595  0.1797  1.9601
  133SAPE   C2414339   2.857   4.935  10.417 -0.5668 -0.4041  0.0291
  133SAPE   H4R14340   2.937   4.997  10.372 -1.1733  2.2926  2.3687
  133SAPE   H4S14341   2.764   4.971  10.368  0.1684  0.9509 -0.4254
  133SAPE   C2514342   2.867   4.790  10.375  0.4110  0.1619 -0.9274
  133SAPE   H5R14343   2.792   4.717  10.409  2.1166 -1.3298 -0.1856
  133SAPE   C2614344   2.959   4.747  10.293 -0.5878  0.6557  0.3145
  133SAPE   H6R14345   2.951   4.637  10.283  0.8623  0.5428  0.1506
  133SAPE   C2714346   3.062   4.825  10.209 -0.0465 -0.2428  0.1169
  133SAPE   H7R14347   3.130   4.882  10.276  0.3454  0.2922 -0.7129
  133SAPE   H7S14348   3.020   4.894  10.132  0.6985 -1.4395 -1.4215
  133SAPE   C2814349   3.148   4.716  10.142  0.1910  0.2939 -0.5629
  133SAPE   H8R14350   3.200   4.648  10.211  0.7099 -1.7017 -2.7800
  133SAPE   C2914351   3.151   4.683  10.014  0.0383  0.2818 -0.2544
  133SAPE   H9R14352   3.211   4.594   9.989  0.5888  0.1784  1.3102
  133SAPE  C21014353   3.072   4.736   9.900 -0.0493 -0.4069 -0.3320
  133SAPE  H10R14354   3.032   4.835   9.931 -0.1775  0.4976 -3.1013
  133SAPE  H10S14355   2.979   4.677   9.884  0.3689 -1.1512 -0.0512
  133SAPE  C21114356   3.144   4.752   9.776 -0.7655 -0.1850 -0.0565
  133SAPE  H11R14357   3.254   4.742   9.780 -0.7928 -2.1033 -2.1688
  133SAPE  C21214358   3.089   4.756   9.653 -1.0014 -0.8742 -0.0771
  133SAPE  H12R14359   3.160   4.770   9.571 -1.0169  0.6991  0.1350
  133SAPE  C21314360   2.948   4.774   9.617 -0.5251 -0.2090 -0.5297
  133SAPE  H13R14361   2.938   4.868   9.558  2.9665 -0.6723 -2.1460
  133SAPE  H13S14362   2.890   4.804   9.707 -0.3201  0.3879 -0.5867
  133SAPE  C21414363   2.888   4.651   9.551  0.3071  0.2465  0.2019
  133SAPE  H14R14364   2.911   4.555   9.599 -1.9627 -0.6490 -0.3397
  133SAPE  C21514365   2.812   4.650   9.439 -0.5061  0.0945 -0.5118
  133SAPE  H15R14366   2.801   4.547   9.402 -0.7533 -0.1780  0.3037
  133SAPE  C21614367   2.770   4.769   9.358 -0.0909 -0.7572  0.3005
  133SAPE  H16R14368   2.759   4.859   9.422 -1.0008  0.6608 -1.7104
  133SAPE  H16S14369   2.671   4.736   9.318  1.0020 -2.7554 -0.9227
  133SAPE  C21714370   2.865   4.809   9.244 -0.3056  0.5534 -0.4114
  133SAPE  H17R14371   2.966   4.772   9.273 -1.1077 -1.0467  0.4917
  133SAPE  H17S14372   2.885   4.918   9.231 -1.7134  0.6977 -1.6744
  133SAPE  C21814373   2.823   4.743   9.111 -0.8263  0.1169 -0.2244
  133SAPE  H18R14374   2.763   4.650   9.124 -0.4098 -0.0240  0.7013
  133SAPE  H18S14375   2.914   4.715   9.053 -0.7975 -0.9060  0.3012
  133SAPE  C21914376   2.731   4.847   9.048  0.7205 -0.0787  0.0592
  133SAPE  H19R14377   2.780   4.946   9.043 -1.1470  1.0517  2.1711
  133SAPE  H19S14378   2.642   4.859   9.113 -0.5915 -2.8116 -1.0738
  133SAPE  C22014379   2.693   4.807   8.906 -0.3241  0.0868 -0.1424
  133SAPE  H20R14380   2.775   4.818   8.832 -2.1776  0.9874 -2.1714
  133SAPE  H20S14381   2.624   4.884   8.866 -1.4750 -0.0608  1.4797
  133SAPE  H20T14382   2.654   4.703   8.902  2.2310 -1.0880  2.1241
  133SAPE   C3314383   3.518   4.994  10.157 -0.7040  0.3888  0.8737
  133SAPE   H3X14384   3.629   5.000  10.167 -0.3190  0.7316 -2.5379
  133SAPE   H3Y14385   3.479   5.098  10.161 -1.0849  0.2337  1.2319
  133SAPE   C3414386   3.482   4.948  10.018  0.0006 -0.0207 -0.4763
  133SAPE   H4X14387   3.371   4.946  10.017  0.0098 -0.5757 -0.9898
  133SAPE   H4Y14388   3.502   4.839  10.007 -1.5934 -0.1238 -3.2559
  133SAPE   C3514389   3.542   5.027   9.903  0.8427 -0.2961 -0.6230
  133SAPE   H5X14390   3.651   5.023   9.885  0.8669  0.3578 -0.6415
  133SAPE   H5Y14391   3.521   5.129   9.941  0.3095  0.4965 -2.8902
  133SAPE   C3614392   3.464   5.014   9.775  0.2010 -0.5378  0.2404
  133SAPE   H6X14393   3.491   5.100   9.710  1.6297 -1.1309  0.0165
  133SAPE   H6Y14394   3.355   5.006   9.794 -0.1545  1.2323 -0.7785
  133SAPE   C3714395   3.516   4.893   9.691 -0.1579 -0.6391 -0.0712
  133SAPE   H7X14396   3.534   4.810   9.762 -1.2889 -1.0012 -0.1863
  133SAPE   H7Y14397   3.613   4.935   9.658 -0.6121 -0.0116 -0.6412
  133SAPE   C3814398   3.453   4.861   9.553 -0.0373 -0.1390 -0.6089
  133SAPE   H8X14399   3.439   4.955   9.496  2.6689  0.6344 -0.1393
  133SAPE   H8Y14400   3.353   4.813   9.563  0.5410 -1.4084 -0.7224
  133SAPE   C3914401   3.531   4.763   9.458 -0.3094  0.3433 -0.1466
  133SAPE   H9X14402   3.456   4.689   9.423  0.5214 -0.2835 -0.6500
  133SAPE   H9Y14403   3.579   4.702   9.538 -0.2248  0.7398  0.1053
  133SAPE  C31014404   3.634   4.823   9.368  0.0179 -0.2397  0.0136
  133SAPE  H10X14405   3.708   4.744   9.344  1.3833  1.0412 -0.1962
  133SAPE  H10Y14406   3.688   4.909   9.414  0.6513 -0.2528 -0.6818
  133SAPE  C31114407   3.571   4.871   9.237  0.0303 -0.3668 -0.1526
  133SAPE  H11X14408   3.513   4.963   9.259 -0.3539 -0.4684 -0.7175
  133SAPE  H11Y14409   3.495   4.799   9.199 -1.2371  1.2679 -0.8380
  133SAPE  C31214410   3.663   4.873   9.111  0.5979  0.2032  0.0503
  133SAPE  H12X14411   3.701   4.769   9.105  0.3358 -0.0351  1.8364
  133SAPE  H12Y14412   3.756   4.931   9.128  1.0815 -0.5560  0.0613
  133SAPE  C31314413   3.601   4.925   8.981  0.3974  0.5402 -0.8141
  133SAPE  H13X14414   3.677   4.936   8.901 -1.0466  2.2405 -2.0652
  133SAPE  H13Y14415   3.566   5.028   9.006  2.0707  1.0941 -0.6793
  133SAPE  C31414416   3.484   4.848   8.916 -0.2177  0.1350 -0.0805
  133SAPE  H14X14417   3.411   4.809   8.989  2.5096 -1.6660  1.8962
  133SAPE  H14Y14418   3.530   4.768   8.855 -0.5943  0.0685 -0.2800
  133SAPE  C31514419   3.403   4.932   8.816 -0.5470  0.0652  0.1958
  133SAPE  H15X14420   3.475   5.007   8.776  2.9727 -1.6110  2.8358
  133SAPE  H15Y14421   3.323   4.991   8.866 -1.5238  1.3384 -2.6451
  133SAPE  C31614422   3.335   4.852   8.699  0.4369 -0.4492  0.2767
  133SAPE  H16X14423   3.274   4.925   8.642  0.0141  0.3696  1.7086
  133SAPE  H16Y14424   3.265   4.777   8.742  0.7516 -1.1893 -0.4825
  133SAPE  C31714425   3.438   4.789   8.609  0.5167  0.1222 -0.2127
  133SAPE  H17X14426   3.490   4.709   8.667 -0.6085  0.1483  0.8610
  133SAPE  H17Y14427   3.512   4.860   8.566  0.3182 -0.6972 -1.9974
  133SAPE  C31814428   3.379   4.722   8.489  0.2218  0.3442  0.2351
  133SAPE  H18X14429   3.325   4.797   8.428  0.2068  0.1094 -0.0467
  133SAPE  H18Y14430   3.300   4.651   8.520 -0.1683  0.5871 -0.1904
  133SAPE  H18Z14431   3.455   4.670   8.427  0.8194  0.5358  0.7949
  134SAPE     N14432   6.407   6.617  10.426 -0.2890  0.0034  0.0953
  134SAPE   HN114433   6.499   6.572  10.445 -1.5590 -2.7816  0.1578
  134SAPE   HN214434   6.333   6.549  10.453  0.6663 -1.0804  0.0721
  134SAPE   HN314435   6.398   6.654  10.330 -1.6371  0.9190  0.5498
  134SAPE   C1214436   6.368   6.737  10.514  0.3360  0.1895  0.5386
  134SAPE  H12A14437   6.443   6.819  10.515  0.4885  0.0404  1.4467
  134SAPE  H12B14438   6.362   6.691  10.614 -1.1418 -0.0389  0.3610
  134SAPE   C1114439   6.229   6.794  10.489 -0.7609 -0.5024  0.3876
  134SAPE  H11A14440   6.224   6.806  10.379  0.4036 -4.0295 -0.1770
  134SAPE  H11B14441   6.213   6.894  10.536 -0.5439  0.3075 -1.1751
  134SAPE     P14442   5.978   6.759  10.551 -0.1659  0.3281  0.4647
  134SAPE   O1314443   5.943   6.746  10.694 -0.6177 -0.0422  0.5805
  134SAPE   O1414444   5.964   6.891  10.487  0.2054 -0.9753 -0.3172
  134SAPE   O1214445   6.123   6.707  10.522  0.1782 -0.3934 -0.3396
  134SAPE   O1114446   5.901   6.649  10.466  0.1239  0.1590  0.5026
  134SAPE    C114447   5.949   6.543  10.382  0.0291 -0.2465 -0.1615
  134SAPE    HA14448   6.019   6.478  10.438  1.1445 -0.6921 -1.9870
  134SAPE    HB14449   5.865   6.478  10.348  1.4414 -1.3640 -1.6900
  134SAPE    C214450   6.021   6.590  10.255  0.2107 -0.0086  0.5488
  134SAPE    HS14451   6.086   6.677  10.281  1.1724 -0.2688 -0.8569
  134SAPE   O2114452   5.917   6.623  10.164 -0.1964  0.1280  0.1318
  134SAPE   C2114453   5.892   6.749  10.122 -0.0340 -0.1125  0.3956
  134SAPE   O2214454   5.931   6.856  10.176  0.5774  0.5935  0.4526
  134SAPE   C2214455   5.806   6.757   9.998  0.5172  0.2482 -0.3597
  134SAPE   H2R14456   5.711   6.721  10.043  2.3383 -0.3375  3.4357
  134SAPE   H2S14457   5.801   6.863   9.966 -0.9395 -0.0219 -1.0932
  134SAPE    C314458   6.116   6.480  10.190 -0.5420 -0.7356  0.5701
  134SAPE    HX14459   6.041   6.397  10.186 -1.3147 -0.2115  2.8208
  134SAPE    HY14460   6.193   6.453  10.265  0.9258  0.5198 -0.4234
  134SAPE   O3114461   6.180   6.503  10.060  1.0158 -0.5958  0.0892
  134SAPE   C3114462   6.278   6.581  10.070  0.3342 -0.3631  0.3079
  134SAPE   O3214463   6.317   6.641  10.169  0.2830 -0.0887  0.2640
  134SAPE   C3214464   6.338   6.607   9.928  0.7835  0.0766  0.2862
  134SAPE   H2X14465   6.441   6.615   9.968 -0.1036  0.7797  2.5562
  134SAPE   H2Y14466   6.310   6.703   9.881  0.2026 -0.5670 -0.7360
  134SAPE   C2314467   5.845   6.659   9.883 -0.7476  0.0010 -0.2686
  134SAPE   H3R14468   5.756   6.635   9.822  0.0242 -1.0571 -1.0306
  134SAPE   H3S14469   5.875   6.562   9.930 -1.0312  0.5053  0.9968
  134SAPE   C2414470   5.958   6.703   9.789  0.1452  0.5755 -0.1230
  134SAPE   H4R14471   5.975   6.611   9.728 -0.6327  1.0461 -1.0785
  134SAPE   H4S14472   6.052   6.714   9.847 -0.8066 -4.3313  3.0177
  134SAPE   C2514473   5.939   6.823   9.701  0.5107 -0.1734 -0.2748
  134SAPE   H5R14474   5.958   6.915   9.759 -0.6867  1.2297 -2.0018
  134SAPE   C2614475   5.914   6.831   9.567  0.1660 -0.1161 -0.3766
  134SAPE   H6R14476   5.899   6.928   9.517 -0.5392  0.3424  0.6941
  134SAPE   C2714477   5.907   6.723   9.474 -0.0172  0.5768  0.3505
  134SAPE   H7R14478   5.839   6.759   9.393  2.3219  2.9814 -0.6637
  134SAPE   H7S14479   5.847   6.640   9.519 -1.6796  0.1796 -2.3812
  134SAPE   C2814480   6.047   6.682   9.435  0.3559 -0.3795  0.0278
  134SAPE   H8R14481   6.116   6.661   9.518  1.3764  2.9564  0.1463
  134SAPE   C2914482   6.102   6.683   9.313  0.0766  0.5806  0.2827
  134SAPE   H9R14483   6.198   6.631   9.299  0.6779  1.1829  1.9171
  134SAPE  C21014484   6.023   6.723   9.191  0.0106 -0.4024  0.1537
  134SAPE  H10R14485   6.096   6.745   9.110 -0.7216  1.4226 -0.0436
  134SAPE  H10S14486   5.966   6.816   9.209 -1.2538 -1.2625  0.7534
  134SAPE  C21114487   5.935   6.607   9.151  0.0642 -1.0834 -0.2616
  134SAPE  H11R14488   5.834   6.619   9.193 -0.3604 -0.0066 -1.5355
  134SAPE  C21214489   5.962   6.517   9.064 -0.2405 -0.4881  0.5855
  134SAPE  H12R14490   5.894   6.432   9.047 -0.1373 -0.3326 -0.6810
  134SAPE  C21314491   6.079   6.491   8.977 -0.2584  0.1130 -0.2401
  134SAPE  H13R14492   6.059   6.385   8.952 -0.1458 -0.9347  3.4860
  134SAPE  H13S14493   6.170   6.501   9.041  0.1445  0.4565 -0.8494
  134SAPE  C21414494   6.098   6.572   8.848  0.2642  0.1365  0.3393
  134SAPE  H14R14495   6.117   6.678   8.867 -0.8916  0.1082  1.8638
  134SAPE  C21514496   6.086   6.518   8.723 -0.2824 -0.6670 -0.3771
  134SAPE  H15R14497   6.102   6.584   8.636 -2.9032 -0.0812 -0.4721
  134SAPE  C21614498   6.059   6.379   8.680 -0.0379  0.6933  0.9090
  134SAPE  H16R14499   6.099   6.302   8.750  1.4115  0.6344  0.0671
  134SAPE  H16S14500   6.105   6.355   8.582  1.0907 -3.4997  2.2400
  134SAPE  C21714501   5.914   6.332   8.656 -0.6290 -0.5121  0.0128
  134SAPE  H17R14502   5.850   6.364   8.742  0.4087  0.9053  0.2838
  134SAPE  H17S14503   5.915   6.221   8.661  0.1163 -0.4571  2.1885
  134SAPE  C21814504   5.854   6.385   8.526 -0.8980  0.1906 -0.1618
  134SAPE  H18R14505   5.768   6.324   8.490 -0.7234 -2.1370  2.9632
  134SAPE  H18S14506   5.931   6.364   8.448  0.3576 -2.0623  1.5333
  134SAPE  C21914507   5.815   6.531   8.525 -0.2333  0.7847 -0.1320
  134SAPE  H19R14508   5.907   6.591   8.507  0.4585 -0.4761 -0.9411
  134SAPE  H19S14509   5.776   6.561   8.625  0.0630  1.8046 -0.3036
  134SAPE  C22014510   5.712   6.562   8.412 -0.6578 -0.4101 -1.0010
  134SAPE  H20R14511   5.629   6.626   8.449 -0.1119 -0.0516 -0.3775
  134SAPE  H20S14512   5.671   6.465   8.375  1.0072 -0.9663 -1.4900
  134SAPE  H20T14513   5.764   6.606   8.324  0.8812 -0.9328 -0.3890
  134SAPE   C3314514   6.324   6.484   9.828  0.1486 -0.4549 -0.1334
  134SAPE   H3X14515   6.214   6.475   9.810  0.3397  0.9387 -2.4295
  134SAPE   H3Y14516   6.367   6.392   9.873  0.6314 -1.2735 -2.1484
  134SAPE   C3414517   6.379   6.516   9.687  0.4546 -0.2765 -0.1755
  134SAPE   H4X14518   6.489   6.526   9.702  0.2540  3.5406 -0.2617
  134SAPE   H4Y14519   6.336   6.611   9.648 -1.2155 -0.6465  0.7045
  134SAPE   C3514520   6.361   6.395   9.595 -0.0373  0.5144 -0.0675
  134SAPE   H5X14521   6.254   6.364   9.600 -0.5431  1.4159 -3.3497
  134SAPE   H5Y14522   6.426   6.314   9.633  1.0476  0.6836 -1.5111
  134SAPE   C3614523   6.384   6.432   9.451  0.4688  0.4319 -0.4916
  134SAPE   H6X14524   6.490   6.464   9.440  0.8298 -0.3110  0.6097
  134SAPE   H6Y14525   6.323   6.519   9.418 -1.1845  0.0786  1.4405
  134SAPE   C3714526   6.355   6.311   9.359  0.1175 -0.3619 -0.3551
  134SAPE   H7X14527   6.255   6.271   9.387  0.4879 -0.5452  0.7287
  134SAPE   H7Y14528   6.431   6.236   9.391 -1.1958 -0.7822  1.9747
  134SAPE   C3814529   6.359   6.342   9.208 -0.4751  0.2141  0.6362
  134SAPE   H8X14530   6.458   6.384   9.180  0.2924 -2.7031 -1.4837
  134SAPE   H8Y14531   6.277   6.413   9.184 -0.5355  0.1924  0.7765
  134SAPE   C3914532   6.346   6.206   9.136  0.5736  0.4183 -0.2277
  134SAPE   H9X14533   6.245   6.161   9.141  0.4155  0.7231 -0.6363
  134SAPE   H9Y14534   6.414   6.134   9.187  1.9523 -0.3677 -2.9650
  134SAPE  C31014535   6.387   6.208   8.992 -0.5342 -0.4019 -0.5990
  134SAPE  H10X14536   6.486   6.254   8.973 -1.3939  1.3969 -0.8692
  134SAPE  H10Y14537   6.308   6.262   8.935 -3.1034 -2.1105  1.1170
  134SAPE  C31114538   6.398   6.066   8.929 -0.1642  0.3380 -0.0661
  134SAPE  H11X14539   6.309   6.012   8.967 -2.2651  1.8788 -2.4350
  134SAPE  H11Y14540   6.492   6.027   8.973  0.1811  1.5769  0.3407
  134SAPE  C31214541   6.408   6.062   8.776 -0.0624 -0.4333 -0.0574
  134SAPE  H12X14542   6.434   5.958   8.747  1.9524  0.2615 -0.8603
  134SAPE  H12Y14543   6.485   6.133   8.740 -2.4387  2.6068  0.4077
  134SAPE  C31314544   6.275   6.103   8.701  0.4382  0.4758  0.0939
  134SAPE  H13X14545   6.287   6.213   8.691 -0.5134  0.5537 -0.2579
  134SAPE  H13Y14546   6.188   6.080   8.765 -0.0959  0.2167 -0.7153
  134SAPE  C31414547   6.266   6.039   8.563  0.5246 -0.0973  0.1668
  134SAPE  H14X14548   6.262   5.930   8.581 -0.3197 -0.1411 -0.2136
  134SAPE  H14Y14549   6.359   6.070   8.511  1.0815  0.3815  1.4090
  134SAPE  C31514550   6.143   6.085   8.479  0.1006 -0.3422 -0.0745
  134SAPE  H15X14551   6.164   6.187   8.441 -0.9969  0.5009  1.4985
  134SAPE  H15Y14552   6.058   6.101   8.549 -2.0993 -0.3517 -2.5490
  134SAPE  C31614553   6.116   5.986   8.368 -0.0412  0.3983 -0.0791
  134SAPE  H16X14554   6.096   5.888   8.417  1.3916  0.6243  1.0187
  134SAPE  H16Y14555   6.210   5.981   8.309  0.4311  1.0792  0.6107
  134SAPE  C31714556   6.014   6.029   8.258  0.1963  0.2018 -0.3591
  134SAPE  H17X14557   6.058   6.109   8.195 -1.8721  1.8532  0.1995
  134SAPE  H17Y14558   5.927   6.072   8.313  1.9412  2.2905  0.9657
  134SAPE  C31814559   5.969   5.913   8.167  0.0086 -0.0206  0.2775
  134SAPE  H18X14560   5.918   5.831   8.223 -1.3672  1.3435  1.0907
  134SAPE  H18Y14561   6.062   5.873   8.121 -0.3818  0.1351 -0.6664
  134SAPE  H18Z14562   5.905   5.949   8.084 -0.0335  0.8941  0.6956
  135SAPE     N14563   5.141   5.193  10.770 -0.0134 -0.6398  0.1787
  135SAPE   HN114564   5.171   5.096  10.749 -3.0536 -1.1424 -2.7149
  135SAPE   HN214565   5.209   5.264  10.735 -0.4937 -0.8646 -1.2982
  135SAPE   HN314566   5.125   5.208  10.872  2.3739  2.3527  0.2591
  135SAPE   C1214567   5.015   5.215  10.692 -0.2003  0.4329  0.5520
  135SAPE  H12A14568   5.000   5.322  10.667 -0.7230 -0.0073 -1.1131
  135SAPE  H12B14569   4.933   5.178  10.758  0.7051  0.4205  1.7123
  135SAPE   C1114570   5.005   5.127  10.559  0.7278 -0.2194 -0.2981
  135SAPE  H11A14571   5.094   5.156  10.499  1.7226  0.5114  1.4581
  135SAPE  H11B14572   4.914   5.165  10.508 -0.8502 -1.0378  1.7652
  135SAPE     P14573   4.868   4.922  10.649 -0.3594  0.0887  0.8032
  135SAPE   O1314574   4.892   4.844  10.769  0.4183 -0.5760 -0.2584
  135SAPE   O1414575   4.771   5.027  10.672 -0.0387  0.1344  0.3065
  135SAPE   O1214576   5.002   4.988  10.589  0.0538 -0.1362  0.3548
  135SAPE   O1114577   4.812   4.829  10.534  0.1406  0.0482  0.0708
  135SAPE    C114578   4.783   4.865  10.405  0.2373  0.1882 -0.1950
  135SAPE    HA14579   4.709   4.789  10.370 -0.7156  0.0043  2.0669
  135SAPE    HB14580   4.733   4.964  10.401 -1.0728 -0.4609 -0.7998
  135SAPE    C214581   4.912   4.869  10.313  0.2963  0.2093  0.1183
  135SAPE    HS14582   4.968   4.957  10.351  0.8247 -0.3455  0.6409
  135SAPE   O2114583   4.880   4.878  10.172  0.2845  0.2709  0.1211
  135SAPE   C2114584   4.869   5.000  10.123  0.1672  0.1453  0.2232
  135SAPE   O2214585   4.854   5.099  10.194  0.0581  0.1412 -0.2461
  135SAPE   C2214586   4.855   4.988   9.973  0.6328  0.3065 -0.3050
  135SAPE   H2R14587   4.932   4.916   9.936  0.5659  1.0466 -1.9942
  135SAPE   H2S14588   4.754   4.948   9.950  1.2705 -1.2249 -0.5559
  135SAPE    C314589   5.008   4.748  10.334  0.5395  0.9416 -0.0539
  135SAPE    HX14590   4.952   4.653  10.323  2.2018 -0.0314 -0.4220
  135SAPE    HY14591   5.032   4.755  10.443 -3.4370  2.5521  0.9036
  135SAPE   O3114592   5.107   4.760  10.235 -0.5680  0.3500  0.7783
  135SAPE   C3114593   5.201   4.844  10.253 -0.2163  0.0068 -0.2599
  135SAPE   O3214594   5.219   4.917  10.351  0.2005 -0.3177  0.2661
  135SAPE   C3214595   5.292   4.835  10.132 -0.8478  0.0673  0.2829
  135SAPE   H2X14596   5.222   4.841  10.046  0.7018  0.2051 -1.0162
  135SAPE   H2Y14597   5.337   4.734  10.140  0.6687  0.3776 -2.8707
  135SAPE   C2314598   4.859   5.123   9.890  0.3659  0.3969  0.9682
  135SAPE   H3R14599   4.945   5.189   9.914  0.8339 -0.3295  1.3445
  135SAPE   H3S14600   4.780   5.182   9.941  0.5765  1.2074  0.3623
  135SAPE   C2414601   4.848   5.105   9.743  0.1545  0.0830 -0.5199
  135SAPE   H4R14602   4.810   5.201   9.701 -2.0646  0.2925  1.7472
  135SAPE   H4S14603   4.766   5.038   9.710 -0.7533  2.3628 -3.4606
  135SAPE   C2514604   4.987   5.079   9.693  0.2055  0.0439  0.5960
  135SAPE   H5R14605   5.069   5.105   9.762  1.1719  0.0131 -0.5214
  135SAPE   C2614606   5.022   5.052   9.561  0.9667 -0.3264  0.4334
  135SAPE   H6R14607   5.123   5.018   9.534 -0.1580 -2.6037 -1.3690
  135SAPE   C2714608   4.927   5.033   9.446 -0.9622 -1.0580  0.3299
  135SAPE   H7R14609   4.963   5.084   9.355 -0.2229 -1.7295  0.2354
  135SAPE   H7S14610   4.826   5.073   9.471 -1.0002 -0.7167 -0.3724
  135SAPE   C2814611   4.909   4.887   9.416  0.5493  0.4577  0.2360
  135SAPE   H8R14612   4.820   4.848   9.467  0.0777  0.8086 -0.3047
  135SAPE   C2914613   4.995   4.817   9.332 -0.0287 -0.2979  0.4189
  135SAPE   H9R14614   4.966   4.720   9.289  0.9392 -1.4851  2.3453
  135SAPE  C21014615   5.110   4.882   9.259  0.1539  0.0515 -0.4978
  135SAPE  H10R14616   5.156   4.957   9.327 -0.8248 -1.5230  2.0344
  135SAPE  H10S14617   5.068   4.940   9.174  0.4971 -1.2811 -1.6156
  135SAPE  C21114618   5.200   4.777   9.198 -0.3892 -0.3292  0.0618
  135SAPE  H11R14619   5.291   4.751   9.254 -0.7646 -2.1961 -0.1264
  135SAPE  C21214620   5.194   4.701   9.085 -0.5635 -0.5212  0.2788
  135SAPE  H12R14621   5.266   4.619   9.075 -0.3857 -0.3348  0.0180
  135SAPE  C21314622   5.072   4.701   8.992  0.3395 -0.1721  0.0126
  135SAPE  H13R14623   4.977   4.720   9.047  0.1598  0.6276 -0.5555
  135SAPE  H13S14624   5.054   4.603   8.943 -1.6443 -0.1882  0.6749
  135SAPE  C21414625   5.078   4.807   8.879  0.1178  0.0035  0.5853
  135SAPE  H14R14626   4.993   4.877   8.875  0.1765  0.0593  0.2820
  135SAPE  C21514627   5.163   4.800   8.780 -0.0949 -0.3237  0.1533
  135SAPE  H15R14628   5.153   4.875   8.701 -0.4523 -1.6167 -1.0722
  135SAPE  C21614629   5.275   4.713   8.775  0.0300  0.5809 -0.6827
  135SAPE  H16R14630   5.249   4.612   8.816  1.0865  0.2629 -0.7669
  135SAPE  H16S14631   5.354   4.746   8.846 -0.3287  0.5317 -0.2543
  135SAPE  C21714632   5.342   4.702   8.642  0.3227 -0.2091 -0.1213
  135SAPE  H17R14633   5.436   4.642   8.638  0.1485 -0.4367 -1.2025
  135SAPE  H17S14634   5.376   4.798   8.597 -0.6604 -0.0494 -0.5641
  135SAPE  C21814635   5.251   4.644   8.530  0.1734  0.5077  0.4046
  135SAPE  H18R14636   5.173   4.714   8.493 -1.0215 -1.9102 -2.0227
  135SAPE  H18S14637   5.198   4.556   8.571  0.9799  0.3402  1.1155
  135SAPE  C21914638   5.325   4.591   8.398  0.1811  0.9014  0.6437
  135SAPE  H19R14639   5.253   4.585   8.313  0.0764 -3.8003  0.8240
  135SAPE  H19S14640   5.361   4.487   8.394  0.1597  0.9250 -1.6864
  135SAPE  C22014641   5.450   4.664   8.365 -0.1848  0.0424  0.1771
  135SAPE  H20R14642   5.527   4.650   8.443  0.3936 -2.3320 -0.7238
  135SAPE  H20S14643   5.424   4.772   8.355 -1.7474 -0.2553  0.6708
  135SAPE  H20T14644   5.502   4.630   8.273 -1.2433 -1.1293 -0.0131
  135SAPE   C3314645   5.405   4.938  10.137 -0.3545 -0.0189 -0.2518
  135SAPE   H3X14646   5.468   4.894  10.217 -0.6365 -0.9187 -0.5150
  135SAPE   H3Y14647   5.362   5.038  10.162 -0.4868  0.0248 -0.6378
  135SAPE   C3414648   5.491   4.938  10.008 -0.2262  0.4576  0.2342
  135SAPE   H4X14649   5.584   4.997  10.022  0.8184 -0.7944 -1.0277
  135SAPE   H4Y14650   5.434   4.987   9.926  0.9261  0.1178 -0.8123
  135SAPE   C3514651   5.537   4.794   9.959 -0.2431  0.6171 -0.3701
  135SAPE   H5X14652   5.444   4.741   9.929 -0.4263  0.7554 -0.0478
  135SAPE   H5Y14653   5.575   4.740  10.048 -0.9815 -0.3460 -0.6200
  135SAPE   C3614654   5.650   4.790   9.857 -0.7120 -0.1599 -0.4093
  135SAPE   H6X14655   5.731   4.849   9.905  0.5021 -0.4370 -2.0518
  135SAPE   H6Y14656   5.627   4.825   9.754 -3.1778  0.6446  0.3594
  135SAPE   C3714657   5.708   4.640   9.849  0.3606  0.6905  0.2892
  135SAPE   H7X14658   5.626   4.577   9.809  0.3081  1.0883 -0.2322
  135SAPE   H7Y14659   5.751   4.602   9.945  1.7239 -0.1098 -0.6093
  135SAPE   C3814660   5.825   4.617   9.748  0.0143 -0.8821  0.6195
  135SAPE   H8X14661   5.909   4.676   9.791 -0.1982 -1.7858  2.3755
  135SAPE   H8Y14662   5.786   4.667   9.657 -0.7682  0.6672  1.7499
  135SAPE   C3914663   5.856   4.475   9.714 -0.7139  0.3919  0.2090
  135SAPE   H9X14664   5.763   4.426   9.678  1.2131 -1.3333 -2.9065
  135SAPE   H9Y14665   5.901   4.419   9.798  2.9138  1.8214 -0.6001
  135SAPE  C31014666   5.971   4.474   9.606  0.7599  0.5133  0.6037
  135SAPE  H10X14667   6.009   4.370   9.590  0.6313  0.8052 -2.0116
  135SAPE  H10Y14668   6.044   4.548   9.645 -0.9431  2.9061 -0.5090
  135SAPE  C31114669   5.928   4.519   9.466  0.3193  0.7010 -0.5109
  135SAPE  H11X14670   5.897   4.625   9.454 -1.5232  0.1743 -0.6195
  135SAPE  H11Y14671   5.829   4.473   9.447  0.1379  0.0216  1.8429
  135SAPE  C31214672   6.038   4.488   9.363  0.3870 -0.0430 -0.4927
  135SAPE  H12X14673   6.080   4.385   9.363 -0.0225 -0.2367  1.3883
  135SAPE  H12Y14674   6.114   4.564   9.389 -1.1678  1.2080  0.5615
  135SAPE  C31314675   5.993   4.519   9.216 -0.0928  0.4341  0.0275
  135SAPE  H13X14676   5.933   4.431   9.186 -1.5343  1.1600  0.6822
  135SAPE  H13Y14677   6.088   4.516   9.158 -0.1935  1.1614 -0.1857
  135SAPE  C31414678   5.931   4.654   9.198  0.1166 -0.7040  0.5970
  135SAPE  H14X14679   5.994   4.731   9.246  0.1110  0.4894 -1.1845
  135SAPE  H14Y14680   5.834   4.650   9.253 -0.8886 -0.8316 -1.0798
  135SAPE  C31514681   5.919   4.698   9.057  0.6044  0.4774 -0.5746
  135SAPE  H15X14682   5.874   4.623   8.989 -1.8186  0.2478  1.1212
  135SAPE  H15Y14683   6.021   4.724   9.023  0.7213  0.9531  0.1183
  135SAPE  C31614684   5.844   4.833   9.038  0.0472 -0.0786 -0.3303
  135SAPE  H16X14685   5.853   4.872   8.934 -0.8330 -0.2000 -0.4601
  135SAPE  H16Y14686   5.893   4.896   9.116  1.3926 -0.8372 -0.5265
  135SAPE  C31714687   5.698   4.818   9.084 -1.0358  0.1576  0.3495
  135SAPE  H17X14688   5.701   4.797   9.193  0.7399 -3.2874 -0.2020
  135SAPE  H17Y14689   5.650   4.735   9.028  2.1060 -1.8840  0.4507
  135SAPE  C31814690   5.614   4.944   9.054  0.4803 -0.3694  0.7380
  135SAPE  H18X14691   5.510   4.936   9.091  0.2244 -0.6541 -0.0263
  135SAPE  H18Y14692   5.612   4.946   8.943  0.5468  0.4251  0.7421
  135SAPE  H18Z14693   5.661   5.035   9.097 -0.6734  1.6646 -2.0288
  136SAPE     N14694   2.834   4.408  10.783  0.4961  0.2398 -0.6475
  136SAPE   HN114695   2.929   4.396  10.742 -0.2137  0.3546 -2.4440
  136SAPE   HN214696   2.795   4.326  10.834  1.6720 -0.5765 -1.0294
  136SAPE   HN314697   2.769   4.444  10.710 -0.0553 -0.3467 -0.4571
  136SAPE   C1214698   2.877   4.519  10.879 -0.4709  1.0305 -0.4936
  136SAPE  H12A14699   2.974   4.562  10.844 -0.5533  0.8786 -0.9104
  136SAPE  H12B14700   2.894   4.470  10.977 -1.3609 -0.5407 -1.0971
  136SAPE   C1114701   2.785   4.639  10.891  0.7805 -0.3805  0.2617
  136SAPE  H11A14702   2.822   4.722  10.827 -0.4112  0.8734  1.1307
  136SAPE  H11B14703   2.787   4.675  10.996  0.9355  1.5425 -0.3681
  136SAPE     P14704   2.526   4.607  10.945  0.4484 -0.5470 -0.7700
  136SAPE   O1314705   2.561   4.572  11.087 -0.0990 -0.2870 -0.4653
  136SAPE   O1414706   2.472   4.746  10.931 -0.1526  0.2571 -0.0079
  136SAPE   O1214707   2.656   4.600  10.853  0.0440 -0.6507  0.2244
  136SAPE   O1114708   2.418   4.502  10.888 -0.2423  0.4253 -0.3346
  136SAPE    C114709   2.469   4.381  10.827 -0.7858  0.0135  0.2319
  136SAPE    HA14710   2.578   4.383  10.808 -0.8739  1.2395 -0.2753
  136SAPE    HB14711   2.447   4.287  10.882  0.7223 -1.3690 -1.3966
  136SAPE    C214712   2.402   4.368  10.691  1.0398 -0.4028 -0.7937
  136SAPE    HS14713   2.458   4.288  10.637  0.6082 -0.4463 -1.1901
  136SAPE   O2114714   2.406   4.490  10.617  0.1648  0.0067 -0.4642
  136SAPE   C2114715   2.528   4.525  10.565  0.3561 -0.6675  0.3948
  136SAPE   O2214716   2.630   4.459  10.573 -0.2440  0.2454  0.3857
  136SAPE   C2214717   2.524   4.669  10.518  0.2134 -0.1913  0.1277
  136SAPE   H2R14718   2.480   4.729  10.600 -1.4348  0.3194 -1.0651
  136SAPE   H2S14719   2.627   4.709  10.502 -0.3993  1.2431 -0.4373
  136SAPE    C314720   2.249   4.340  10.704 -0.5141  0.6234  0.1088
  136SAPE    HX14721   2.202   4.422  10.763 -0.7772  0.4898  0.0874
  136SAPE    HY14722   2.247   4.251  10.772  0.1691  2.8889  3.3210
  136SAPE   O3114723   2.193   4.310  10.580  0.1373 -0.0172 -0.0481
  136SAPE   C3114724   2.149   4.413  10.512  0.0906  0.1510 -0.6869
  136SAPE   O3214725   2.121   4.523  10.560  0.3091  0.0903 -0.1185
  136SAPE   C3214726   2.122   4.366  10.367  0.7555 -0.1737 -0.1203
  136SAPE   H2X14727   2.036   4.297  10.379 -0.7452  1.9454  2.5543
  136SAPE   H2Y14728   2.211   4.305  10.340 -0.4828 -2.1998  0.1674
  136SAPE   C2314729   2.428   4.685  10.399 -0.7755  0.4369 -0.0000
  136SAPE   H3R14730   2.352   4.764  10.419  0.5730  2.4734 -2.3266
  136SAPE   H3S14731   2.385   4.586  10.375  1.5396 -0.1860 -1.8813
  136SAPE   C2414732   2.499   4.734  10.267  0.2497  0.2411  0.1858
  136SAPE   H4R14733   2.594   4.677  10.254 -0.6662 -2.0761  2.7225
  136SAPE   H4S14734   2.529   4.840  10.280  0.0119  0.4246 -0.7266
  136SAPE   C2514735   2.423   4.736  10.138  0.8115  0.0723  0.0234
  136SAPE   H5R14736   2.333   4.799  10.140  0.7817  0.1639 -1.9600
  136SAPE   C2614737   2.464   4.680  10.022 -0.3794 -0.3293 -0.6450
  136SAPE   H6R14738   2.391   4.687   9.940  0.3853  0.8486 -1.2704
  136SAPE   C2714739   2.600   4.611   9.993  0.8516  0.2163 -0.1749
  136SAPE   H7R14740   2.584   4.504  10.019 -0.3418  0.4044 -0.0820
  136SAPE   H7S14741   2.674   4.645  10.068 -0.6109  0.6230  1.1339
  136SAPE   C2814742   2.635   4.632   9.842 -1.0182  0.1747 -0.3761
  136SAPE   H8R14743   2.722   4.696   9.823 -1.3577  1.2735  1.5478
  136SAPE   C2914744   2.569   4.581   9.737  0.3704  0.2470  0.4844
  136SAPE   H9R14745   2.616   4.593   9.639  2.2568 -0.0044  1.3088
  136SAPE  C21014746   2.445   4.497   9.746  0.5416 -0.0154 -0.4238
  136SAPE  H10R14747   2.356   4.560   9.729 -0.7818 -1.7567 -0.1869
  136SAPE  H10S14748   2.433   4.473   9.854  0.0993  3.1243  0.3467
  136SAPE  C21114749   2.453   4.372   9.668 -0.8246 -0.5346 -0.2805
  136SAPE  H11R14750   2.496   4.291   9.729  0.3743  0.8723  0.8347
  136SAPE  C21214751   2.424   4.355   9.535 -0.3755 -0.4963  0.8687
  136SAPE  H12R14752   2.440   4.258   9.484  1.9375  0.1494  0.2601
  136SAPE  C21314753   2.390   4.471   9.436 -0.3080  1.1140 -0.4339
  136SAPE  H13R14754   2.397   4.563   9.497  1.4897 -1.1059  2.9922
  136SAPE  H13S14755   2.283   4.458   9.406 -0.3880 -1.9033  0.8061
  136SAPE  C21414756   2.470   4.477   9.309  0.7215  0.3895 -0.1272
  136SAPE  H14R14757   2.540   4.394   9.292 -0.9347 -0.8998 -0.7977
  136SAPE  C21514758   2.459   4.568   9.210  0.9774 -0.3914  0.2618
  136SAPE  H15R14759   2.518   4.562   9.118 -1.0478 -1.0530 -1.0446
  136SAPE  C21614760   2.373   4.688   9.216  0.2932 -0.5213  0.0410
  136SAPE  H16R14761   2.435   4.775   9.247 -0.4351  0.3818 -0.9238
  136SAPE  H16S14762   2.287   4.680   9.286  0.5193  0.3654  0.4433
  136SAPE  C21714763   2.325   4.717   9.079  0.8609  0.3229  0.2414
  136SAPE  H17R14764   2.278   4.627   9.034  1.1639  0.0274  0.5122
  136SAPE  H17S14765   2.416   4.748   9.023  0.5884 -1.1205 -1.0576
  136SAPE  C21814766   2.220   4.832   9.057 -0.9056  1.1071 -0.1979
  136SAPE  H18R14767   2.258   4.925   9.103 -1.6584  1.3029  0.0437
  136SAPE  H18S14768   2.124   4.809   9.108 -0.6970 -0.0968 -0.3205
  136SAPE  C21914769   2.186   4.866   8.911  0.3698  0.0270 -1.1565
  136SAPE  H19R14770   2.107   4.944   8.912  1.5065  1.2007  0.1507
  136SAPE  H19S14771   2.154   4.779   8.849  1.6181 -1.5098  0.2573
  136SAPE  C22014772   2.307   4.925   8.847 -0.1301 -0.9365  0.0861
  136SAPE  H20R14773   2.342   5.002   8.919 -2.2555  0.8280 -0.6662
  136SAPE  H20S14774   2.283   4.966   8.747 -1.3327 -0.2114  0.6475
  136SAPE  H20T14775   2.385   4.845   8.850 -0.2368 -1.0478  3.5754
  136SAPE   C3314776   2.083   4.472  10.270  1.0426  0.1545  0.1741
  136SAPE   H3X14777   2.165   4.547  10.268  0.5939  0.6469 -0.1652
  136SAPE   H3Y14778   1.998   4.540  10.290  1.5940  1.4715 -1.6330
  136SAPE   C3414779   2.059   4.415  10.130 -0.3298  0.2321 -0.3427
  136SAPE   H4X14780   1.971   4.347  10.125 -1.4749  1.6359 -0.0331
  136SAPE   H4Y14781   2.143   4.350  10.099 -0.8619 -0.5657 -0.1669
  136SAPE   C3514782   2.038   4.519  10.031 -0.1856  0.2279  0.0037
  136SAPE   H5X14783   2.127   4.584  10.043  0.7335 -0.5914 -1.9605
  136SAPE   H5Y14784   1.945   4.575  10.054  1.0985  2.6646 -0.4126
  136SAPE   C3614785   2.046   4.455   9.893 -0.1088 -0.4989  0.1581
  136SAPE   H6X14786   1.975   4.373   9.870 -0.1918 -0.6217  0.8306
  136SAPE   H6Y14787   2.150   4.420   9.874  0.7161  1.6283  0.4481
  136SAPE   C3714788   2.013   4.556   9.788 -0.2429 -0.8339  0.0392
  136SAPE   H7X14789   2.070   4.647   9.815  0.6165 -1.4318  0.2748
  136SAPE   H7Y14790   1.907   4.586   9.802 -0.8289 -2.4936 -0.5401
  136SAPE   C3814791   2.047   4.524   9.646 -0.0781  0.2181  0.5158
  136SAPE   H8X14792   1.993   4.428   9.632  0.5993 -0.1439  0.3177
  136SAPE   H8Y14793   2.155   4.499   9.636 -0.5952 -1.4593 -1.7978
  136SAPE   C3914794   2.007   4.628   9.541  0.2724 -0.0210  0.4048
  136SAPE   H9X14795   2.081   4.711   9.544  1.2268 -0.7615 -1.4088
  136SAPE   H9Y14796   1.910   4.671   9.575 -1.3281 -1.6866 -1.8006
  136SAPE  C31014797   1.993   4.569   9.405 -0.5022 -0.3686  0.1951
  136SAPE  H10X14798   1.926   4.480   9.408 -2.1741  0.7331 -1.4554
  136SAPE  H10Y14799   2.094   4.545   9.367 -1.0049 -0.8061 -0.9210
  136SAPE  C31114800   1.914   4.660   9.311 -0.2259 -0.1175  0.3158
  136SAPE  H11X14801   1.937   4.768   9.306 -2.2463  0.3910  0.7600
  136SAPE  H11Y14802   1.807   4.661   9.344  0.0739 -1.1315  1.3897
  136SAPE  C31214803   1.931   4.605   9.167 -0.2561  0.0677  0.6471
  136SAPE  H12X14804   1.895   4.500   9.173  0.2688 -0.0730  1.5258
  136SAPE  H12Y14805   2.039   4.596   9.143 -0.6381 -1.4053 -0.6453
  136SAPE  C31314806   1.853   4.683   9.059  0.5317  0.0415  0.1575
  136SAPE  H13X14807   1.883   4.789   9.074 -0.1850  0.6558 -2.2178
  136SAPE  H13Y14808   1.747   4.665   9.087  0.5547 -1.0530 -0.4040
  136SAPE  C31414809   1.861   4.643   8.912 -0.4275  0.4139  0.3993
  136SAPE  H14X14810   1.968   4.648   8.881 -0.3697  2.4513  0.7871
  136SAPE  H14Y14811   1.818   4.721   8.846 -1.4306 -2.0698 -2.0720
  136SAPE  C31514812   1.814   4.501   8.879 -1.0239 -0.3336 -0.1692
  136SAPE  H15X14813   1.851   4.433   8.959  1.7893  2.7772  1.4751
  136SAPE  H15Y14814   1.851   4.474   8.778  0.8710  0.1207  0.3590
  136SAPE  C31614815   1.662   4.489   8.873  0.1263 -0.7454 -0.4130
  136SAPE  H16X14816   1.617   4.564   8.806 -0.6308  0.7864  1.7055
  136SAPE  H16Y14817   1.617   4.498   8.974 -0.9574 -0.1811 -0.9407
  136SAPE  C31714818   1.622   4.341   8.841  0.5635  0.2323 -0.3410
  136SAPE  H17X14819   1.626   4.281   8.935 -1.1403  0.4947 -0.0613
  136SAPE  H17Y14820   1.699   4.297   8.773 -0.6388  0.2607 -1.7771
  136SAPE  C31814821   1.479   4.324   8.775 -0.7724  0.4136  0.1623
  136SAPE  H18X14822   1.470   4.398   8.692 -0.1078 -0.6143 -0.8568
  136SAPE  H18Y14823   1.400   4.357   8.846 -0.7834  1.5294 -0.3346
  136SAPE  H18Z14824   1.474   4.220   8.738 -0.0325  0.4682 -0.1018
  137SAPE     N14825   0.206   3.099  11.169 -0.4420 -0.0146  0.4867
  137SAPE   HN114826   0.232   3.034  11.245  2.8064 -1.2667 -1.5154
  137SAPE   HN214827   0.102   3.103  11.158 -0.2919  1.1925 -0.8235
  137SAPE   HN314828   0.243   3.054  11.083  0.5376  0.2783  0.7435
  137SAPE   C1214829   0.248   3.240  11.192 -0.4862  0.4872  0.1877
  137SAPE  H12A14830   0.324   3.282  11.123 -1.5000  1.1213 -0.5647
  137SAPE  H12B14831   0.299   3.240  11.291  1.1718  0.3586 -0.6241
  137SAPE   C1114832   0.123   3.325  11.176 -0.0304  0.0673  0.6880
  137SAPE  H11A14833   0.162   3.419  11.220  1.4657 -1.8222  3.7873
  137SAPE  H11B14834   0.040   3.293  11.243  0.2264 -1.1966  0.4341
  137SAPE     P14835   0.063   3.452  10.950 -0.3388  0.0148 -0.1267
  137SAPE   O1314836  -0.054   3.435  10.865  0.4821  0.4937 -0.0382
  137SAPE   O1414837   0.085   3.578  11.025  0.0363  0.5218 -0.3198
  137SAPE   O1214838   0.077   3.320  11.041 -0.3391 -0.3483 -0.1882
  137SAPE   O1114839   0.192   3.438  10.858  0.8750 -0.1603 -0.0431
  137SAPE    C114840   0.223   3.308  10.797  0.2527  0.0355 -0.0340
  137SAPE    HA14841   0.312   3.263  10.848 -0.1303 -0.0639  0.5587
  137SAPE    HB14842   0.140   3.235  10.796  0.1376  0.1720 -0.4589
  137SAPE    C214843   0.267   3.330  10.654 -0.4092 -0.1537 -0.8544
  137SAPE    HS14844   0.343   3.411  10.657 -2.3331  1.7089  0.5573
  137SAPE   O2114845   0.164   3.360  10.557  0.2870  0.1646  0.3301
  137SAPE   C2114846   0.137   3.487  10.555  0.1328 -0.3185 -0.4766
  137SAPE   O2214847   0.217   3.575  10.575  0.2302  0.3547  0.4021
  137SAPE   C2214848  -0.010   3.510  10.504  0.2696  0.1737 -0.6774
  137SAPE   H2R14849  -0.081   3.429  10.533 -0.1048  0.6960 -0.1348
  137SAPE   H2S14850  -0.042   3.595  10.566 -0.1849 -1.5890  1.6299
  137SAPE    C314851   0.338   3.204  10.592 -0.2681 -0.3062  0.3622
  137SAPE    HX14852   0.263   3.126  10.567  1.2735 -1.1966 -1.7378
  137SAPE    HY14853   0.405   3.161  10.670  0.4801  1.0682  0.5073
  137SAPE   O3114854   0.418   3.234  10.481  0.0478 -0.5609  0.3714
  137SAPE   C3114855   0.541   3.275  10.501 -0.4205 -0.4288 -1.0233
  137SAPE   O3214856   0.595   3.287  10.613 -0.6068 -0.5896 -0.2593
  137SAPE   C3214857   0.598   3.317  10.375 -0.7552 -0.1318 -0.1267
  137SAPE   H2X14858   0.647   3.224  10.337 -0.8745 -0.0506 -0.4777
  137SAPE   H2Y14859   0.683   3.386  10.393  0.5677 -1.4798 -0.9047
  137SAPE   C2314860  -0.022   3.533  10.349 -0.3820  0.1024 -0.2396
  137SAPE   H3R14861   0.039   3.625  10.336 -0.3164 -0.0668 -1.2271
  137SAPE   H3S14862  -0.129   3.544  10.323 -0.3105 -0.2331 -0.6916
  137SAPE   C2414863   0.032   3.421  10.260  0.0508  0.1334 -0.1872
  137SAPE   H4R14864   0.143   3.419  10.258  0.1299  2.5712 -0.6385
  137SAPE   H4S14865   0.011   3.446  10.154 -2.1632 -2.1073 -0.3660
  137SAPE   C2514866  -0.031   3.294  10.302 -0.5439  0.9342  0.2966
  137SAPE   H5R14867  -0.006   3.269  10.406  0.0620  1.5341  0.3036
  137SAPE   C2614868  -0.113   3.213  10.233 -1.0920 -0.2200 -0.2050
  137SAPE   H6R14869  -0.150   3.117  10.272 -0.3788 -0.6160 -0.4857
  137SAPE   C2714870  -0.153   3.236  10.094  0.0155 -0.4648  0.0948
  137SAPE   H7R14871  -0.061   3.238  10.032 -1.7241  0.4131 -2.6583
  137SAPE   H7S14872  -0.181   3.343  10.085  0.3900 -0.2289  1.5036
  137SAPE   C2814873  -0.268   3.159  10.040  0.7284 -0.2473 -0.6125
  137SAPE   H8R14874  -0.326   3.094  10.107  0.5546  0.8857  0.3818
  137SAPE   C2914875  -0.312   3.149   9.916  0.3336 -0.1497  0.0654
  137SAPE   H9R14876  -0.403   3.090   9.901  0.9098 -1.3455  1.0820
  137SAPE  C21014877  -0.260   3.218   9.794  0.4143 -0.2561  0.1233
  137SAPE  H10R14878  -0.201   3.308   9.822 -0.0815 -0.5416  2.2594
  137SAPE  H10S14879  -0.344   3.270   9.743  3.3627  1.4616 -3.4705
  137SAPE  C21114880  -0.189   3.117   9.704 -0.7601 -0.1462 -0.9365
  137SAPE  H11R14881  -0.115   3.057   9.760 -0.5380 -1.0273 -2.1335
  137SAPE  C21214882  -0.207   3.107   9.569 -0.7176  0.5705 -0.3613
  137SAPE  H12R14883  -0.148   3.026   9.524 -2.0691 -0.5708 -0.1355
  137SAPE  C21314884  -0.305   3.174   9.476  0.3879  0.1539 -0.0216
  137SAPE  H13R14885  -0.396   3.196   9.536  0.3339  2.0443 -0.7088
  137SAPE  H13S14886  -0.328   3.101   9.396  1.8206  0.1166 -0.4343
  137SAPE  C21414887  -0.252   3.317   9.437  0.1079  0.3509 -0.1863
  137SAPE  H14R14888  -0.266   3.398   9.510  2.7574  0.6594  0.0676
  137SAPE  C21514889  -0.195   3.351   9.318  0.8505  0.4498 -0.0377
  137SAPE  H15R14890  -0.177   3.460   9.309  1.1839  0.5041  1.1464
  137SAPE  C21614891  -0.177   3.250   9.204  0.6489 -0.2507 -0.1707
  137SAPE  H16R14892  -0.168   3.147   9.245 -0.6945  0.3773  1.8462
  137SAPE  H16S14893  -0.091   3.279   9.141 -1.8171 -0.2086 -3.8663
  137SAPE  C21714894  -0.309   3.238   9.116 -0.4756 -0.7424  0.1457
  137SAPE  H17R14895  -0.345   3.341   9.094 -1.3343 -1.1144 -0.2615
  137SAPE  H17S14896  -0.387   3.188   9.179 -0.9837  0.1387  0.2399
  137SAPE  C21814897  -0.288   3.163   8.988  0.3702  0.3682 -0.1801
  137SAPE  H18R14898  -0.232   3.072   9.018  0.0463  0.2005 -0.0792
  137SAPE  H18S14899  -0.225   3.218   8.915  0.1917  1.6750  0.5999
  137SAPE  C21914900  -0.416   3.126   8.917  0.1441  0.2155  0.1597
  137SAPE  H19R14901  -0.491   3.091   8.992 -1.9233  1.4181 -1.2433
  137SAPE  H19S14902  -0.393   3.047   8.843  1.5621 -0.9835  1.7909
  137SAPE  C22014903  -0.479   3.252   8.846 -0.5849  0.1868 -0.6263
  137SAPE  H20R14904  -0.568   3.227   8.784  0.0673 -0.2967 -1.3964
  137SAPE  H20S14905  -0.410   3.292   8.768 -0.5932  1.9032  0.2163
  137SAPE  H20T14906  -0.508   3.327   8.922 -0.6792 -0.2850 -0.1908
  137SAPE   C3314907   0.506   3.366  10.262  0.3662 -0.2584  0.3746
  137SAPE   H3X14908   0.452   3.451  10.309  0.7141  0.3815 -0.3670
  137SAPE   H3Y14909   0.436   3.288  10.225 -3.1626  1.8018  2.1421
  137SAPE   C3414910   0.584   3.409  10.141  0.2502  0.0119  0.9988
  137SAPE   H4X14911   0.684   3.448  10.172  0.5739  0.6500 -0.7048
  137SAPE   H4Y14912   0.542   3.495  10.085  1.4148 -0.3800 -0.5421
  137SAPE   C3514913   0.597   3.303  10.034  0.3854 -0.5458  0.5111
  137SAPE   H5X14914   0.495   3.259  10.023  0.3962 -0.8217  1.4062
  137SAPE   H5Y14915   0.658   3.214  10.061  0.7838 -1.6906 -3.4912
  137SAPE   C3614916   0.638   3.350   9.888 -0.2627  0.2157  0.2987
  137SAPE   H6X14917   0.745   3.381   9.891 -0.0474 -0.5179  0.2433
  137SAPE   H6Y14918   0.571   3.435   9.861 -0.0895 -0.0589 -1.0459
  137SAPE   C3714919   0.625   3.235   9.785  0.5613 -0.0095 -0.4169
  137SAPE   H7X14920   0.520   3.199   9.782  0.6720 -0.7760  2.3349
  137SAPE   H7Y14921   0.677   3.148   9.830  0.9260  1.0344  1.2485
  137SAPE   C3814922   0.672   3.281   9.648  0.5031  0.3474  0.1804
  137SAPE   H8X14923   0.783   3.290   9.643  0.4595  1.6856  1.0110
  137SAPE   H8Y14924   0.625   3.376   9.616 -1.9385 -0.3671  1.4098
  137SAPE   C3914925   0.634   3.173   9.544  0.2287  0.2021  0.7718
  137SAPE   H9X14926   0.525   3.170   9.524  0.5235  0.1964 -0.9994
  137SAPE   H9Y14927   0.657   3.073   9.587 -0.5614  0.5311  2.0254
  137SAPE  C31014928   0.712   3.195   9.414  0.2222  0.4256  0.5193
  137SAPE  H10X14929   0.819   3.197   9.442 -0.3735  2.3066  3.0249
  137SAPE  H10Y14930   0.667   3.290   9.376 -2.9607 -1.7550 -1.7311
  137SAPE  C31114931   0.691   3.090   9.307  0.7334  0.1376 -0.2320
  137SAPE  H11X14932   0.738   2.996   9.342 -0.0973  0.9957  3.6339
  137SAPE  H11Y14933   0.746   3.119   9.215 -1.5661 -1.4031 -2.2338
  137SAPE  C31214934   0.540   3.065   9.274 -0.0027 -0.5647 -0.6476
  137SAPE  H12X14935   0.489   3.160   9.246  3.1072  1.5437  0.3256
  137SAPE  H12Y14936   0.493   3.017   9.362  0.5576 -0.1989 -0.1410
  137SAPE  C31314937   0.524   2.961   9.164 -0.6479  0.1999  0.0312
  137SAPE  H13X14938   0.415   2.969   9.144 -0.7151  1.5409  0.8211
  137SAPE  H13Y14939   0.560   2.863   9.202 -1.1770 -0.6121 -1.4649
  137SAPE  C31414940   0.598   2.995   9.028 -1.1157  0.3025 -0.2518
  137SAPE  H14X14941   0.704   2.963   9.030 -1.0456  0.2756 -2.2756
  137SAPE  H14Y14942   0.596   3.105   9.011 -2.3223  0.3714  0.2126
  137SAPE  C31514943   0.533   2.924   8.909  0.0521  0.7275  0.1572
  137SAPE  H15X14944   0.423   2.934   8.919  0.1314  0.9157  0.8737
  137SAPE  H15Y14945   0.553   2.815   8.912 -2.4653  0.2351  1.0815
  137SAPE  C31614946   0.577   2.975   8.773 -0.2479  1.0495  0.1223
  137SAPE  H16X14947   0.538   2.905   8.696 -1.5458  2.3853 -0.4995
  137SAPE  H16Y14948   0.687   2.985   8.765 -0.0103  0.1327  1.8792
  137SAPE  C31714949   0.526   3.109   8.731 -0.1755 -0.1028  0.4028
  137SAPE  H17X14950   0.562   3.186   8.804 -0.5365  0.7857 -0.3377
  137SAPE  H17Y14951   0.417   3.113   8.752 -0.5157 -0.6998 -1.1405
  137SAPE  C31814952   0.558   3.148   8.584  0.0277 -0.1705 -0.0101
  137SAPE  H18X14953   0.664   3.171   8.562 -0.2654  1.7216  0.4401
  137SAPE  H18Y14954   0.490   3.230   8.554 -0.6766 -0.5311  0.5490
  137SAPE  H18Z14955   0.532   3.065   8.515 -1.0875 -0.5965  0.8816
  138SAPE     N14956   1.794   0.018  11.099 -0.1470  0.0135  0.3699
  138SAPE   HN114957   1.758   0.107  11.139  1.5331  1.3097 -0.8720
  138SAPE   HN214958   1.745  -0.060  11.149 -0.5182 -0.3681 -0.5640
  138SAPE   HN314959   1.894   0.007  11.124 -0.1810  0.0962  0.5459
  138SAPE   C1214960   1.772   0.016  10.953  0.3034  0.4963 -0.1995
  138SAPE  H12A14961   1.839  -0.061  10.910  1.3984  2.3762 -2.0556
  138SAPE  H12B14962   1.809   0.110  10.907 -1.9963  1.5146 -0.1363
  138SAPE   C1114963   1.626  -0.010  10.921 -0.0495  0.5624 -0.4825
  138SAPE  H11A14964   1.607   0.009  10.814  0.2243  1.2301 -0.4123
  138SAPE  H11B14965   1.568   0.069  10.972 -1.0435 -1.4755  1.7493
  138SAPE     P14966   1.601  -0.261  10.889 -0.4049  0.4864 -0.4454
  138SAPE   O1314967   1.729  -0.334  10.925  0.5052 -0.6790 -0.4468
  138SAPE   O1414968   1.474  -0.335  10.910  0.3640 -0.0820 -0.4050
  138SAPE   O1214969   1.575  -0.130  10.972  0.2155  0.2403 -0.1127
  138SAPE   O1114970   1.608  -0.206  10.749  0.5145  0.2726  0.3136
  138SAPE    C114971   1.525  -0.259  10.641  0.3674  0.5957  0.0260
  138SAPE    HA14972   1.418  -0.267  10.668  0.6517 -0.4709  0.9004
  138SAPE    HB14973   1.543  -0.188  10.557  1.2677  1.4207  0.8795
  138SAPE    C214974   1.572  -0.397  10.587  0.1916 -0.4736 -0.4300
  138SAPE    HS14975   1.573  -0.467  10.673  0.7970 -0.6434 -0.5729
  138SAPE   O2114976   1.698  -0.374  10.525 -0.0541  0.2079 -0.4501
  138SAPE   C2114977   1.775  -0.481  10.529 -0.2657  0.1387  0.7761
  138SAPE   O2214978   1.739  -0.582  10.582 -0.4342 -0.1468  0.6574
  138SAPE   C2214979   1.898  -0.444  10.441 -0.5118 -0.4822  0.3778
  138SAPE   H2R14980   1.869  -0.418  10.337  1.7979 -0.8155 -0.4164
  138SAPE   H2S14981   1.955  -0.354  10.472  1.0449 -0.8604 -1.2305
  138SAPE    C314982   1.472  -0.456  10.481 -0.2612 -0.1330  0.2354
  138SAPE    HX14983   1.376  -0.476  10.534  0.6546 -0.6246  1.7810
  138SAPE    HY14984   1.503  -0.560  10.456 -2.9587 -1.5803  2.3499
  138SAPE   O3114985   1.452  -0.362  10.372 -1.1056 -0.0100 -0.5730
  138SAPE   C3114986   1.528  -0.381  10.268 -0.1933  0.3055 -0.2980
  138SAPE   O3214987   1.580  -0.488  10.231 -0.0282 -0.0053 -0.8780
  138SAPE   C3214988   1.548  -0.247  10.193 -0.3712 -0.3119 -0.0606
  138SAPE   H2X14989   1.570  -0.180  10.279 -1.3493 -0.6996  0.5043
  138SAPE   H2Y14990   1.449  -0.214  10.155 -0.5660  0.3596  0.9660
  138SAPE   C2314991   1.992  -0.565  10.428  0.5090  0.5149  0.4217
  138SAPE   H3R14992   2.017  -0.602  10.530 -0.3151  2.1070  1.2446
  138SAPE   H3S14993   2.087  -0.533  10.380  0.1772 -0.9759 -1.3501
  138SAPE   C2414994   1.944  -0.669  10.324  0.7060  0.9715  0.0760
  138SAPE   H4R14995   1.851  -0.718  10.360  0.5726  0.7126 -0.6113
  138SAPE   H4S14996   2.023  -0.746  10.307  0.0334  0.5868 -1.4523
  138SAPE   C2514997   1.912  -0.615  10.186 -0.1670  0.2893  0.4583
  138SAPE   H5R14998   1.806  -0.603  10.159  0.1470 -0.8843 -1.4657
  138SAPE   C2614999   2.005  -0.597  10.093 -0.1937 -0.9352  0.2015
  138SAPE   H6R15000   1.956  -0.567   9.999  1.0161  1.5016  0.2771
  138SAPE   C2715001   2.158  -0.611  10.084 -0.9197  0.4870 -0.1116
  138SAPE   H7R15002   2.199  -0.655  10.177  0.7109 -0.0240 -1.0237
  138SAPE   H7S15003   2.200  -0.508  10.072 -1.2756  0.8130  1.2512
  138SAPE   C2815004   2.190  -0.703   9.970  0.3040  0.4101 -0.2235
  138SAPE   H8R15005   2.102  -0.763   9.941  0.9622 -2.2876  2.8834
  138SAPE   C2915006   2.294  -0.699   9.893  0.0837 -0.3151 -0.2053
  138SAPE   H9R15007   2.301  -0.780   9.819 -0.7830 -0.2528 -0.3732
  138SAPE  C21015008   2.410  -0.604   9.904  0.1973 -0.6593  0.0845
  138SAPE  H10R15009   2.417  -0.545   9.997 -1.9709 -0.0426 -0.0826
  138SAPE  H10S15010   2.384  -0.525   9.829 -0.5484  2.7620  3.6342
  138SAPE  C21115011   2.547  -0.669   9.885 -0.3041  0.3659  0.0552
  138SAPE  H11R15012   2.592  -0.723   9.969 -1.2871 -0.1652  0.2566
  138SAPE  C21215013   2.609  -0.683   9.773  0.5901  0.1475  0.4385
  138SAPE  H12R15014   2.713  -0.716   9.782  0.6704 -0.1094 -1.0935
  138SAPE  C21315015   2.577  -0.627   9.638  0.6256  0.0987 -0.2270
  138SAPE  H13R15016   2.605  -0.519   9.636 -1.5252  0.7222  0.0328
  138SAPE  H13S15017   2.469  -0.619   9.613  1.2346  1.1996 -2.9727
  138SAPE  C21415018   2.647  -0.715   9.532 -0.1538 -0.0805 -0.4410
  138SAPE  H14R15019   2.625  -0.822   9.539 -0.9991 -0.0849 -2.5083
  138SAPE  C21515020   2.735  -0.680   9.440 -0.2187  0.7289 -0.1548
  138SAPE  H15R15021   2.757  -0.759   9.367  0.7870  1.6854 -0.9192
  138SAPE  C21615022   2.785  -0.541   9.406  0.0974 -0.9039 -0.3266
  138SAPE  H16R15023   2.887  -0.522   9.446  0.3064  0.9721 -1.6115
  138SAPE  H16S15024   2.722  -0.467   9.461 -0.0140 -2.9203  2.4741
  138SAPE  C21715025   2.789  -0.497   9.259 -0.7934  0.7080 -0.3081
  138SAPE  H17R15026   2.872  -0.550   9.207 -0.1309  2.5432 -1.2288
  138SAPE  H17S15027   2.826  -0.392   9.264  1.6702 -0.1675  1.8852
  138SAPE  C21815028   2.652  -0.505   9.199  0.4005  0.3762 -0.0088
  138SAPE  H18R15029   2.572  -0.453   9.257  1.0544 -0.1375  1.4029
  138SAPE  H18S15030   2.617  -0.611   9.195  1.4784  0.0117 -0.0883
  138SAPE  C21915031   2.657  -0.452   9.058  0.2570 -0.2293  0.1322
  138SAPE  H19R15032   2.718  -0.359   9.060  0.3871 -0.2285 -1.7636
  138SAPE  H19S15033   2.557  -0.412   9.031 -0.0201 -1.0916 -0.1681
  138SAPE  C22015034   2.714  -0.537   8.949 -0.4306 -0.1210  0.5243
  138SAPE  H20R15035   2.646  -0.616   8.912 -1.9946  2.0161 -1.4837
  138SAPE  H20S15036   2.809  -0.581   8.986 -1.5133 -2.9855  0.1578
  138SAPE  H20T15037   2.747  -0.474   8.864 -1.1955 -0.0334  0.2878
  138SAPE   C3315038   1.644  -0.243  10.075  0.0821 -0.5877 -0.9263
  138SAPE   H3X15039   1.747  -0.264  10.111 -0.0413  0.0034 -0.1975
  138SAPE   H3Y15040   1.651  -0.137  10.044  0.2691  0.0734  1.2009
  138SAPE   C3415041   1.595  -0.331   9.958 -0.6304  0.3547  0.8233
  138SAPE   H4X15042   1.493  -0.306   9.922  0.2112  0.2484 -1.8761
  138SAPE   H4Y15043   1.585  -0.438   9.986  2.1886 -0.8465 -2.1673
  138SAPE   C3515044   1.685  -0.315   9.840 -0.3463  0.2984  0.1249
  138SAPE   H5X15045   1.794  -0.317   9.866  0.4620 -0.1551 -2.9238
  138SAPE   H5Y15046   1.657  -0.219   9.793 -0.8243  0.3437  0.4959
  138SAPE   C3615047   1.661  -0.424   9.735  0.0532  0.0177 -0.0847
  138SAPE   H6X15048   1.569  -0.397   9.679  0.3471 -0.1600 -0.6646
  138SAPE   H6Y15049   1.667  -0.526   9.778 -0.9708  0.5670  1.4059
  138SAPE   C3715050   1.773  -0.406   9.623 -0.5672  0.4647 -0.7367
  138SAPE   H7X15051   1.774  -0.298   9.598 -3.7647  0.7664 -0.0062
  138SAPE   H7Y15052   1.736  -0.453   9.529  2.1269 -2.6917 -0.4087
  138SAPE   C3815053   1.906  -0.461   9.661 -0.4108  0.0827 -0.0758
  138SAPE   H8X15054   1.899  -0.532   9.747 -2.7322 -0.3695 -0.5797
  138SAPE   H8Y15055   1.982  -0.387   9.693  0.5454 -1.2820  0.9497
  138SAPE   C3915056   1.972  -0.530   9.547 -0.7100  0.0156 -0.2513
  138SAPE   H9X15057   1.966  -0.465   9.457 -3.6079 -1.2683 -1.0922
  138SAPE   H9Y15058   1.922  -0.626   9.519 -1.1614  0.6394 -1.6994
  138SAPE  C31015059   2.118  -0.568   9.588 -0.1217  0.2963 -0.9336
  138SAPE  H10X15060   2.107  -0.639   9.672 -1.8985  2.0897  0.4398
  138SAPE  H10Y15061   2.170  -0.482   9.635 -0.5333  0.1712 -0.2400
  138SAPE  C31115062   2.194  -0.632   9.470  0.4319 -0.1080 -0.2128
  138SAPE  H11X15063   2.131  -0.720   9.444 -0.9182  0.1316  1.9870
  138SAPE  H11Y15064   2.295  -0.670   9.496  0.8992  1.3495  0.2170
  138SAPE  C31215065   2.218  -0.545   9.343 -0.3171  0.2554  0.3587
  138SAPE  H12X15066   2.313  -0.489   9.353  0.6931 -1.7929  4.3609
  138SAPE  H12Y15067   2.138  -0.469   9.327 -0.6127 -0.2533 -0.6645
  138SAPE  C31315068   2.239  -0.639   9.226 -0.3226  0.3445  0.3789
  138SAPE  H13X15069   2.146  -0.698   9.217 -0.4864  0.5985  0.3767
  138SAPE  H13Y15070   2.328  -0.703   9.243 -0.9679 -1.3625 -2.1454
  138SAPE  C31415071   2.252  -0.562   9.094 -0.5010 -0.0562 -0.0752
  138SAPE  H14X15072   2.358  -0.532   9.080 -0.5627 -0.1382 -0.7426
  138SAPE  H14Y15073   2.188  -0.472   9.095  1.9212  1.7643 -0.1027
  138SAPE  C31515074   2.211  -0.652   8.972  0.3357 -0.2041 -0.6937
  138SAPE  H15X15075   2.101  -0.664   8.981  0.3901  0.3816  1.4681
  138SAPE  H15Y15076   2.249  -0.755   8.990  1.2208 -0.0356 -1.5397
  138SAPE  C31615077   2.257  -0.603   8.834  0.4602  0.0722  0.6992
  138SAPE  H16X15078   2.364  -0.573   8.845  0.2258  1.1443  0.1695
  138SAPE  H16Y15079   2.197  -0.519   8.795 -1.2716 -1.9579 -1.3438
  138SAPE  C31715080   2.248  -0.711   8.725 -0.7611  0.0648  0.1157
  138SAPE  H17X15081   2.143  -0.742   8.704 -1.1522 -0.8042  2.9232
  138SAPE  H17Y15082   2.292  -0.805   8.764 -3.8825 -2.0150 -0.9871
  138SAPE  C31815083   2.325  -0.676   8.604  0.1234 -0.0749 -0.0469
  138SAPE  H18X15084   2.301  -0.750   8.525  1.3362  1.2028 -1.6661
  138SAPE  H18Y15085   2.434  -0.677   8.622 -0.0493 -0.6547  1.0625
  138SAPE  H18Z15086   2.289  -0.578   8.567  1.5782 -0.2032 -1.9429
  139SAPE     N15087   2.927   6.593  10.755  0.2667  0.0062  0.5483
  139SAPE   HN115088   2.859   6.664  10.788 -0.9361 -0.1949 -1.3382
  139SAPE   HN215089   2.899   6.508  10.809 -1.5918 -0.0337 -0.3623
  139SAPE   HN315090   3.022   6.614  10.791  0.3271 -0.3819  0.6181
  139SAPE   C1215091   2.911   6.559  10.607 -0.3764 -0.0560 -0.2556
  139SAPE  H12A15092   2.952   6.643  10.547 -3.1779 -0.1588 -2.5335
  139SAPE  H12B15093   2.802   6.560  10.585  0.1315 -0.0801 -3.1383
  139SAPE   C1115094   2.951   6.414  10.570 -0.2075  0.1116  0.2212
  139SAPE  H11A15095   2.892   6.373  10.486 -1.0172  1.9478 -0.1481
  139SAPE  H11B15096   2.931   6.343  10.653 -2.1535 -1.6683 -1.6714
  139SAPE     P15097   3.209   6.375  10.620 -0.0177 -0.0955 -0.4327
  139SAPE   O1315098   3.158   6.405  10.758  0.5676  0.4355  0.2999
  139SAPE   O1415099   3.262   6.240  10.601 -0.0687  0.0180 -0.1262
  139SAPE   O1215100   3.090   6.415  10.527  0.5912 -0.2863 -0.3966
  139SAPE   O1115101   3.322   6.463  10.575 -0.4369 -0.6416  0.3906
  139SAPE    C115102   3.331   6.605  10.587  0.1744  0.4879  0.4422
  139SAPE    HA15103   3.324   6.640  10.692  1.7457  3.1260 -0.2150
  139SAPE    HB15104   3.440   6.616  10.575  0.7820 -3.2194  1.3753
  139SAPE    C215105   3.255   6.696  10.484 -0.2155 -0.6899 -0.0219
  139SAPE    HS15106   3.147   6.696  10.510 -0.1264 -3.0676  0.6348
  139SAPE   O2115107   3.280   6.657  10.347  0.0063  0.4865 -0.3317
  139SAPE   C2115108   3.185   6.663  10.270 -0.1763 -0.8858 -0.3556
  139SAPE   O2215109   3.079   6.721  10.287 -0.6860  0.7892 -0.1887
  139SAPE   C2215110   3.232   6.610  10.134 -0.2959 -0.4958 -1.2419
  139SAPE   H2R15111   3.311   6.538  10.164  0.3038  0.2385 -1.0316
  139SAPE   H2S15112   3.147   6.553  10.090  0.1754 -1.1736 -1.2758
  139SAPE    C315113   3.314   6.836  10.499  0.2662 -0.9348 -0.2568
  139SAPE    HX15114   3.424   6.822  10.491  0.3861 -1.3886  1.7680
  139SAPE    HY15115   3.291   6.870  10.602  3.8188  4.1849 -0.7286
  139SAPE   O3115116   3.261   6.923  10.401  0.2816 -0.2683 -0.6505
  139SAPE   C3115117   3.229   7.050  10.434  0.3696 -0.3541 -0.6372
  139SAPE   O3215118   3.257   7.096  10.542  0.0214 -0.1192  0.0705
  139SAPE   C3215119   3.167   7.134  10.316 -0.1570 -0.4962 -0.9254
  139SAPE   H2X15120   3.256   7.189  10.279  0.7884 -3.0827 -2.8024
  139SAPE   H2Y15121   3.087   7.195  10.361 -1.0366 -0.4446 -2.4904
  139SAPE   C2315122   3.283   6.713  10.034 -0.5618  0.0100 -0.2308
  139SAPE   H3R15123   3.203   6.789  10.021 -1.4152 -0.8450 -0.0710
  139SAPE   H3S15124   3.303   6.662   9.937  0.7814 -0.2204  0.1471
  139SAPE   C2415125   3.416   6.771  10.070 -0.5244 -0.1298 -0.4723
  139SAPE   H4R15126   3.491   6.691  10.050 -0.7801 -0.1381 -1.4882
  139SAPE   H4S15127   3.414   6.784  10.180 -1.1347  1.4391 -0.6431
  139SAPE   C2515128   3.453   6.902  10.004 -0.6676  0.1493  0.5177
  139SAPE   H5R15129   3.458   6.980  10.082  2.3763  1.8651 -1.2181
  139SAPE   C2615130   3.465   6.927   9.869 -0.2335  0.2140 -0.0811
  139SAPE   H6R15131   3.494   7.033   9.859  1.5655 -0.0625  1.5996
  139SAPE   C2715132   3.442   6.834   9.750 -0.7224 -0.7971 -0.5644
  139SAPE   H7R15133   3.416   6.733   9.788 -2.7190 -0.1934 -0.2108
  139SAPE   H7S15134   3.543   6.816   9.707 -0.0998  1.1964 -0.0491
  139SAPE   C2815135   3.338   6.883   9.652  0.0566 -0.5295 -0.6419
  139SAPE   H8R15136   3.240   6.864   9.698  0.2688  0.9668  0.4995
  139SAPE   C2915137   3.345   6.931   9.523 -0.3827  0.5851  0.2375
  139SAPE   H9R15138   3.249   6.945   9.472 -0.7276 -1.1459  0.3315
  139SAPE  C21015139   3.474   6.949   9.447 -0.3955  0.2803 -0.4898
  139SAPE  H10R15140   3.559   6.982   9.510 -1.4278  1.6643  0.2289
  139SAPE  H10S15141   3.460   7.034   9.377  1.4277  1.7839  0.8548
  139SAPE  C21115142   3.502   6.832   9.358 -0.3741  0.0801  0.2090
  139SAPE  H11R15143   3.569   6.759   9.406  0.8873  0.8156 -0.3815
  139SAPE  C21215144   3.459   6.803   9.232  0.1039 -0.4187 -0.1147
  139SAPE  H12R15145   3.498   6.711   9.187  1.7345 -0.9588  2.2184
  139SAPE  C21315146   3.377   6.874   9.134 -0.3030 -0.0634  0.4631
  139SAPE  H13R15147   3.445   6.892   9.047 -0.9808  2.1167  0.3256
  139SAPE  H13S15148   3.345   6.974   9.170 -0.2232  0.1262  0.0145
  139SAPE  C21415149   3.254   6.797   9.086 -0.5515  0.5733 -0.1926
  139SAPE  H14R15150   3.206   6.725   9.154  1.5197 -0.1197  0.6341
  139SAPE  C21515151   3.195   6.811   8.963  0.1633 -0.4076  0.5846
  139SAPE  H15R15152   3.095   6.765   8.955 -0.1947  0.6454 -1.7931
  139SAPE  C21615153   3.234   6.909   8.853 -0.4197 -0.1964  0.4208
  139SAPE  H16R15154   3.337   6.879   8.825 -0.5724 -2.8649  2.2923
  139SAPE  H16S15155   3.233   7.012   8.894 -1.2595 -0.4781  1.1525
  139SAPE  C21715156   3.144   6.915   8.727  0.3186  0.1711 -0.5871
  139SAPE  H17R15157   3.037   6.903   8.754  0.4432 -3.1997 -1.1928
  139SAPE  H17S15158   3.159   6.827   8.660 -1.8191 -0.2612 -0.5729
  139SAPE  C21815159   3.162   7.037   8.635 -0.0153 -0.1887  0.1738
  139SAPE  H18R15160   3.268   7.043   8.601  0.5158  0.7087  1.8416
  139SAPE  H18S15161   3.142   7.125   8.700 -0.7488 -0.2946  0.0939
  139SAPE  C21915162   3.061   7.044   8.528  1.1985 -0.1956  0.0844
  139SAPE  H19R15163   3.068   7.145   8.482  1.0865  0.8483  2.2198
  139SAPE  H19S15164   2.965   7.043   8.584  0.4193  1.5189 -1.1303
  139SAPE  C22015165   3.062   6.943   8.418  0.3513 -0.4340  0.0454
  139SAPE  H20R15166   2.982   6.941   8.341  0.5866 -1.0475 -0.1944
  139SAPE  H20S15167   3.055   6.841   8.461 -1.7314 -0.2628  0.2596
  139SAPE  H20T15168   3.155   6.953   8.359 -0.2664 -0.8134 -1.0306
  139SAPE   C3315169   3.121   7.064  10.192 -0.4584  0.0094 -1.2815
  139SAPE   H3X15170   3.020   7.031  10.225  0.3436  1.1377  2.7932
  139SAPE   H3Y15171   3.189   6.982  10.161 -1.4756 -1.3097 -0.1350
  139SAPE   C3415172   3.102   7.161  10.081  0.4166  0.2550  0.4749
  139SAPE   H4X15173   3.199   7.194  10.037  0.0143 -0.0426 -0.6521
  139SAPE   H4Y15174   3.049   7.250  10.123 -0.3890 -0.0486  0.1216
  139SAPE   C3515175   3.022   7.107   9.965 -0.0584 -0.0950 -0.2288
  139SAPE   H5X15176   2.918   7.080   9.993 -0.8722  0.2754 -2.6743
  139SAPE   H5Y15177   3.081   7.018   9.936 -1.3443 -1.5113  1.2993
  139SAPE   C3615178   3.005   7.192   9.845  0.3435  0.8352 -0.2037
  139SAPE   H6X15179   3.098   7.248   9.820  1.8769 -0.9341  1.2664
  139SAPE   H6Y15180   2.927   7.271   9.846 -0.4859  0.1285 -2.6243
  139SAPE   C3715181   2.987   7.102   9.726 -0.0594 -0.1405 -0.1616
  139SAPE   H7X15182   2.886   7.057   9.717 -0.0288 -0.6491  1.5988
  139SAPE   H7Y15183   3.052   7.013   9.746  0.8391  0.0909 -1.9042
  139SAPE   C3815184   3.022   7.174   9.600  0.2275 -0.7447 -0.1364
  139SAPE   H8X15185   3.128   7.207   9.591  0.0924 -0.5932 -1.4819
  139SAPE   H8Y15186   2.951   7.258   9.611  2.0838  0.6624  2.0644
  139SAPE   C3915187   2.989   7.104   9.473  0.3666  0.2028  0.1276
  139SAPE   H9X15188   2.892   7.058   9.504 -0.9669  2.3410 -0.6089
  139SAPE   H9Y15189   3.072   7.034   9.454  0.1348  0.2092 -0.9240
  139SAPE  C31015190   2.942   7.195   9.360 -0.6593  0.0090  0.6472
  139SAPE  H10X15191   3.025   7.264   9.332  0.6478 -1.4406  0.8089
  139SAPE  H10Y15192   2.863   7.261   9.403 -0.0627 -0.2470  2.2137
  139SAPE  C31115193   2.877   7.117   9.245  0.2192  0.1498  0.4541
  139SAPE  H11X15194   2.799   7.048   9.283 -0.1076  0.1437 -0.2167
  139SAPE  H11Y15195   2.956   7.052   9.203 -0.7586 -0.2665 -0.7923
  139SAPE  C31215196   2.820   7.211   9.136 -0.6171  0.1699 -0.2578
  139SAPE  H12X15197   2.874   7.307   9.127  2.1097 -1.3412 -1.3938
  139SAPE  H12Y15198   2.718   7.242   9.168  0.1461  2.1247  0.4088
  139SAPE  C31315199   2.820   7.157   8.987 -0.2971  0.1380  0.2897
  139SAPE  H13X15200   2.762   7.064   8.975 -1.5805  0.9244  0.2245
  139SAPE  H13Y15201   2.925   7.138   8.954 -0.0454  2.1147 -0.2040
  139SAPE  C31415202   2.774   7.263   8.876  0.7397  0.9120 -0.0684
  139SAPE  H14X15203   2.824   7.355   8.913  1.7697 -0.3743  1.8678
  139SAPE  H14Y15204   2.664   7.268   8.893  0.7169  0.5716 -0.1068
  139SAPE  C31515205   2.808   7.218   8.730 -0.1132 -0.3439 -0.3965
  139SAPE  H15X15206   2.771   7.113   8.725 -0.2093 -0.5049  2.3978
  139SAPE  H15Y15207   2.919   7.219   8.725  0.0406  0.8010  1.9007
  139SAPE  C31615208   2.749   7.317   8.628 -0.6201  0.1947  0.9063
  139SAPE  H16X15209   2.640   7.320   8.649 -2.1958 -1.5380 -5.1237
  139SAPE  H16Y15210   2.798   7.413   8.658  0.2684  0.0775 -0.1078
  139SAPE  C31715211   2.763   7.269   8.478 -0.1904 -0.8144  0.9265
  139SAPE  H17X15212   2.741   7.160   8.471 -0.3102 -0.7217 -0.5172
  139SAPE  H17Y15213   2.871   7.284   8.458 -0.5578  1.1050  0.2624
  139SAPE  C31815214   2.665   7.348   8.392 -0.6358  0.2753 -0.1052
  139SAPE  H18X15215   2.569   7.359   8.446 -0.4565 -1.8896  0.7483
  139SAPE  H18Y15216   2.641   7.286   8.303 -1.4006 -1.3723  1.2017
  139SAPE  H18Z15217   2.702   7.450   8.367 -1.7634  0.9835  1.0360
  140SAPE     N15218   0.794   1.807  11.052  0.5252 -0.0994 -0.1300
  140SAPE   HN115219   0.787   1.788  11.154 -1.4555  0.5279 -0.1003
  140SAPE   HN215220   0.699   1.836  11.022  0.7712  0.2864 -0.5333
  140SAPE   HN315221   0.813   1.717  11.003 -0.1138  0.6175 -1.7267
  140SAPE   C1215222   0.890   1.929  11.029  0.5772 -0.1943  0.5630
  140SAPE  H12A15223   0.886   1.946  10.919 -0.5232 -2.6580  0.1349
  140SAPE  H12B15224   0.989   1.902  11.071  0.5907  1.4887  1.7094
  140SAPE   C1115225   0.834   2.056  11.099 -0.8471 -0.6982 -0.2602
  140SAPE  H11A15226   0.925   2.120  11.101 -0.4567 -1.1558 -1.6833
  140SAPE  H11B15227   0.816   2.032  11.206  1.2458 -2.5114 -0.2322
  140SAPE     P15228   0.718   2.234  10.955 -0.3073  0.4352  0.3539
  140SAPE   O1315229   0.582   2.246  10.901 -0.3155  0.2688 -0.1447
  140SAPE   O1415230   0.784   2.343  11.027 -0.3129 -0.2912 -0.3304
  140SAPE   O1215231   0.712   2.100  11.037 -1.3481  0.0444  0.5861
  140SAPE   O1115232   0.816   2.196  10.839 -0.2617  0.2771  0.2197
  140SAPE    C115233   0.763   2.108  10.740 -0.3584 -0.4231  0.5842
  140SAPE    HA15234   0.845   2.048  10.695 -1.3101 -1.6733  0.4663
  140SAPE    HB15235   0.705   2.022  10.779  0.7527 -1.4029  0.1636
  140SAPE    C215236   0.689   2.177  10.618 -0.4832  0.0244  0.1396
  140SAPE    HS15237   0.592   2.222  10.647 -0.2429  0.8055 -0.2468
  140SAPE   O2115238   0.685   2.083  10.508  0.0828  0.4514  0.0040
  140SAPE   C2115239   0.573   2.084  10.445 -0.9292 -0.3032 -0.4287
  140SAPE   O2215240   0.482   2.171  10.453  0.3201 -0.2332 -0.4475
  140SAPE   C2215241   0.556   1.952  10.366  0.6390 -0.5082  0.1908
  140SAPE   H2R15242   0.653   1.936  10.315  0.1348  0.5175 -1.1342
  140SAPE   H2S15243   0.545   1.873  10.444  1.3175 -0.1808  0.6263
  140SAPE    C315244   0.765   2.301  10.567 -1.4197  0.6377 -0.4192
  140SAPE    HX15245   0.865   2.255  10.547 -1.3597  1.0752 -1.1800
  140SAPE    HY15246   0.779   2.360  10.659  5.1640  0.0003 -0.5195
  140SAPE   O3115247   0.718   2.366  10.452 -0.1086  0.0968  0.1299
  140SAPE   C3115248   0.614   2.444  10.472  0.7944 -0.1264 -0.2913
  140SAPE   O3215249   0.552   2.463  10.578 -0.3097  0.5243  0.1933
  140SAPE   C3215250   0.593   2.519  10.340 -0.1127 -0.4892  0.1960
  140SAPE   H2X15251   0.597   2.444  10.258 -1.9091  0.0756 -0.4544
  140SAPE   H2Y15252   0.678   2.590  10.329 -0.6599 -0.0891 -1.8986
  140SAPE   C2315253   0.425   1.962  10.268  0.2365  0.7550 -0.5159
  140SAPE   H3R15254   0.451   2.034  10.187 -1.4104 -0.2571 -2.0316
  140SAPE   H3S15255   0.333   1.986  10.326 -0.9137 -2.5420 -0.7651
  140SAPE   C2415256   0.406   1.841  10.180 -0.7485 -0.6501 -0.3309
  140SAPE   H4R15257   0.507   1.818  10.140  0.3407  2.6540  0.1989
  140SAPE   H4S15258   0.329   1.855  10.102 -1.6835  0.4449  0.7438
  140SAPE   C2515259   0.374   1.717  10.256  0.2275 -0.3027  0.1585
  140SAPE   H5R15260   0.307   1.725  10.342  0.3089 -0.6626  0.2550
  140SAPE   C2615261   0.412   1.590  10.215  0.3741 -1.0684 -0.6641
  140SAPE   H6R15262   0.400   1.515  10.295  0.8510  0.4563  0.8846
  140SAPE   C2715263   0.496   1.557  10.092  0.7529 -0.5123 -0.3090
  140SAPE   H7R15264   0.584   1.624  10.082 -0.6727  1.1157 -4.1420
  140SAPE   H7S15265   0.435   1.578  10.001 -1.4039 -2.2210  0.6400
  140SAPE   C2815266   0.539   1.410  10.089 -0.1224 -0.1847  0.3486
  140SAPE   H8R15267   0.565   1.373  10.189  0.4038 -0.1275  0.2384
  140SAPE   C2915268   0.555   1.331   9.989 -0.0466  0.1232 -0.3716
  140SAPE   H9R15269   0.594   1.229   9.995  1.3575  0.3311 -3.5639
  140SAPE  C21015270   0.533   1.370   9.844  0.7430  0.5469 -0.2673
  140SAPE  H10R15271   0.479   1.466   9.829 -0.2884  0.0124 -0.1007
  140SAPE  H10S15272   0.468   1.296   9.791  1.2231 -0.5158  0.5956
  140SAPE  C21115273   0.662   1.376   9.772 -0.0015  0.1642 -0.0613
  140SAPE  H11R15274   0.712   1.278   9.767  0.1744  0.1895  0.9512
  140SAPE  C21215275   0.720   1.490   9.723 -0.0730 -0.8714 -0.4111
  140SAPE  H12R15276   0.806   1.476   9.656  0.8239 -1.2756  0.7870
  140SAPE  C21315277   0.665   1.631   9.721 -0.3028 -0.2151  0.1989
  140SAPE  H13R15278   0.754   1.696   9.704 -0.4109 -0.7859 -3.5068
  140SAPE  H13S15279   0.637   1.645   9.827  0.0202  0.1592  0.2368
  140SAPE  C21415280   0.554   1.668   9.628 -0.6724  0.3533 -0.1523
  140SAPE  H14R15281   0.460   1.706   9.672 -1.7548 -1.6904 -0.5419
  140SAPE  C21515282   0.562   1.678   9.489 -0.0729  0.3665 -0.3427
  140SAPE  H15R15283   0.473   1.705   9.431 -0.0663  1.0860 -0.0401
  140SAPE  C21615284   0.685   1.653   9.405 -0.0430  0.2963 -0.4945
  140SAPE  H16R15285   0.662   1.597   9.312 -0.1247 -1.8839  0.7888
  140SAPE  H16S15286   0.755   1.586   9.459  0.3067  1.1789  0.1659
  140SAPE  C21715287   0.740   1.792   9.373 -0.6890  1.0813 -0.0623
  140SAPE  H17R15288   0.776   1.836   9.468  0.6409  0.9394 -0.4687
  140SAPE  H17S15289   0.664   1.863   9.334 -1.0885  0.3037 -0.7358
  140SAPE  C21815290   0.858   1.798   9.278 -0.0479  0.1000 -0.0772
  140SAPE  H18R15291   0.833   1.714   9.209  2.7867 -0.9470  0.0386
  140SAPE  H18S15292   0.950   1.770   9.333  0.7881  2.5434 -0.1274
  140SAPE  C21915293   0.886   1.936   9.211 -0.3384  0.9828 -0.5895
  140SAPE  H19R15294   0.858   2.008   9.291  0.9573  2.1217 -1.1213
  140SAPE  H19S15295   0.821   1.933   9.121 -0.7813  0.1654 -0.2520
  140SAPE  C22015296   1.035   1.957   9.187  0.6147 -0.3552 -0.2760
  140SAPE  H20R15297   1.090   1.913   9.273 -1.3781  0.0954  1.3136
  140SAPE  H20S15298   1.068   2.063   9.178  0.0626 -0.0166  1.4046
  140SAPE  H20T15299   1.056   1.904   9.091 -0.5444 -0.0166 -0.7381
  140SAPE   C3315300   0.462   2.592  10.328  0.1118 -0.4235 -0.1445
  140SAPE   H3X15301   0.470   2.684  10.266  3.0206 -1.0197 -0.7794
  140SAPE   H3Y15302   0.439   2.642  10.424 -0.0831 -0.7881 -0.0002
  140SAPE   C3415303   0.341   2.520  10.287  0.6431 -0.0812 -0.5200
  140SAPE   H4X15304   0.254   2.589  10.287  2.1136  1.9552 -2.6412
  140SAPE   H4Y15305   0.321   2.437  10.357 -0.6925  1.4838  1.0450
  140SAPE   C3515306   0.354   2.447  10.145  0.0716  0.1237  0.9024
  140SAPE   H5X15307   0.313   2.344  10.157 -0.3728  0.2333  0.3525
  140SAPE   H5Y15308   0.463   2.450  10.125  0.5161 -1.2737  2.7713
  140SAPE   C3615309   0.270   2.508  10.030 -0.1145  0.9720  1.0808
  140SAPE   H6X15310   0.299   2.615  10.025 -0.3092  1.1712  3.1914
  140SAPE   H6Y15311   0.161   2.513  10.049 -0.5456  1.4682 -1.2594
  140SAPE   C3715312   0.311   2.446   9.895  0.7600  0.5350  1.1350
  140SAPE   H7X15313   0.261   2.349   9.872  2.0752 -0.0409  0.6110
  140SAPE   H7Y15314   0.421   2.438   9.904  0.8319  0.9074  0.6545
  140SAPE   C3815315   0.274   2.526   9.766 -0.0946 -0.4308 -0.6136
  140SAPE   H8X15316   0.327   2.621   9.788  1.9667 -1.9160  1.4582
  140SAPE   H8Y15317   0.165   2.547   9.764 -0.1891 -0.7675  0.3284
  140SAPE   C3915318   0.317   2.462   9.635  1.0881 -0.4609  0.3708
  140SAPE   H9X15319   0.272   2.361   9.629 -0.1506  0.0681  0.4587
  140SAPE   H9Y15320   0.427   2.448   9.629  1.1193  0.3782 -2.6263
  140SAPE  C31015321   0.271   2.551   9.518 -0.7302  0.3375 -0.4287
  140SAPE  H10X15322   0.342   2.636   9.518 -1.6430  1.1377  0.5567
  140SAPE  H10Y15323   0.168   2.587   9.538 -1.8343 -2.4639 -0.5196
  140SAPE  C31115324   0.276   2.490   9.372  0.2600  0.5565 -0.1887
  140SAPE  H11X15325   0.216   2.396   9.368 -0.5088  0.6806  3.8904
  140SAPE  H11Y15326   0.382   2.463   9.350  0.5695  2.8112 -1.7709
  140SAPE  C31215327   0.240   2.580   9.257 -0.0065  0.1120  0.2765
  140SAPE  H12X15328   0.306   2.669   9.246 -0.6263  0.4063 -1.2535
  140SAPE  H12Y15329   0.134   2.608   9.271  0.0128 -0.6462  2.2632
  140SAPE  C31315330   0.245   2.506   9.128  0.1204  0.4570  0.3947
  140SAPE  H13X15331   0.159   2.437   9.119  0.8147 -0.5687  1.3594
  140SAPE  H13Y15332   0.335   2.441   9.114 -0.8431 -0.8204 -0.0257
  140SAPE  C31415333   0.247   2.591   9.007  0.0378 -0.4980 -0.3884
  140SAPE  H14X15334   0.332   2.663   9.005 -0.2362 -0.0893  1.2787
  140SAPE  H14Y15335   0.160   2.657   9.029 -0.9940 -1.9181 -0.0534
  140SAPE  C31515336   0.215   2.521   8.878 -0.1549  0.8332 -0.3531
  140SAPE  H15X15337   0.129   2.453   8.899  1.7749 -0.9382  2.4126
  140SAPE  H15Y15338   0.304   2.463   8.848 -1.5052 -1.4863 -0.1220
  140SAPE  C31615339   0.182   2.618   8.751 -0.4256  0.1574  0.4345
  140SAPE  H16X15340   0.274   2.679   8.736 -0.7207  0.2473 -1.3356
  140SAPE  H16Y15341   0.090   2.677   8.771 -0.1329  0.0995  2.0207
  140SAPE  C31715342   0.167   2.534   8.628  1.4591 -0.8366 -0.5368
  140SAPE  H17X15343   0.078   2.472   8.652 -0.8287  2.1544 -0.7445
  140SAPE  H17Y15344   0.259   2.473   8.618  1.7754 -0.1290 -2.4021
  140SAPE  C31815345   0.150   2.628   8.505  0.5897  0.8852  0.1549
  140SAPE  H18X15346   0.064   2.698   8.509  0.7610  1.0386  2.7479
  140SAPE  H18Y15347   0.141   2.570   8.410 -1.8813  0.9130  0.3091
  140SAPE  H18Z15348   0.244   2.687   8.501  2.7692 -2.3630  0.2745
  141SAPE     N15349   6.443   2.405  10.748  0.2074 -0.3255 -0.3113
  141SAPE   HN115350   6.420   2.456  10.660  1.2627 -1.3324 -1.1983
  141SAPE   HN215351   6.348   2.397  10.791  1.1234  0.7696  2.0576
  141SAPE   HN315352   6.501   2.459  10.815  0.4774 -3.1915  1.9223
  141SAPE   C1215353   6.508   2.271  10.722  0.2160  0.7063 -0.2125
  141SAPE  H12A15354   6.547   2.232  10.818 -0.0282  0.0259 -0.3861
  141SAPE  H12B15355   6.595   2.289  10.655  0.5441  0.2273  0.0730
  141SAPE   C1115356   6.413   2.171  10.653  1.2542  0.2854  0.1661
  141SAPE  H11A15357   6.459   2.082  10.606 -1.0385 -0.3334 -1.0615
  141SAPE  H11B15358   6.361   2.226  10.572 -1.0569  0.5384  1.7123
  141SAPE     P15359   6.293   1.975  10.791  0.2122 -0.1683 -0.1265
  141SAPE   O1315360   6.403   1.932  10.888 -0.0287  0.2074  0.0116
  141SAPE   O1415361   6.155   1.972  10.853  0.5015  0.1545  0.0000
  141SAPE   O1215362   6.315   2.132  10.757 -0.7277  0.0569  0.3062
  141SAPE   O1115363   6.314   1.898  10.658 -0.4914  0.2938 -0.1244
  141SAPE    C115364   6.226   1.911  10.547 -0.1283  0.6384 -0.4464
  141SAPE    HA15365   6.122   1.882  10.573 -0.6007  0.2142 -2.6124
  141SAPE    HB15366   6.217   2.017  10.515 -2.6418  0.1939 -1.4591
  141SAPE    C215367   6.269   1.823  10.429  0.5192 -0.7466  0.4355
  141SAPE    HS15368   6.277   1.718  10.466  1.2976 -0.9014 -0.1553
  141SAPE   O2115369   6.402   1.867  10.381 -0.7646 -0.7923  0.4187
  141SAPE   C2115370   6.510   1.820  10.442  0.1725 -0.3473  0.6468
  141SAPE   O2215371   6.515   1.723  10.515 -0.2277 -0.0938 -0.3284
  141SAPE   C2215372   6.630   1.915  10.416  0.6568  0.4029  0.0511
  141SAPE   H2R15373   6.639   1.939  10.307 -2.0158  0.4684 -0.2151
  141SAPE   H2S15374   6.602   2.015  10.455  3.6383  1.6560 -0.7006
  141SAPE    C315375   6.173   1.825  10.314  0.3316 -0.1264  0.1171
  141SAPE    HX15376   6.138   1.929  10.300 -1.4567 -0.9699 -2.3985
  141SAPE    HY15377   6.086   1.763  10.344  1.1593 -0.3368  2.2849
  141SAPE   O3115378   6.226   1.772  10.188  0.0461  0.3230 -0.2579
  141SAPE   C3115379   6.176   1.817  10.072  0.2397 -0.9884  0.0277
  141SAPE   O3215380   6.081   1.897  10.060 -0.3140  0.6185  0.0336
  141SAPE   C3215381   6.239   1.740   9.952 -0.1676 -0.8765 -0.2015
  141SAPE   H2X15382   6.161   1.662   9.935 -2.1839  1.4692 -2.5017
  141SAPE   H2Y15383   6.334   1.693   9.984 -1.2094 -1.0362  3.0564
  141SAPE   C2315384   6.768   1.873  10.476  0.3240  0.8090 -0.8861
  141SAPE   H3R15385   6.749   1.841  10.581  2.3635  0.1729 -0.6731
  141SAPE   H3S15386   6.834   1.963  10.470  0.5468  0.6198 -1.3354
  141SAPE   C2415387   6.845   1.759  10.395 -0.2365 -0.3668  0.0273
  141SAPE   H4R15388   6.952   1.766  10.425  0.2095 -0.3706 -1.4501
  141SAPE   H4S15389   6.834   1.793  10.290 -2.3196 -1.4086 -0.1312
  141SAPE   C2515390   6.788   1.619  10.407 -0.8504  0.6585  0.5229
  141SAPE   H5R15391   6.787   1.594  10.514  1.2862  2.8447  1.1535
  141SAPE   C2615392   6.763   1.527  10.313  0.0064  0.4518  1.0196
  141SAPE   H6R15393   6.713   1.434  10.345 -0.6405  0.2344 -0.5684
  141SAPE   C2715394   6.780   1.543  10.161 -0.1670  0.3855 -0.5786
  141SAPE   H7R15395   6.793   1.647  10.124  0.3702  0.2351 -0.8214
  141SAPE   H7S15396   6.691   1.518  10.100  0.5352  0.4337 -1.6386
  141SAPE   C2815397   6.901   1.457  10.119  0.4269  0.3149 -0.5840
  141SAPE   H8R15398   6.955   1.408  10.201  1.1414  0.4158 -0.9877
  141SAPE   C2915399   6.938   1.432   9.991  0.5212 -0.6063 -0.0285
  141SAPE   H9R15400   7.021   1.361   9.975 -0.4060 -2.0553  1.1839
  141SAPE  C21015401   6.863   1.491   9.873  0.0382  0.5235 -0.3941
  141SAPE  H10R15402   6.894   1.598   9.866  0.3796  0.3480 -2.0246
  141SAPE  H10S15403   6.754   1.496   9.892  0.1501 -2.1757  1.5294
  141SAPE  C21115404   6.884   1.414   9.744  0.3204 -0.3361  0.6373
  141SAPE  H11R15405   6.910   1.307   9.754 -1.3223 -0.7598  0.7547
  141SAPE  C21215406   6.893   1.466   9.616  1.1724 -0.8427  0.3966
  141SAPE  H12R15407   6.900   1.404   9.525  1.7802  0.9941 -0.8733
  141SAPE  C21315408   6.884   1.611   9.576  1.3476 -0.2204 -0.4500
  141SAPE  H13R15409   6.986   1.652   9.562  1.0072  1.9436  2.5180
  141SAPE  H13S15410   6.859   1.676   9.662 -0.3003 -1.5423  0.1334
  141SAPE  C21415411   6.785   1.643   9.471  0.2382  0.0543  0.0948
  141SAPE  H14R15412   6.680   1.637   9.505  0.2181 -0.0635  0.0140
  141SAPE  C21515413   6.811   1.672   9.342 -0.2100 -0.2503  0.0640
  141SAPE  H15R15414   6.726   1.680   9.272  0.9144  1.3876 -1.2095
  141SAPE  C21615415   6.946   1.685   9.281 -0.2608  0.4197 -0.9815
  141SAPE  H16R15416   6.992   1.585   9.270 -0.1435  0.3862 -0.2179
  141SAPE  H16S15417   7.002   1.753   9.349  1.2291 -1.5197 -0.1715
  141SAPE  C21715418   6.939   1.742   9.140 -0.2460 -0.3331 -0.3146
  141SAPE  H17R15419   7.042   1.751   9.098 -0.7117  1.4840 -1.1970
  141SAPE  H17S15420   6.895   1.843   9.125 -1.2882 -1.0757 -2.8223
  141SAPE  C21815421   6.857   1.648   9.044  0.1050 -0.4638 -0.7422
  141SAPE  H18R15422   6.749   1.633   9.070  0.5427 -0.2597  1.3533
  141SAPE  H18S15423   6.898   1.545   9.052 -0.9031 -0.9324 -1.3362
  141SAPE  C21915424   6.877   1.695   8.902  0.1980 -0.1520  0.1533
  141SAPE  H19R15425   6.984   1.707   8.873  0.8770 -1.9462  1.7116
  141SAPE  H19S15426   6.839   1.799   8.894  0.8142 -0.0456 -2.5183
  141SAPE  C22015427   6.796   1.628   8.800  0.0749 -0.0974  0.3035
  141SAPE  H20R15428   6.697   1.668   8.831  0.4110  2.0490 -1.1400
  141SAPE  H20S15429   6.812   1.518   8.801  2.2348  0.1798  1.5908
  141SAPE  H20T15430   6.811   1.668   8.697 -3.2335 -3.2191 -1.6749
  141SAPE   C3315431   6.262   1.823   9.821  0.3139  0.0437 -0.0471
  141SAPE   H3X15432   6.329   1.905   9.855 -1.2781  0.1466  3.3066
  141SAPE   H3Y15433   6.166   1.871   9.791  0.6764  1.1201  0.4523
  141SAPE   C3415434   6.311   1.738   9.703 -0.0733 -0.2130 -0.4062
  141SAPE   H4X15435   6.233   1.663   9.676  0.2514 -0.0124 -2.0331
  141SAPE   H4Y15436   6.411   1.696   9.726  0.9058  1.7098 -0.9687
  141SAPE   C3515437   6.329   1.826   9.580  0.5667 -0.0227  0.8598
  141SAPE   H5X15438   6.417   1.893   9.587 -0.4829  1.4144  0.9215
  141SAPE   H5Y15439   6.232   1.878   9.561  0.9128  0.2489 -0.2018
  141SAPE   C3615440   6.363   1.735   9.457  0.5308 -0.6949 -0.3469
  141SAPE   H6X15441   6.275   1.670   9.441  0.6942 -0.5583 -1.8997
  141SAPE   H6Y15442   6.446   1.664   9.475 -0.0249 -1.6491 -1.4189
  141SAPE   C3715443   6.392   1.811   9.334  0.0867  0.0811 -0.0520
  141SAPE   H7X15444   6.498   1.801   9.303 -0.7547 -1.6769 -2.7064
  141SAPE   H7Y15445   6.373   1.920   9.339  1.9809  0.3777  2.1382
  141SAPE   C3815446   6.319   1.757   9.208  0.3789  0.3337 -0.3769
  141SAPE   H8X15447   6.221   1.808   9.206 -0.2759 -0.8422  0.5477
  141SAPE   H8Y15448   6.307   1.647   9.218 -0.1775  0.4768  0.6636
  141SAPE   C3915449   6.403   1.792   9.082  0.0145 -0.1377 -0.5093
  141SAPE   H9X15450   6.497   1.732   9.082 -1.3733 -2.4371 -1.2553
  141SAPE   H9Y15451   6.430   1.899   9.093  1.3561 -0.3820 -1.1536
  141SAPE  C31015452   6.331   1.762   8.954  0.4602 -0.0395 -0.1747
  141SAPE  H10X15453   6.227   1.800   8.965  1.1474  1.7686  0.4848
  141SAPE  H10Y15454   6.323   1.652   8.939  1.8072 -0.0479 -1.0703
  141SAPE  C31115455   6.406   1.798   8.832  0.0363 -0.0522 -0.7190
  141SAPE  H11X15456   6.513   1.769   8.836 -0.0760 -0.5029  3.6315
  141SAPE  H11Y15457   6.421   1.908   8.837  2.9324 -0.4356  1.8181
  141SAPE  C31215458   6.346   1.748   8.703  0.2774 -0.5606  0.2278
  141SAPE  H12X15459   6.236   1.745   8.719  0.0380 -0.3432 -1.2336
  141SAPE  H12Y15460   6.373   1.641   8.687  1.8532 -0.1048 -0.2911
  141SAPE  C31315461   6.364   1.839   8.582 -0.0672  0.4032 -0.0356
  141SAPE  H13X15462   6.467   1.880   8.589 -0.5876  1.8443 -0.4938
  141SAPE  H13Y15463   6.296   1.924   8.603 -0.0733  0.5512 -0.6529
  141SAPE  C31415464   6.326   1.768   8.452 -0.2136 -0.7071  0.7118
  141SAPE  H14X15465   6.404   1.693   8.427 -0.5531 -1.4230  1.7909
  141SAPE  H14Y15466   6.335   1.843   8.370  1.5159 -1.7172 -0.0737
  141SAPE  C31515467   6.190   1.701   8.453 -0.2370 -0.2331 -0.3449
  141SAPE  H15X15468   6.119   1.758   8.517  1.2775  1.0620  0.2426
  141SAPE  H15Y15469   6.205   1.603   8.503 -0.9517  0.0603  0.4757
  141SAPE  C31615470   6.123   1.688   8.316 -0.4446 -0.2119  0.0675
  141SAPE  H16X15471   6.046   1.608   8.326  0.0713 -0.5837  1.2591
  141SAPE  H16Y15472   6.197   1.654   8.241 -2.5480  1.4420 -2.9736
  141SAPE  C31715473   6.057   1.814   8.263  0.3930 -0.5587 -0.4228
  141SAPE  H17X15474   6.145   1.871   8.227  1.5091 -1.7438  0.3320
  141SAPE  H17Y15475   6.017   1.878   8.345  1.1258  1.1374 -1.3421
  141SAPE  C31815476   5.953   1.797   8.144 -0.1333 -0.3025  0.4350
  141SAPE  H18X15477   5.848   1.785   8.176 -0.7288  0.3909 -1.1047
  141SAPE  H18Y15478   5.997   1.727   8.069 -1.1594  0.4267 -0.9036
  141SAPE  H18Z15479   5.946   1.896   8.093 -1.5147 -0.0025  1.1752
  142SAPE     N15480   0.451   2.468  10.821  0.3243  0.2658  0.2641
  142SAPE   HN115481   0.512   2.546  10.854  0.6305 -0.0056  0.3448
  142SAPE   HN215482   0.508   2.385  10.847  3.5722  1.6615 -1.7996
  142SAPE   HN315483   0.453   2.476  10.718 -0.3283 -0.7330  0.1626
  142SAPE   C1215484   0.310   2.477  10.873 -0.0941 -0.0725  0.4542
  142SAPE  H12A15485   0.324   2.496  10.982  1.2800 -1.4438  0.5458
  142SAPE  H12B15486   0.258   2.381  10.853  1.3373 -1.3515  2.4565
  142SAPE   C1115487   0.245   2.597  10.808 -0.0058 -0.1163 -0.5689
  142SAPE  H11A15488   0.137   2.590  10.833  0.2937 -0.0874  0.7947
  142SAPE  H11B15489   0.252   2.577  10.699 -0.2732 -3.6074 -0.0360
  142SAPE     P15490   0.226   2.824  10.949  0.1746  0.2711  0.1356
  142SAPE   O1315491   0.196   2.754  11.073  0.0729 -0.0315 -0.8751
  142SAPE   O1415492   0.295   2.951  10.970 -0.3803 -0.0880  0.4791
  142SAPE   O1215493   0.302   2.729  10.844  0.7770  0.2094  0.0505
  142SAPE   O1115494   0.089   2.854  10.875  0.3973 -0.0879 -0.2319
  142SAPE    C115495   0.090   2.928  10.757 -0.5402 -0.2679  0.7335
  142SAPE    HA15496   0.063   3.034  10.773  0.2707  0.2111 -0.8734
  142SAPE    HB15497   0.189   2.926  10.706 -1.0209 -0.3843 -0.2165
  142SAPE    C215498  -0.019   2.870  10.662 -0.0544 -0.0629  0.3046
  142SAPE    HS15499  -0.110   2.850  10.722 -0.9197 -0.9757 -1.2620
  142SAPE   O2115500   0.029   2.740  10.619  0.5708 -0.4060  0.4398
  142SAPE   C2115501  -0.066   2.672  10.551 -0.0814 -0.2337 -0.0884
  142SAPE   O2215502  -0.183   2.702  10.562  0.1979  0.2866  0.1170
  142SAPE   C2215503  -0.007   2.545  10.483  0.1497  0.3463  0.3569
  142SAPE   H2R15504   0.077   2.570  10.415  1.1417 -0.9959  1.0486
  142SAPE   H2S15505   0.044   2.472  10.550  1.9543  1.9963  0.8640
  142SAPE    C315506  -0.058   2.974  10.555 -0.5408 -0.1821 -0.3818
  142SAPE    HX15507  -0.102   3.058  10.613 -0.4063 -0.5698  0.2968
  142SAPE    HY15508  -0.142   2.934  10.495  0.1291 -0.5004 -1.1228
  142SAPE   O3115509   0.060   3.021  10.483  0.2513  0.2809 -0.1147
  142SAPE   C3115510   0.098   2.947  10.376  0.7006  0.1414 -0.0795
  142SAPE   O3215511   0.035   2.845  10.343  0.2306  0.4579 -0.4902
  142SAPE   C3215512   0.229   2.997  10.326 -0.3840 -0.0798  0.3548
  142SAPE   H2X15513   0.306   2.991  10.406  0.8832  2.7071 -0.5033
  142SAPE   H2Y15514   0.211   3.103  10.296 -0.9849 -0.7799 -1.9356
  142SAPE   C2315515  -0.121   2.460  10.416  0.3484 -0.1691 -0.5657
  142SAPE   H3R15516  -0.155   2.512  10.324 -1.1077  0.2462  0.1636
  142SAPE   H3S15517  -0.213   2.450  10.479  1.7801 -1.0030  1.4953
  142SAPE   C2415518  -0.084   2.312  10.388  0.2174  0.1569  0.2331
  142SAPE   H4R15519  -0.172   2.250  10.361  0.9661 -2.2166  2.7820
  142SAPE   H4S15520  -0.048   2.279  10.488  1.5226  1.1534  0.1227
  142SAPE   C2515521   0.031   2.298  10.293 -0.1547 -0.5852  0.4059
  142SAPE   H5R15522   0.129   2.326  10.334 -1.1625 -1.5479  3.7418
  142SAPE   C2615523   0.028   2.235  10.174  0.0274 -0.1165 -0.1037
  142SAPE   H6R15524   0.123   2.208  10.126 -1.5641 -4.3143 -1.3823
  142SAPE   C2715525  -0.090   2.178  10.096 -0.3370  0.8266 -0.5294
  142SAPE   H7R15526  -0.103   2.244  10.008  1.7618  0.7858 -0.9019
  142SAPE   H7S15527  -0.183   2.188  10.157  0.6895  0.3582  1.2008
  142SAPE   C2815528  -0.071   2.035  10.045  0.8249 -0.3433 -0.5154
  142SAPE   H8R15529  -0.073   1.959  10.124  0.6472  0.1449 -0.0399
  142SAPE   C2915530  -0.057   1.993   9.923 -0.3641 -0.1014  0.4452
  142SAPE   H9R15531  -0.056   1.883   9.916 -0.5380 -0.1149  0.6320
  142SAPE  C21015532  -0.052   2.073   9.794  0.1463 -0.5451  0.2304
  142SAPE  H10R15533  -0.012   2.010   9.712  2.9605  0.0499  1.0278
  142SAPE  H10S15534   0.024   2.154   9.801  1.2208 -1.1788 -2.7559
  142SAPE  C21115535  -0.169   2.152   9.740 -0.0833  0.4791  0.3434
  142SAPE  H11R15536  -0.241   2.187   9.815  0.8921  1.9650  0.6413
  142SAPE  C21215537  -0.202   2.168   9.611 -0.5139  0.4763  0.1551
  142SAPE  H12R15538  -0.289   2.220   9.566  0.4967 -2.0795 -5.6533
  142SAPE  C21315539  -0.128   2.110   9.489  0.1958  0.5999 -0.9689
  142SAPE  H13R15540  -0.210   2.077   9.421 -0.7461  2.6435 -0.9063
  142SAPE  H13S15541  -0.084   2.009   9.508 -1.2791 -0.2742 -1.9785
  142SAPE  C21415542  -0.031   2.197   9.424 -0.3070 -0.7574  0.2846
  142SAPE  H14R15543   0.033   2.248   9.498 -0.9166 -0.5233  0.6583
  142SAPE  C21515544  -0.007   2.214   9.295  0.1766  1.1527  0.6458
  142SAPE  H15R15545   0.065   2.294   9.271  0.1029  1.0703  0.1274
  142SAPE  C21615546  -0.084   2.148   9.187 -0.2101  1.3492 -0.5548
  142SAPE  H16R15547  -0.190   2.182   9.180 -0.5709  0.0048 -3.7821
  142SAPE  H16S15548  -0.103   2.042   9.213 -0.0956  1.3693 -0.3912
  142SAPE  C21715549  -0.013   2.162   9.054  0.1149 -0.3181  0.2979
  142SAPE  H17R15550   0.090   2.119   9.055  0.0676 -0.4340  0.1219
  142SAPE  H17S15551  -0.005   2.267   9.019 -0.5759 -0.2979  0.1927
  142SAPE  C21815552  -0.092   2.077   8.953  0.1861  0.6119 -0.1041
  142SAPE  H18R15553  -0.198   2.107   8.965  0.6992  2.1513  0.8392
  142SAPE  H18S15554  -0.074   1.971   8.979 -1.6443  0.4839  0.7454
  142SAPE  C21915555  -0.052   2.103   8.810 -0.1894  0.5358 -0.4594
  142SAPE  H19R15556  -0.076   2.210   8.790  0.2707  0.6485 -0.4047
  142SAPE  H19S15557  -0.122   2.048   8.743 -0.3832  2.1589 -1.6869
  142SAPE  C22015558   0.085   2.071   8.759  0.7821 -0.2812 -0.2610
  142SAPE  H20R15559   0.159   2.129   8.817  0.4533 -0.8701  0.7704
  142SAPE  H20S15560   0.089   2.106   8.654 -0.2736  2.2804  0.4763
  142SAPE  H20T15561   0.106   1.963   8.773 -0.1056 -0.6960 -1.8968
  142SAPE   C3315562   0.298   2.915  10.210 -0.4293 -0.1857  0.6344
  142SAPE   H3X15563   0.296   2.809  10.245  3.3765 -0.1103  1.4423
  142SAPE   H3Y15564   0.402   2.949  10.195 -0.7313 -0.0092 -1.3322
  142SAPE   C3415565   0.217   2.924  10.081  0.5443 -0.6243  0.1113
  142SAPE   H4X15566   0.108   2.942  10.094  0.0489  0.4242 -3.9620
  142SAPE   H4Y15567   0.235   2.835  10.016  1.7845 -0.5305  0.2954
  142SAPE   C3515568   0.265   3.055  10.006  0.2287  0.4294  0.3675
  142SAPE   H5X15569   0.376   3.059   9.997  0.0768  3.0833 -2.1969
  142SAPE   H5Y15570   0.221   3.145  10.053  0.8787  0.5303  0.7905
  142SAPE   C3615571   0.206   3.062   9.863 -0.1719 -0.3816  0.8660
  142SAPE   H6X15572   0.216   3.163   9.816  0.0142 -0.7226  0.1472
  142SAPE   H6Y15573   0.100   3.032   9.873  0.0438 -1.9313 -0.8688
  142SAPE   C3715574   0.258   2.955   9.769 -0.3726 -0.0242  0.6043
  142SAPE   H7X15575   0.198   2.863   9.785 -1.3158  0.6290  0.9036
  142SAPE   H7Y15576   0.362   2.921   9.789  0.1151 -0.0067 -1.6568
  142SAPE   C3815577   0.274   3.005   9.617  0.3412 -0.3613 -0.4257
  142SAPE   H8X15578   0.348   2.937   9.570  1.0187  1.2407 -1.7897
  142SAPE   H8Y15579   0.313   3.109   9.623  0.0295 -0.3171  1.3594
  142SAPE   C3915580   0.145   2.983   9.531  0.1777 -0.5794  0.3985
  142SAPE   H9X15581   0.087   3.077   9.531 -0.2425 -0.7596 -2.1417
  142SAPE   H9Y15582   0.083   2.899   9.570  0.2737 -1.2784 -0.8798
  142SAPE  C31015583   0.178   2.956   9.387  0.5357  0.3948 -0.0239
  142SAPE  H10X15584   0.232   2.860   9.373 -3.4114 -1.7855 -2.1030
  142SAPE  H10Y15585   0.233   3.040   9.338  1.0321 -0.1916 -0.4838
  142SAPE  C31115586   0.044   2.945   9.310  0.4454  0.2152  0.3100
  142SAPE  H11X15587  -0.011   3.040   9.322  0.2004  0.0916  0.1846
  142SAPE  H11Y15588  -0.019   2.871   9.364  0.5782 -1.4637 -1.6657
  142SAPE  C31215589   0.056   2.907   9.162  0.1145 -0.6903 -0.2294
  142SAPE  H12X15590  -0.041   2.860   9.133  0.1987  0.5607 -2.8517
  142SAPE  H12Y15591   0.136   2.832   9.146 -0.9615 -2.2236  1.2139
  142SAPE  C31315592   0.084   3.028   9.071 -0.8759  0.3422  0.2576
  142SAPE  H13X15593   0.189   3.040   9.105 -1.0289 -2.4659  2.0752
  142SAPE  H13Y15594   0.031   3.119   9.106  2.8821  1.7358  3.0174
  142SAPE  C31415595   0.089   3.012   8.916 -0.0479 -0.3442  0.5824
  142SAPE  H14X15596  -0.008   2.961   8.896  0.8844 -2.5917  1.4166
  142SAPE  H14Y15597   0.158   2.936   8.874  1.1806  0.7006  0.6481
  142SAPE  C31515598   0.097   3.146   8.836 -0.5996 -0.4784 -0.4279
  142SAPE  H15X15599   0.207   3.162   8.831 -0.5894 -0.8189 -1.4258
  142SAPE  H15Y15600   0.044   3.229   8.886  0.6507  1.1000 -1.6298
  142SAPE  C31615601   0.047   3.134   8.695 -0.5195  0.2822 -0.0077
  142SAPE  H16X15602   0.058   3.222   8.628  0.4556  0.6025  0.5475
  142SAPE  H16Y15603  -0.057   3.094   8.703 -0.1495 -1.0343 -1.4231
  142SAPE  C31715604   0.135   3.033   8.620 -0.1099  0.4393  0.4246
  142SAPE  H17X15605   0.100   2.937   8.662  1.2459  1.0372  3.2006
  142SAPE  H17Y15606   0.245   3.038   8.638 -0.2482  1.1454  1.1828
  142SAPE  C31815607   0.103   3.033   8.467 -0.2811  0.0465 -0.1139
  142SAPE  H18X15608   0.141   3.122   8.412 -0.8599  0.2432 -0.2052
  142SAPE  H18Y15609  -0.007   3.020   8.455  0.1354 -5.2794 -0.5364
  142SAPE  H18Z15610   0.152   2.946   8.419  0.8623 -0.5453  1.9864
  143SAPE     N15611   0.915   2.540  11.157 -0.6551 -0.1754 -0.3655
  143SAPE   HN115612   0.899   2.437  11.150  0.3596 -0.2971 -1.0279
  143SAPE   HN215613   0.955   2.555  11.252 -1.3937 -0.0445 -0.0652
  143SAPE   HN315614   0.821   2.582  11.171 -0.3310  0.5961 -0.4937
  143SAPE   C1215615   1.010   2.582  11.050  0.0897  0.4803 -0.2755
  143SAPE  H12A15616   1.083   2.505  11.018  2.1861  2.4096 -0.4258
  143SAPE  H12B15617   1.061   2.675  11.086 -3.0395  1.7152  1.3921
  143SAPE   C1115618   0.937   2.632  10.924  0.2821 -0.3473 -0.5606
  143SAPE  H11A15619   0.883   2.545  10.880 -2.5140  0.4291  1.1270
  143SAPE  H11B15620   1.012   2.679  10.856 -0.5737  2.0410  0.0693
  143SAPE     P15621   0.712   2.739  10.890  0.0351 -0.4338 -0.0352
  143SAPE   O1315622   0.637   2.614  10.911  0.1178 -0.8134  0.3257
  143SAPE   O1415623   0.631   2.860  10.916  0.1982  0.0698  0.1093
  143SAPE   O1215624   0.842   2.736  10.966  0.2134  1.0134  1.0948
  143SAPE   O1115625   0.766   2.749  10.737 -0.3745 -0.0573 -0.8854
  143SAPE    C115626   0.849   2.855  10.692  0.8282  0.3125  0.5082
  143SAPE    HA15627   0.792   2.949  10.698  0.4027  0.1907 -1.1200
  143SAPE    HB15628   0.942   2.872  10.751  1.3979  1.1903 -0.5960
  143SAPE    C215629   0.913   2.830  10.550  0.0508  0.4783  0.6527
  143SAPE    HS15630   0.995   2.902  10.531  3.0064 -2.7822 -0.1927
  143SAPE   O2115631   0.809   2.840  10.456  0.3619 -0.0690  0.6175
  143SAPE   C2115632   0.799   2.955  10.398  0.2235  0.1853  0.9436
  143SAPE   O2215633   0.870   3.055  10.406 -0.2174 -0.0605 -0.1517
  143SAPE   C2215634   0.680   2.942  10.295  0.0205  0.3484  0.1365
  143SAPE   H2R15635   0.643   2.838  10.297  0.0242  0.3582  1.5905
  143SAPE   H2S15636   0.593   3.004  10.327 -1.4486 -0.9623 -1.1474
  143SAPE    C315637   0.984   2.689  10.539  0.8087 -0.3864  0.4192
  143SAPE    HX15638   0.906   2.611  10.550 -0.8039  0.7233 -2.2213
  143SAPE    HY15639   1.057   2.679  10.623  0.9550 -4.3532 -0.0238
  143SAPE   O3115640   1.048   2.675  10.415 -0.3052  0.0032  0.3887
  143SAPE   C3115641   1.096   2.559  10.391  0.0299 -0.0623 -0.3229
  143SAPE   O3215642   1.086   2.467  10.473  0.0923 -0.1360  0.9466
  143SAPE   C3215643   1.189   2.553  10.271 -0.5352 -0.1372  0.4159
  143SAPE   H2X15644   1.286   2.532  10.322 -0.4291  0.2897  0.3923
  143SAPE   H2Y15645   1.194   2.642  10.204 -1.4215 -0.4423 -0.0712
  143SAPE   C2315646   0.728   2.971  10.158  0.0206 -0.6526 -0.3696
  143SAPE   H3R15647   0.789   3.063  10.161  1.7281 -1.7584  0.5345
  143SAPE   H3S15648   0.639   2.984  10.093  1.3581  2.2996 -1.8169
  143SAPE   C2415649   0.815   2.858  10.085  0.1441  0.3330  0.0591
  143SAPE   H4R15650   0.900   2.820  10.146 -1.0539 -0.6946  1.1475
  143SAPE   H4S15651   0.849   2.899   9.988  2.4103 -1.1429  0.1545
  143SAPE   C2515652   0.719   2.744  10.061  0.3178 -0.2729  0.4520
  143SAPE   H5R15653   0.684   2.696  10.153  1.4984 -1.4015  0.3609
  143SAPE   C2615654   0.686   2.682   9.944 -0.3794  0.7885 -0.9835
  143SAPE   H6R15655   0.611   2.604   9.961 -1.8437  2.6425  2.0821
  143SAPE   C2715656   0.733   2.704   9.809  0.6610 -0.5602 -0.1885
  143SAPE   H7R15657   0.780   2.610   9.773  1.8637  0.5205 -1.5440
  143SAPE   H7S15658   0.810   2.783   9.803  0.7301 -0.6685 -0.7804
  143SAPE   C2815659   0.634   2.764   9.717 -0.0413 -0.6492  0.6818
  143SAPE   H8R15660   0.578   2.850   9.755  0.2187 -0.0617 -0.2300
  143SAPE   C2915661   0.607   2.720   9.588 -0.1853 -0.9286  0.0604
  143SAPE   H9R15662   0.551   2.786   9.520  1.5684  0.2302 -0.3310
  143SAPE  C21015663   0.661   2.602   9.519 -0.0060 -0.0358  0.1292
  143SAPE  H10R15664   0.591   2.570   9.439  1.0330 -0.6543 -0.5583
  143SAPE  H10S15665   0.686   2.514   9.581  2.5053  0.5268  0.0383
  143SAPE  C21115666   0.802   2.636   9.460  0.1876 -0.1635  0.3554
  143SAPE  H11R15667   0.885   2.644   9.532  1.3114  0.5010 -0.9542
  143SAPE  C21215668   0.832   2.652   9.335 -0.1278  0.0906  0.4233
  143SAPE  H12R15669   0.941   2.662   9.326  0.1024 -1.0512  1.6226
  143SAPE  C21315670   0.747   2.617   9.213 -0.5109 -0.3970 -0.5536
  143SAPE  H13R15671   0.756   2.703   9.144 -0.9083  1.2065  1.3103
  143SAPE  H13S15672   0.641   2.621   9.245 -0.2121 -1.8912  0.7854
  143SAPE  C21415673   0.781   2.493   9.137 -0.1465  0.9877  0.0042
  143SAPE  H14R15674   0.750   2.402   9.190 -1.1299  1.7112  0.7048
  143SAPE  C21515675   0.812   2.479   9.006  0.8105 -0.0519 -1.3601
  143SAPE  H15R15676   0.837   2.377   8.973 -2.1277 -1.7962  1.2295
  143SAPE  C21615677   0.836   2.595   8.912 -0.0839  0.2441 -0.6537
  143SAPE  H16R15678   0.825   2.699   8.950  0.3156 -0.1724  0.6713
  143SAPE  H16S15679   0.764   2.587   8.828 -2.2352 -0.2231  1.1292
  143SAPE  C21715680   0.985   2.579   8.862 -0.0173  0.3673 -0.5719
  143SAPE  H17R15681   0.993   2.470   8.844 -1.6491 -0.0472  0.9206
  143SAPE  H17S15682   1.060   2.599   8.941 -2.5408 -2.2166  2.7863
  143SAPE  C21815683   1.020   2.666   8.740  0.5507  0.7580  0.1696
  143SAPE  H18R15684   0.929   2.683   8.678  1.4957 -1.8011 -2.0828
  143SAPE  H18S15685   1.092   2.606   8.681  0.9825  0.7452  0.7042
  143SAPE  C21915686   1.084   2.804   8.764  0.2648 -0.7957 -0.2407
  143SAPE  H19R15687   1.118   2.845   8.666  0.5523 -1.3994 -0.3957
  143SAPE  H19S15688   1.176   2.801   8.825  0.5047  0.7133 -0.4881
  143SAPE  C22015689   1.000   2.913   8.825  0.5096  0.4326 -0.5452
  143SAPE  H20R15690   0.912   2.936   8.762  0.2078  0.8802  0.0321
  143SAPE  H20S15691   1.062   3.001   8.852  0.4255  0.2007  0.4656
  143SAPE  H20T15692   0.975   2.875   8.926  1.6168 -0.3331 -0.5384
  143SAPE   C3315693   1.137   2.435  10.185 -0.2642 -0.3609 -0.2782
  143SAPE   H3X15694   1.121   2.345  10.248 -0.6810  0.5680  0.9938
  143SAPE   H3Y15695   1.216   2.413  10.110 -0.2335 -0.2614 -0.2748
  143SAPE   C3415696   1.019   2.476  10.090 -0.1125 -0.2612 -0.5956
  143SAPE   H4X15697   1.053   2.546  10.011 -1.1512  0.0056 -0.8155
  143SAPE   H4Y15698   0.939   2.529  10.146 -0.6035 -2.0427  0.4721
  143SAPE   C3515699   0.948   2.355  10.023  0.5307  0.4978 -0.0003
  143SAPE   H5X15700   1.033   2.293   9.986  1.6367  3.6982 -3.5417
  143SAPE   H5Y15701   0.911   2.403   9.930  0.6057  0.8366  0.1447
  143SAPE   C3615702   0.847   2.273  10.102  0.5308 -0.4597 -0.2864
  143SAPE   H6X15703   0.770   2.348  10.131 -0.9296 -2.0230  0.0635
  143SAPE   H6Y15704   0.894   2.230  10.193  0.6938 -1.5417 -0.8660
  143SAPE   C3715705   0.785   2.155  10.030  0.1365  0.1862  0.4235
  143SAPE   H7X15706   0.728   2.101  10.110 -0.0722  0.1449  0.2493
  143SAPE   H7Y15707   0.870   2.097   9.989  2.7621  2.4106  2.3268
  143SAPE   C3815708   0.690   2.201   9.920 -0.1883 -0.2380  0.3222
  143SAPE   H8X15709   0.741   2.248   9.833  1.0596 -1.1485  0.5281
  143SAPE   H8Y15710   0.615   2.271   9.961 -0.9907 -1.0890  0.3371
  143SAPE   C3915711   0.612   2.085   9.863 -0.0354 -0.0360 -0.1289
  143SAPE   H9X15712   0.543   2.035   9.935  0.6324 -2.1771 -0.9055
  143SAPE   H9Y15713   0.678   1.998   9.842 -0.7818 -0.6605  0.0359
  143SAPE  C31015714   0.529   2.125   9.746  0.4247 -0.3583 -0.2740
  143SAPE  H10X15715   0.596   2.155   9.663  1.9623 -2.7537 -0.0097
  143SAPE  H10Y15716   0.456   2.201   9.781  0.5407 -0.9410  1.3301
  143SAPE  C31115717   0.441   2.010   9.700  0.0555  0.8741 -0.1907
  143SAPE  H11X15718   0.373   1.966   9.776  0.3727  0.5475 -0.0889
  143SAPE  H11Y15719   0.504   1.923   9.670  0.1565  0.7902  0.2587
  143SAPE  C31215720   0.361   2.054   9.569 -0.3511  0.1591 -0.2746
  143SAPE  H12X15721   0.279   2.122   9.600  0.0392  0.7445 -0.5026
  143SAPE  H12Y15722   0.321   1.955   9.537  2.3359 -1.1380  0.1247
  143SAPE  C31315723   0.452   2.107   9.461  0.1685  0.3747  0.3279
  143SAPE  H13X15724   0.545   2.045   9.464  0.2505  0.5293  1.3123
  143SAPE  H13Y15725   0.477   2.214   9.478 -1.0394  0.7796 -0.3405
  143SAPE  C31415726   0.398   2.102   9.316  0.3630 -0.3014  0.4486
  143SAPE  H14X15727   0.305   2.163   9.307 -2.4172 -3.8915  1.8322
  143SAPE  H14Y15728   0.356   2.003   9.288  0.3219  0.1302 -1.1270
  143SAPE  C31515729   0.499   2.127   9.206  0.3717 -0.4158 -0.8101
  143SAPE  H15X15730   0.572   2.043   9.200 -0.5333 -1.5202  2.1141
  143SAPE  H15Y15731   0.561   2.216   9.227 -0.0875 -0.8304  2.9984
  143SAPE  C31615732   0.422   2.122   9.074  0.1053  0.3285  0.3456
  143SAPE  H16X15733   0.342   2.199   9.071 -2.6448 -2.3400 -1.8752
  143SAPE  H16Y15734   0.363   2.028   9.068  2.3406 -1.0715 -2.2204
  143SAPE  C31715735   0.520   2.145   8.960  0.4421 -0.8810  0.5250
  143SAPE  H17X15736   0.593   2.063   8.948  0.0728 -0.9717 -1.6025
  143SAPE  H17Y15737   0.573   2.242   8.954 -0.9396 -0.1671 -1.4030
  143SAPE  C31815738   0.431   2.138   8.830  0.0721  0.0745 -0.0492
  143SAPE  H18X15739   0.365   2.050   8.813  0.6429 -0.5907  1.0795
  143SAPE  H18Y15740   0.497   2.156   8.743 -0.6903 -2.0496 -1.1199
  143SAPE  H18Z15741   0.365   2.228   8.839  2.3147  1.7724  0.3370
  144SAPE     N15742   5.180   0.713  10.719  0.1980  0.3770  0.2921
  144SAPE   HN115743   5.217   0.619  10.747  0.6669 -0.0327 -1.5154
  144SAPE   HN215744   5.243   0.761  10.651  1.3357 -2.1176 -0.5528
  144SAPE   HN315745   5.182   0.771  10.805 -0.2695 -0.2456  0.7341
  144SAPE   C1215746   5.045   0.687  10.650  0.3608 -0.2362 -0.0915
  144SAPE  H12A15747   5.064   0.605  10.577  1.0000  0.4945 -0.7617
  144SAPE  H12B15748   5.014   0.780  10.599  1.9351  0.4386  0.1081
  144SAPE   C1115749   4.941   0.628  10.742  0.1267  0.2867  0.1993
  144SAPE  H11A15750   4.978   0.527  10.768  1.3867  0.8443  0.6273
  144SAPE  H11B15751   4.851   0.611  10.679 -0.3022  3.5016 -0.1900
  144SAPE     P15752   4.859   0.839  10.874 -0.4127 -0.2452 -0.0913
  144SAPE   O1315753   4.809   0.858  11.013  0.1700  0.2157 -0.8872
  144SAPE   O1415754   4.947   0.934  10.813  0.8255 -0.5641  0.1894
  144SAPE   O1215755   4.925   0.693  10.863  0.6408  0.6679 -0.8171
  144SAPE   O1115756   4.735   0.817  10.779  0.6949 -0.9031 -0.0777
  144SAPE    C115757   4.656   0.941  10.763 -0.0877 -0.5414 -0.1476
  144SAPE    HA15758   4.625   0.981  10.862  0.8979 -2.7479  1.1255
  144SAPE    HB15759   4.724   1.019  10.721 -0.9034 -0.1742 -0.8104
  144SAPE    C215760   4.531   0.925  10.672 -0.3306 -0.4951  0.1161
  144SAPE    HS15761   4.443   0.894  10.730 -1.8275  0.1901 -1.6859
  144SAPE   O2115762   4.560   0.828  10.574  0.0539  0.4457 -0.2060
  144SAPE   C2115763   4.452   0.791  10.501 -0.5006  0.1579  0.5658
  144SAPE   O2215764   4.335   0.813  10.521  0.2129 -0.2912  0.2169
  144SAPE   C2215765   4.500   0.717  10.370 -0.3854 -0.5127 -0.2770
  144SAPE   H2R15766   4.573   0.640  10.403 -0.0510 -0.1224 -0.1042
  144SAPE   H2S15767   4.417   0.659  10.323 -0.8994  0.4082 -0.5246
  144SAPE    C315768   4.488   1.055  10.607  0.3470  0.1188  0.2419
  144SAPE    HX15769   4.492   1.136  10.684 -0.1342  2.4288 -2.0084
  144SAPE    HY15770   4.384   1.043  10.569 -0.8292 -1.2015  3.5348
  144SAPE   O3115771   4.571   1.077  10.493  0.2053  0.7007  0.0262
  144SAPE   C3115772   4.640   1.184  10.477  0.3361 -0.1412  0.1865
  144SAPE   O3215773   4.637   1.281  10.554 -0.1396 -0.0644  0.6260
  144SAPE   C3215774   4.733   1.176  10.361 -1.4137  0.2278 -0.1744
  144SAPE   H2X15775   4.775   1.073  10.362 -1.0322  0.3376  2.1513
  144SAPE   H2Y15776   4.811   1.254  10.361 -1.7015  0.5714  1.5432
  144SAPE   C2315777   4.578   0.807  10.268  0.4971 -0.3007 -0.1063
  144SAPE   H3R15778   4.681   0.811  10.310 -0.0320  0.5816  1.1603
  144SAPE   H3S15779   4.532   0.908  10.274 -1.4862 -1.0889 -1.2950
  144SAPE   C2415780   4.578   0.759  10.124 -0.3995  0.2036  0.0707
  144SAPE   H4R15781   4.631   0.663  10.108  1.4354  1.3706 -1.3879
  144SAPE   H4S15782   4.637   0.833  10.065 -1.5845 -0.5901 -2.2512
  144SAPE   C2515783   4.442   0.747  10.058 -0.2471 -0.3519 -0.5692
  144SAPE   H5R15784   4.376   0.680  10.115  1.4477  0.2181  2.2463
  144SAPE   C2615785   4.407   0.776   9.937 -0.5042 -0.0760  0.0466
  144SAPE   H6R15786   4.300   0.758   9.920 -0.5498  0.6258 -0.4389
  144SAPE   C2715787   4.498   0.836   9.827  0.5561 -0.2926 -0.3615
  144SAPE   H7R15788   4.604   0.831   9.859  0.3165 -1.5017  0.2674
  144SAPE   H7S15789   4.474   0.945   9.826  2.4193  0.1549 -0.8686
  144SAPE   C2815790   4.481   0.766   9.696 -0.0199 -0.1266 -0.2094
  144SAPE   H8R15791   4.546   0.680   9.674  0.5525  0.2658 -0.0660
  144SAPE   C2915792   4.392   0.815   9.606  0.3407  0.6554 -0.3699
  144SAPE   H9R15793   4.386   0.771   9.505  1.0493  0.3873 -0.3030
  144SAPE  C21015794   4.308   0.942   9.622  0.0062  0.7930  0.6467
  144SAPE  H10R15795   4.373   1.031   9.606  0.2195  0.3717 -1.1122
  144SAPE  H10S15796   4.256   0.948   9.719 -1.0874  1.1041  0.0616
  144SAPE  C21115797   4.197   0.948   9.520  0.3631 -0.9496  0.2719
  144SAPE  H11R15798   4.145   0.859   9.481 -1.8509  0.8850 -1.2354
  144SAPE  C21215799   4.137   1.067   9.491  0.5994  0.5054 -0.0861
  144SAPE  H12R15800   4.060   1.072   9.412 -0.7528 -2.3497  0.9133
  144SAPE  C21315801   4.160   1.198   9.558 -0.3203 -0.3909 -0.5489
  144SAPE  H13R15802   4.198   1.187   9.661 -1.8149  0.6556  0.1525
  144SAPE  H13S15803   4.064   1.251   9.576 -0.8512 -1.1005 -1.1834
  144SAPE  C21415804   4.254   1.286   9.477  0.4951 -0.3442 -0.2755
  144SAPE  H14R15805   4.356   1.274   9.516 -0.6755 -1.3694  2.7448
  144SAPE  C21515806   4.219   1.374   9.375 -0.5599  0.8899  0.1110
  144SAPE  H15R15807   4.299   1.436   9.331  1.5093  0.0460  2.4372
  144SAPE  C21615808   4.076   1.397   9.325 -0.3554  0.4651 -0.6585
  144SAPE  H16R15809   4.044   1.497   9.363 -2.9674  0.0217 -1.4658
  144SAPE  H16S15810   4.011   1.317   9.366  1.3261 -0.3769  0.4912
  144SAPE  C21715811   4.051   1.382   9.176 -0.7225 -0.1060 -0.1800
  144SAPE  H17R15812   4.115   1.463   9.133 -0.0608 -0.5338 -0.0234
  144SAPE  H17S15813   3.941   1.393   9.172 -0.7682 -0.3303  0.3478
  144SAPE  C21815814   4.087   1.249   9.117 -0.0614  0.4453 -1.0599
  144SAPE  H18R15815   4.026   1.176   9.175  2.8672 -0.3023  1.3111
  144SAPE  H18S15816   4.193   1.224   9.136 -0.3970  0.5118  1.2345
  144SAPE  C21915817   4.059   1.247   8.966 -0.3263 -0.3371 -0.3163
  144SAPE  H19R15818   4.113   1.330   8.916 -0.9437  0.8460  0.8959
  144SAPE  H19S15819   3.955   1.282   8.948 -0.3378 -0.3303 -0.2373
  144SAPE  C22015820   4.090   1.116   8.892  0.0155  0.4881 -0.0527
  144SAPE  H20R15821   4.199   1.095   8.893  0.0941  0.7817 -1.1933
  144SAPE  H20S15822   4.061   1.130   8.786 -0.0101  0.2190 -0.0831
  144SAPE  H20T15823   4.044   1.023   8.932  1.1957 -1.9353 -3.8394
  144SAPE   C3315824   4.668   1.171  10.227  0.4395  0.2056 -0.0610
  144SAPE   H3X15825   4.603   1.261  10.222 -0.4816 -0.5099 -1.6778
  144SAPE   H3Y15826   4.602   1.082  10.225 -0.0700  0.5547 -2.2944
  144SAPE   C3415827   4.761   1.174  10.106 -0.8991 -0.4516  0.0589
  144SAPE   H4X15828   4.861   1.125  10.107 -0.2894  0.7514 -0.1295
  144SAPE   H4Y15829   4.794   1.280  10.103  0.4894 -0.8841 -1.5624
  144SAPE   C3515830   4.697   1.135   9.971 -0.2129 -0.1427 -0.1569
  144SAPE   H5X15831   4.587   1.152   9.978 -0.2693  0.1216 -1.4748
  144SAPE   H5Y15832   4.709   1.029   9.942 -1.2026 -0.2034 -0.3825
  144SAPE   C3615833   4.756   1.227   9.863  0.0022 -0.2537  0.3919
  144SAPE   H6X15834   4.867   1.233   9.868  0.1464  0.5416 -2.0763
  144SAPE   H6Y15835   4.719   1.329   9.889  2.6734  0.8805  0.1513
  144SAPE   C3715836   4.729   1.183   9.722 -0.2416 -0.2263  0.7619
  144SAPE   H7X15837   4.722   1.265   9.647  2.3439 -0.9203 -0.3509
  144SAPE   H7Y15838   4.636   1.122   9.730 -1.0825  0.9396  0.2646
  144SAPE   C3815839   4.838   1.091   9.656 -0.2076 -0.2513 -0.1192
  144SAPE   H8X15840   4.855   1.003   9.722 -1.3050 -0.4301 -0.0662
  144SAPE   H8Y15841   4.935   1.144   9.669 -0.6563  0.6250 -0.2672
  144SAPE   C3915842   4.823   1.068   9.505 -0.2899  0.6441  0.0642
  144SAPE   H9X15843   4.919   1.029   9.465  0.2005  2.1189 -0.2869
  144SAPE   H9Y15844   4.811   1.167   9.456  0.3917 -0.5899 -2.8147
  144SAPE  C31015845   4.705   0.974   9.458  0.6296 -0.6823  0.6795
  144SAPE  H10X15846   4.611   1.022   9.492  0.9961 -0.3609  1.2705
  144SAPE  H10Y15847   4.711   0.882   9.520 -0.6045 -0.7113  0.7681
  144SAPE  C31115848   4.687   0.946   9.310  0.2408  0.0280 -0.0847
  144SAPE  H11X15849   4.768   0.876   9.280  0.6541  0.5836 -0.2801
  144SAPE  H11Y15850   4.688   1.033   9.242 -2.1648 -1.3856 -2.1049
  144SAPE  C31215851   4.557   0.870   9.296  0.0273  0.1412  0.0068
  144SAPE  H12X15852   4.470   0.922   9.341 -0.1794 -1.3606  1.4184
  144SAPE  H12Y15853   4.548   0.771   9.345 -3.4410 -1.2241 -2.9409
  144SAPE  C31315854   4.528   0.842   9.142 -0.0340 -0.0457  0.3939
  144SAPE  H13X15855   4.621   0.802   9.096 -0.0203  0.4567 -0.0204
  144SAPE  H13Y15856   4.500   0.942   9.105  1.0271  0.4302  0.8264
  144SAPE  C31415857   4.408   0.755   9.124  0.3641  0.5395  0.0798
  144SAPE  H14X15858   4.321   0.800   9.177  1.0187  1.0530  0.7423
  144SAPE  H14Y15859   4.445   0.662   9.173 -1.0767 -1.2171 -1.9698
  144SAPE  C31515860   4.367   0.733   8.983 -0.0372 -0.0609  0.2222
  144SAPE  H15X15861   4.454   0.697   8.924  0.5022  0.0758  0.9181
  144SAPE  H15Y15862   4.343   0.828   8.930  0.6604  0.5160  0.9094
  144SAPE  C31615863   4.234   0.663   8.970 -0.1857  0.2062 -0.3410
  144SAPE  H16X15864   4.149   0.722   9.011  0.4320 -0.5093  2.2026
  144SAPE  H16Y15865   4.251   0.570   9.030  1.7771  0.9883  0.4151
  144SAPE  C31715866   4.194   0.632   8.824 -0.4053  0.1762 -1.1370
  144SAPE  H17X15867   4.127   0.543   8.820  1.1330 -0.9788 -2.5965
  144SAPE  H17Y15868   4.289   0.611   8.771  0.5033 -0.7316  0.7406
  144SAPE  C31815869   4.119   0.748   8.753 -0.0294  0.1735 -0.2987
  144SAPE  H18X15870   4.120   0.729   8.644 -0.1580 -0.6831 -0.1591
  144SAPE  H18Y15871   4.168   0.847   8.766 -1.2056  1.1387 -2.6822
  144SAPE  H18Z15872   4.014   0.746   8.788  0.7352 -2.5824  2.2352
  145SAPE     N15873   2.009   2.102  11.368 -0.0064  0.2984  0.0229
  145SAPE   HN115874   1.913   2.113  11.408 -0.8919 -0.5362 -1.7435
  145SAPE   HN215875   2.044   2.004  11.365  2.8720  1.2023 -3.7020
  145SAPE   HN315876   2.083   2.156  11.417 -0.5559  0.5461  0.5938
  145SAPE   C1215877   2.015   2.147  11.225  0.3642  0.6901  0.1293
  145SAPE  H12A15878   1.936   2.101  11.163  0.7867  1.0589 -0.7075
  145SAPE  H12B15879   2.114   2.117  11.184  0.5524  0.1070  0.9802
  145SAPE   C1115880   2.009   2.301  11.213  0.7137  0.8445  0.0650
  145SAPE  H11A15881   1.911   2.344  11.243  0.3525 -0.3464  0.6275
  145SAPE  H11B15882   2.022   2.329  11.106  0.3810  0.3085 -0.1163
  145SAPE     P15883   2.235   2.430  11.230 -0.1423  0.1399 -0.1063
  145SAPE   O1315884   2.190   2.548  11.152  0.1063  0.2556  0.3237
  145SAPE   O1415885   2.342   2.444  11.327 -0.2984 -0.3469  0.2230
  145SAPE   O1215886   2.112   2.364  11.291  0.4473  0.7353  0.0298
  145SAPE   O1115887   2.281   2.322  11.125  0.7327  0.1045  0.2105
  145SAPE    C115888   2.395   2.351  11.043  0.3312 -0.6790  0.0742
  145SAPE    HA15889   2.476   2.402  11.099 -1.1883 -0.7144  2.4280
  145SAPE    HB15890   2.436   2.250  11.019 -0.1200 -1.1129  1.0871
  145SAPE    C215891   2.370   2.408  10.902  0.1595 -0.0619  0.0288
  145SAPE    HS15892   2.454   2.376  10.837 -0.6709 -0.6302 -0.7943
  145SAPE   O2115893   2.356   2.554  10.900 -0.1946  0.1181 -0.4828
  145SAPE   C2115894   2.449   2.644  10.936  0.4605 -0.2555 -0.3904
  145SAPE   O2215895   2.562   2.621  10.972  0.0485 -0.5658  1.3041
  145SAPE   C2215896   2.373   2.785  10.936  0.4569  0.5402  0.1944
  145SAPE   H2R15897   2.311   2.771  11.028 -0.4184  0.2654 -0.4210
  145SAPE   H2S15898   2.445   2.859  10.977 -0.8904  1.3566  1.1777
  145SAPE    C315899   2.242   2.339  10.838 -0.7298  0.2331  0.4037
  145SAPE    HX15900   2.158   2.324  10.910 -1.5980 -0.8611 -0.8002
  145SAPE    HY15901   2.280   2.241  10.803  0.9703  0.5390  1.2675
  145SAPE   O3115902   2.195   2.394  10.717  0.0847  0.0782 -0.2980
  145SAPE   C3115903   2.266   2.373  10.598 -0.4304 -0.4565 -0.4025
  145SAPE   O3215904   2.363   2.299  10.591 -0.5645  0.4442 -0.1690
  145SAPE   C3215905   2.186   2.434  10.490  0.3527 -0.7050  0.5416
  145SAPE   H2X15906   2.167   2.541  10.515  2.0277 -0.6009  1.5273
  145SAPE   H2Y15907   2.085   2.389  10.488 -0.4065  0.9303 -0.0490
  145SAPE   C2315908   2.301   2.819  10.809 -0.3044 -0.4424  0.4283
  145SAPE   H3R15909   2.227   2.897  10.837 -0.7940 -1.5732  2.5095
  145SAPE   H3S15910   2.244   2.733  10.767  0.1096 -1.3264  1.6273
  145SAPE   C2415911   2.394   2.889  10.702  0.0872  0.3372 -0.6778
  145SAPE   H4R15912   2.472   2.812  10.679  0.4245  0.4436  0.1043
  145SAPE   H4S15913   2.451   2.966  10.757 -0.8243 -0.8937  2.2088
  145SAPE   C2515914   2.323   2.938  10.581  0.0653  0.0234  0.1557
  145SAPE   H5R15915   2.213   2.940  10.586  0.1233  0.3218  1.8511
  145SAPE   C2615916   2.384   2.963  10.461 -0.0388  0.6190 -0.4317
  145SAPE   H6R15917   2.320   2.983  10.374  0.3628 -0.0114 -0.8763
  145SAPE   C2715918   2.529   2.958  10.436  0.2410  0.6673 -0.3440
  145SAPE   H7R15919   2.533   2.875  10.362 -0.0253  0.3055  0.0422
  145SAPE   H7S15920   2.598   2.932  10.520 -0.8471  2.5056  1.2147
  145SAPE   C2815921   2.574   3.090  10.374 -0.2730 -0.1348  0.1247
  145SAPE   H8R15922   2.606   3.167  10.446  2.5898 -1.6467  0.6246
  145SAPE   C2915923   2.586   3.120  10.244 -0.6536 -1.2324  0.3728
  145SAPE   H9R15924   2.613   3.223  10.214  1.0852 -1.4302  1.1300
  145SAPE  C21015925   2.545   3.023  10.138  0.4410  0.1967 -0.0655
  145SAPE  H10R15926   2.467   2.948  10.165  0.0203  0.7865  0.3712
  145SAPE  H10S15927   2.640   2.966  10.131  1.0950  1.4621 -2.9586
  145SAPE  C21115928   2.494   3.087  10.015 -0.1329  0.0637  0.8851
  145SAPE  H11R15929   2.396   3.138  10.014 -0.1093  0.5144 -4.1526
  145SAPE  C21215930   2.569   3.099   9.900  1.0968 -0.1671  0.0496
  145SAPE  H12R15931   2.519   3.162   9.824 -1.8433 -1.2117  0.9539
  145SAPE  C21315932   2.699   3.030   9.861 -0.0963  0.2018 -0.6368
  145SAPE  H13R15933   2.672   2.940   9.802  0.8583 -1.3009  1.0993
  145SAPE  H13S15934   2.741   2.993   9.957  0.6812  2.9632  0.1729
  145SAPE  C21415935   2.793   3.124   9.791  0.5435  0.0412 -0.1211
  145SAPE  H14R15936   2.841   3.193   9.862  0.3093 -0.4253  0.5010
  145SAPE  C21515937   2.830   3.128   9.667 -0.8808  0.2881  0.1071
  145SAPE  H15R15938   2.901   3.202   9.627 -0.4990  1.2515  2.4600
  145SAPE  C21615939   2.787   3.038   9.559 -0.0329  0.6947  0.1374
  145SAPE  H16R15940   2.693   2.983   9.582  1.2045 -1.8865 -0.6045
  145SAPE  H16S15941   2.867   2.965   9.532 -1.4886 -0.2408 -1.8621
  145SAPE  C21715942   2.764   3.119   9.429  0.0951  0.4224  0.2864
  145SAPE  H17R15943   2.853   3.179   9.400 -0.7680  0.4732 -2.6133
  145SAPE  H17S15944   2.676   3.181   9.457  0.7322  0.1548  3.2107
  145SAPE  C21815945   2.735   3.022   9.302  0.5018 -0.5089 -0.5243
  145SAPE  H18R15946   2.657   2.953   9.341 -0.5595  0.2559 -1.2235
  145SAPE  H18S15947   2.828   2.963   9.287  0.3294 -0.6199 -1.2090
  145SAPE  C21915948   2.684   3.101   9.183 -0.2815  0.3797 -0.3161
  145SAPE  H19R15949   2.627   3.186   9.226 -0.3700  0.6180 -0.8952
  145SAPE  H19S15950   2.605   3.048   9.126  0.2436  0.4647 -1.1531
  145SAPE  C22015951   2.785   3.157   9.085  0.8322  0.4260 -0.1221
  145SAPE  H20R15952   2.733   3.228   9.018 -0.8573 -0.7614 -0.1426
  145SAPE  H20S15953   2.833   3.078   9.024  1.6755  0.2540  0.7457
  145SAPE  H20T15954   2.863   3.207   9.146  2.6129 -1.6299 -0.5587
  145SAPE   C3315955   2.249   2.433  10.349 -0.6020  0.3436 -0.4568
  145SAPE   H3X15956   2.172   2.446  10.269 -0.5711  0.2140 -0.5089
  145SAPE   H3Y15957   2.289   2.334  10.315 -0.5784 -0.4451  1.7249
  145SAPE   C3415958   2.365   2.532  10.320  0.4632  0.6507 -0.3349
  145SAPE   H4X15959   2.450   2.508  10.387 -0.7778 -0.3020  0.9447
  145SAPE   H4Y15960   2.322   2.629  10.353 -2.5718 -0.9630  0.8155
  145SAPE   C3515961   2.413   2.518  10.171  0.5548  1.6302  0.1839
  145SAPE   H5X15962   2.323   2.525  10.107  0.4610 -1.4647 -0.1494
  145SAPE   H5Y15963   2.459   2.417  10.164  0.7467  1.7325 -0.0452
  145SAPE   C3615964   2.514   2.612  10.124  0.1220 -0.5935 -0.4560
  145SAPE   H6X15965   2.605   2.591  10.184  1.9702 -1.5311 -3.3736
  145SAPE   H6Y15966   2.482   2.719  10.127  0.9207 -0.3300 -0.8634
  145SAPE   C3715967   2.552   2.582   9.977 -0.8905 -0.0267 -0.6285
  145SAPE   H7X15968   2.456   2.593   9.922 -1.1775 -0.3749 -0.2065
  145SAPE   H7Y15969   2.573   2.473   9.985  0.8363  0.4304  2.7931
  145SAPE   C3815970   2.669   2.658   9.920  0.0314  0.3946 -0.0905
  145SAPE   H8X15971   2.755   2.670   9.990 -0.5892  1.6199  0.4909
  145SAPE   H8Y15972   2.631   2.762   9.933 -0.0175  0.3177  0.3976
  145SAPE   C3915973   2.701   2.637   9.765 -0.7516 -0.3132 -0.5897
  145SAPE   H9X15974   2.740   2.534   9.751 -1.8442 -0.9104  0.5266
  145SAPE   H9Y15975   2.776   2.713   9.733 -0.3399 -0.8765 -0.9685
  145SAPE  C31015976   2.587   2.668   9.669  0.3609 -0.1840 -1.3406
  145SAPE  H10X15977   2.541   2.761   9.708  1.2430  0.3027 -1.4503
  145SAPE  H10Y15978   2.511   2.586   9.669  1.2980 -1.0928 -2.4425
  145SAPE  C31115979   2.640   2.671   9.528 -0.5938  0.6550 -0.5256
  145SAPE  H11X15980   2.725   2.739   9.506  1.4367 -1.6285 -0.2900
  145SAPE  H11Y15981   2.549   2.702   9.473 -1.6625 -1.5755 -0.1397
  145SAPE  C31215982   2.673   2.529   9.461  0.1218 -0.0128 -0.2433
  145SAPE  H12X15983   2.581   2.468   9.469 -0.1917  0.1851 -1.9154
  145SAPE  H12Y15984   2.764   2.481   9.503 -0.0922  0.3481  0.6484
  145SAPE  C31315985   2.706   2.539   9.307  0.3312  0.2227 -0.0674
  145SAPE  H13X15986   2.807   2.585   9.304  0.1589  0.5887 -0.3705
  145SAPE  H13Y15987   2.637   2.612   9.259 -1.8399 -1.8270 -0.2384
  145SAPE  C31415988   2.673   2.406   9.229  0.5076  0.7347  0.6429
  145SAPE  H14X15989   2.568   2.371   9.236  1.0314 -1.0911 -0.1034
  145SAPE  H14Y15990   2.739   2.324   9.261  1.9375  0.6156 -2.2377
  145SAPE  C31515991   2.701   2.420   9.080  0.4578  0.2664 -0.5366
  145SAPE  H15X15992   2.806   2.453   9.068  0.9625 -1.2464 -0.4075
  145SAPE  H15Y15993   2.635   2.507   9.057  0.2994  0.7763  1.6193
  145SAPE  C31615994   2.661   2.308   8.987 -0.0548  0.4853 -0.5033
  145SAPE  H16X15995   2.558   2.271   9.010 -0.5144  0.9797 -1.7310
  145SAPE  H16Y15996   2.717   2.215   9.010 -0.2440  0.5464  0.2530
  145SAPE  C31715997   2.678   2.348   8.841 -0.3111 -0.6824 -0.5729
  145SAPE  H17X15998   2.782   2.380   8.818 -1.0537  1.4966 -1.2484
  145SAPE  H17Y15999   2.620   2.443   8.832  2.8155  1.4439 -0.0843
  145SAPE  C31816000   2.631   2.227   8.753 -0.1731  0.2906 -0.9778
  145SAPE  H18X16001   2.525   2.217   8.784  0.5140 -3.5657  0.6816
  145SAPE  H18Y16002   2.684   2.133   8.781 -1.9946 -0.9331 -1.4221
  145SAPE  H18Z16003   2.647   2.247   8.645 -1.5281  2.0933 -0.8763
  146SAPE     N16004   6.119   3.808  11.016  0.5616  0.3068 -0.2112
  146SAPE   HN116005   6.115   3.705  11.026  3.2771  0.1012 -0.6560
  146SAPE   HN216006   6.221   3.826  11.027  0.9767 -1.7900 -0.3442
  146SAPE   HN316007   6.065   3.861  11.088 -0.5092  0.5693 -1.1846
  146SAPE   C1216008   6.075   3.845  10.870  0.1519  0.5418 -0.0602
  146SAPE  H12A16009   5.972   3.804  10.857 -0.0574  1.1250 -0.2840
  146SAPE  H12B16010   6.147   3.803  10.797 -0.4275 -3.1268  1.2560
  146SAPE   C1116011   6.063   3.995  10.843 -0.0319  0.3636  0.0006
  146SAPE  H11A16012   6.051   4.010  10.733 -0.5066  0.6207  0.0817
  146SAPE  H11B16013   6.155   4.040  10.884 -0.1103 -1.3786  2.3451
  146SAPE     P16014   5.906   4.189  10.908  0.1944 -0.1268  0.1224
  146SAPE   O1316015   5.785   4.211  10.996 -0.0979 -0.0680  0.0153
  146SAPE   O1416016   6.029   4.278  10.918 -0.1932 -0.4575 -0.0037
  146SAPE   O1216017   5.955   4.039  10.926 -0.0428  0.3169  0.2455
  146SAPE   O1116018   5.855   4.188  10.757 -0.0418 -0.0342 -0.3508
  146SAPE    C116019   5.775   4.082  10.703  0.1342  0.1528 -0.3867
  146SAPE    HA16020   5.837   3.998  10.663  1.5357  0.5726  0.8043
  146SAPE    HB16021   5.701   4.039  10.773  0.7101 -1.2320 -0.5917
  146SAPE    C216022   5.689   4.134  10.584 -0.0619 -0.0802 -0.5258
  146SAPE    HS16023   5.624   4.051  10.549 -2.1894  2.0648 -1.9494
  146SAPE   O2116024   5.767   4.187  10.472 -0.2876 -0.3165  0.6063
  146SAPE   C2116025   5.806   4.093  10.386 -0.3208 -0.2642 -0.1506
  146SAPE   O2216026   5.776   3.970  10.401  0.0741  0.0068 -0.0176
  146SAPE   C2216027   5.871   4.155  10.254  0.3269 -0.0734  0.0117
  146SAPE   H2R16028   5.803   4.239  10.228 -0.9647 -0.9818  0.3278
  146SAPE   H2S16029   5.969   4.195  10.288  0.9427 -1.6057  0.1216
  146SAPE    C316030   5.601   4.252  10.648  0.0109  0.1699  0.0225
  146SAPE    HX16031   5.670   4.321  10.701 -0.0178  0.7756 -0.7128
  146SAPE    HY16032   5.532   4.215  10.727 -0.9760 -0.4170 -1.0828
  146SAPE   O3116033   5.524   4.330  10.560  0.1121  0.1014 -0.0825
  146SAPE   C3116034   5.425   4.258  10.494  0.5668 -0.7001  0.1283
  146SAPE   O3216035   5.394   4.142  10.517 -0.0129 -0.0086 -0.1958
  146SAPE   C3216036   5.370   4.340  10.380  0.3935  0.0044 -0.0352
  146SAPE   H2X16037   5.430   4.433  10.372 -1.6710  1.2366 -2.6641
  146SAPE   H2Y16038   5.269   4.366  10.419  0.1052 -1.3962  0.2152
  146SAPE   C2316039   5.874   4.050  10.141 -1.0581  0.6065  0.0243
  146SAPE   H3R16040   5.774   4.003  10.132 -0.4597 -0.5313 -1.0797
  146SAPE   H3S16041   5.936   3.962  10.170 -0.4678  0.8851 -0.3652
  146SAPE   C2416042   5.918   4.100  10.002 -0.5890  1.0163  0.5221
  146SAPE   H4R16043   5.933   4.016   9.932 -0.7424  0.7185  0.8415
  146SAPE   H4S16044   6.015   4.154  10.017  0.3351  0.1001 -1.7770
  146SAPE   C2516045   5.806   4.180   9.939 -0.8431 -0.3088 -0.1843
  146SAPE   H5R16046   5.744   4.239  10.008  1.5020 -0.7726  2.4941
  146SAPE   C2616047   5.759   4.167   9.810 -0.0596  0.0199 -0.4787
  146SAPE   H6R16048   5.676   4.233   9.780  0.7536  0.7099 -1.2500
  146SAPE   C2716049   5.820   4.085   9.702 -0.0426 -0.1196  0.3434
  146SAPE   H7R16050   5.768   3.987   9.693  0.5838 -0.4487  0.2763
  146SAPE   H7S16051   5.929   4.069   9.717  0.1542 -2.6766 -2.7377
  146SAPE   C2816052   5.799   4.145   9.565  0.6695  0.2663  0.2542
  146SAPE   H8R16053   5.746   4.241   9.561  1.3848  0.7104  1.1922
  146SAPE   C2916054   5.836   4.090   9.446 -0.0000 -0.0354 -0.7671
  146SAPE   H9R16055   5.820   4.138   9.348 -1.6027 -0.4780 -0.7571
  146SAPE  C21016056   5.926   3.970   9.441 -0.0517 -0.3232 -0.2060
  146SAPE  H10R16057   5.969   3.936   9.537 -1.3065 -0.4423  0.3413
  146SAPE  H10S16058   6.016   4.005   9.386 -2.3500  1.6992 -3.0301
  146SAPE  C21116059   5.852   3.864   9.363 -0.2193 -0.0636 -0.0006
  146SAPE  H11R16060   5.776   3.815   9.425  0.0860 -0.1846  0.2810
  146SAPE  C21216061   5.844   3.838   9.234 -0.4989 -0.0872 -0.2787
  146SAPE  H12R16062   5.763   3.766   9.214 -0.7599  0.8185 -3.0289
  146SAPE  C21316063   5.911   3.907   9.113  0.3011  0.3330  0.3617
  146SAPE  H13R16064   5.973   3.828   9.065  1.0328 -0.3308  2.2874
  146SAPE  H13S16065   5.992   3.977   9.142  1.2195 -0.6482  0.2265
  146SAPE  C21416066   5.814   3.982   9.026 -0.7287 -0.0858  0.1160
  146SAPE  H14R16067   5.757   4.062   9.076  0.0551 -0.6113  1.9341
  146SAPE  C21516068   5.802   3.961   8.898  0.5613  0.4951 -0.0141
  146SAPE  H15R16069   5.738   4.032   8.844 -0.5073 -2.4977 -2.9779
  146SAPE  C21616070   5.865   3.856   8.812 -0.0944 -0.1506  0.1509
  146SAPE  H16R16071   5.959   3.812   8.853 -1.4536 -3.2211  0.2405
  146SAPE  H16S16072   5.906   3.909   8.723 -0.8519 -1.0253 -0.7533
  146SAPE  C21716073   5.780   3.733   8.775  0.5199  1.2071  0.8793
  146SAPE  H17R16074   5.749   3.679   8.867 -0.7281  2.2578  1.0980
  146SAPE  H17S16075   5.846   3.654   8.734 -2.6596 -2.1003  1.6593
  146SAPE  C21816076   5.655   3.768   8.703  0.5372  0.0929 -0.5935
  146SAPE  H18R16077   5.668   3.865   8.649  2.0936 -0.2707 -0.9215
  146SAPE  H18S16078   5.573   3.792   8.774  0.6706  0.3632 -0.5287
  146SAPE  C21916079   5.602   3.646   8.614 -0.0983 -0.9606 -0.0702
  146SAPE  H19R16080   5.580   3.554   8.672  0.1835 -0.4024  0.9502
  146SAPE  H19S16081   5.689   3.624   8.547  0.7252 -1.7039  1.2145
  146SAPE  C22016082   5.489   3.690   8.524 -0.4706  0.4810 -0.3435
  146SAPE  H20R16083   5.408   3.732   8.587 -0.3343 -1.6322  1.3537
  146SAPE  H20S16084   5.462   3.607   8.456  2.1990 -0.6129 -0.1825
  146SAPE  H20T16085   5.522   3.778   8.464 -1.3887  0.3756 -1.0233
  146SAPE   C3316086   5.356   4.262  10.238 -0.5788 -0.5001 -0.0261
  146SAPE   H3X16087   5.263   4.203  10.252 -2.1005  1.4840 -1.1992
  146SAPE   H3Y16088   5.443   4.194  10.227 -0.5977 -0.2148 -2.3625
  146SAPE   C3416089   5.325   4.358  10.125  0.1521  0.9248  0.0292
  146SAPE   H4X16090   5.400   4.440  10.126  0.6974  0.4248  0.0251
  146SAPE   H4Y16091   5.226   4.406  10.140  0.4995  1.8751 -0.6274
  146SAPE   C3516092   5.339   4.294   9.990 -0.0577 -0.1914 -0.3017
  146SAPE   H5X16093   5.259   4.220   9.968  1.2042 -1.2729 -1.4422
  146SAPE   H5Y16094   5.441   4.250   9.987  0.0423  0.0294 -0.1748
  146SAPE   C3616095   5.344   4.403   9.869  0.1466  0.8881 -0.2334
  146SAPE   H6X16096   5.432   4.471   9.874 -1.0193  2.6407 -2.2797
  146SAPE   H6Y16097   5.248   4.458   9.875 -1.5134 -1.9359  1.5606
  146SAPE   C3716098   5.360   4.322   9.734 -0.2725  0.2263  0.1295
  146SAPE   H7X16099   5.256   4.292   9.708 -0.0935  0.6800 -1.2013
  146SAPE   H7Y16100   5.422   4.235   9.763 -1.9598 -0.6425  1.2952
  146SAPE   C3816101   5.417   4.406   9.618 -0.1588  0.6167 -0.5836
  146SAPE   H8X16102   5.503   4.471   9.648  1.0522 -0.6331 -1.2440
  146SAPE   H8Y16103   5.332   4.469   9.585 -2.8943 -0.8596  2.9319
  146SAPE   C3916104   5.451   4.311   9.498  0.4302 -0.6318 -0.0556
  146SAPE   H9X16105   5.354   4.262   9.477  0.7841 -0.7900 -1.3918
  146SAPE   H9Y16106   5.525   4.234   9.528  0.1908 -0.9147 -0.1880
  146SAPE  C31016107   5.507   4.381   9.376  0.4041  1.1481  0.0839
  146SAPE  H10X16108   5.600   4.431   9.411  2.1081 -1.1512 -0.9067
  146SAPE  H10Y16109   5.433   4.459   9.347 -1.0315 -0.1946  0.0079
  146SAPE  C31116110   5.531   4.276   9.266 -0.2706 -0.0960  0.1140
  146SAPE  H11X16111   5.428   4.245   9.236 -0.0480 -2.8986  1.8294
  146SAPE  H11Y16112   5.575   4.185   9.312 -0.0925 -0.0413  0.0509
  146SAPE  C31216113   5.619   4.327   9.155  0.3316  0.2235  0.2264
  146SAPE  H12X16114   5.636   4.238   9.091 -1.3226  1.6764 -2.3979
  146SAPE  H12Y16115   5.711   4.371   9.199 -0.1901 -0.0405  1.6345
  146SAPE  C31316116   5.558   4.449   9.082  0.5796 -0.1185  0.2938
  146SAPE  H13X16117   5.570   4.542   9.141 -0.4728  1.4995 -1.9128
  146SAPE  H13Y16118   5.449   4.429   9.074  0.7951 -4.0274  3.7145
  146SAPE  C31416119   5.605   4.486   8.947 -0.3266 -1.0529 -0.4208
  146SAPE  H14X16120   5.715   4.506   8.951 -0.7976  1.8778  2.4243
  146SAPE  H14Y16121   5.554   4.581   8.919 -0.5376 -1.3165 -0.9384
  146SAPE  C31516122   5.567   4.393   8.830 -0.1516 -0.4042  1.1129
  146SAPE  H15X16123   5.463   4.398   8.793 -0.0068  3.2571  0.8510
  146SAPE  H15Y16124   5.592   4.288   8.857 -1.9292 -0.5485  2.2967
  146SAPE  C31616125   5.659   4.437   8.713  0.3424 -0.2427 -0.5001
  146SAPE  H16X16126   5.761   4.435   8.758 -1.1480 -0.7368  3.2612
  146SAPE  H16Y16127   5.625   4.540   8.691  1.2273  0.1017 -0.3124
  146SAPE  C31716128   5.638   4.341   8.594 -0.7605  0.1536  0.1791
  146SAPE  H17X16129   5.530   4.323   8.575 -0.8944  0.3982  0.6864
  146SAPE  H17Y16130   5.678   4.246   8.634  2.8994  2.0706  1.5834
  146SAPE  C31816131   5.701   4.382   8.463  0.6753  0.0652  0.7408
  146SAPE  H18X16132   5.716   4.292   8.400  0.9100  0.9952 -0.5597
  146SAPE  H18Y16133   5.804   4.420   8.480  1.1389  0.2802 -2.0586
  146SAPE  H18Z16134   5.643   4.464   8.416  2.4594 -0.0046 -1.7882
  147SAPE     N16135   5.689   1.131   6.279  0.2387 -0.1470 -0.1860
  147SAPE   HN116136   5.693   1.082   6.187  1.6805 -0.5176  0.0502
  147SAPE   HN216137   5.612   1.201   6.287 -0.2162 -0.3797 -1.9572
  147SAPE   HN316138   5.784   1.167   6.302  0.0818 -0.0702  0.3576
  147SAPE   C1216139   5.669   1.024   6.381 -0.1913  0.4386  0.4528
  147SAPE  H12A16140   5.706   1.071   6.475 -0.4049  0.3976  0.5594
  147SAPE  H12B16141   5.743   0.947   6.352  0.4781  1.3590 -0.2995
  147SAPE   C1116142   5.520   0.987   6.389  0.1859  0.3531  0.3301
  147SAPE  H11A16143   5.460   1.079   6.404  2.2099  1.6329  0.9693
  147SAPE  H11B16144   5.507   0.924   6.479 -2.1333 -0.0970 -0.2401
  147SAPE     P16145   5.480   0.766   6.257 -0.0014  0.2006 -0.5998
  147SAPE   O1316146   5.355   0.720   6.326 -0.6673 -0.5025  0.1222
  147SAPE   O1416147   5.499   0.727   6.114  0.5463 -0.1716 -0.6582
  147SAPE   O1216148   5.485   0.921   6.272 -0.6362 -0.3991  0.2488
  147SAPE   O1116149   5.612   0.714   6.338 -0.3133 -0.5738  0.2503
  147SAPE    C116150   5.602   0.601   6.420 -0.3936 -0.3381  0.7906
  147SAPE    HA16151   5.548   0.512   6.381  1.4262 -0.7444 -0.9801
  147SAPE    HB16152   5.706   0.562   6.430  0.5445  1.9136  0.3235
  147SAPE    C216153   5.567   0.627   6.572 -0.4757 -0.2974  0.0292
  147SAPE    HS16154   5.465   0.669   6.581  0.7912  3.4463 -1.0544
  147SAPE   O2116155   5.653   0.731   6.626  0.6808  0.2043 -0.3333
  147SAPE   C2116156   5.781   0.716   6.638  0.1302  0.7941 -0.1704
  147SAPE   O2216157   5.852   0.613   6.628  0.4908  0.2463 -0.1253
  147SAPE   C2216158   5.845   0.858   6.650 -0.1283 -0.3334 -0.5984
  147SAPE   H2R16159   5.949   0.849   6.687 -0.4977  0.7606  0.8032
  147SAPE   H2S16160   5.845   0.895   6.545  0.3391  4.6325  0.9002
  147SAPE    C316161   5.578   0.501   6.658  0.3230  0.7566  0.7118
  147SAPE    HX16162   5.663   0.448   6.610  1.3431  1.1943  1.9956
  147SAPE    HY16163   5.484   0.442   6.648  1.6716 -1.8742  2.3443
  147SAPE   O3116164   5.584   0.524   6.803 -0.1741  0.4135  0.3947
  147SAPE   C3116165   5.635   0.411   6.862 -0.0526 -0.2783  0.0163
  147SAPE   O3216166   5.645   0.304   6.810 -0.3754  0.2370  0.4938
  147SAPE   C3216167   5.680   0.459   7.006  0.1180 -0.3680  0.1992
  147SAPE   H2X16168   5.605   0.515   7.065 -1.4897 -3.2183  1.0320
  147SAPE   H2Y16169   5.777   0.509   6.984  0.5653 -2.0194 -2.0089
  147SAPE   C2316170   5.759   0.960   6.736  0.4476 -0.4504  0.3229
  147SAPE   H3R16171   5.650   0.967   6.714  0.0937  0.2253  2.1025
  147SAPE   H3S16172   5.801   1.054   6.697  0.7900 -0.7300  0.0163
  147SAPE   C2416173   5.786   0.961   6.879  0.0483 -0.4394  0.5518
  147SAPE   H4R16174   5.751   1.059   6.917  0.5397  0.0417 -0.2085
  147SAPE   H4S16175   5.893   0.976   6.906 -0.1986 -0.2653  1.4822
  147SAPE   C2516176   5.712   0.852   6.945 -0.4050  0.9914  0.8203
  147SAPE   H5R16177   5.634   0.808   6.881  1.5558 -1.8753  0.1958
  147SAPE   C2616178   5.753   0.787   7.061 -0.2851 -0.3556 -0.0768
  147SAPE   H6R16179   5.686   0.712   7.106  0.6929 -0.7427  0.7627
  147SAPE   C2716180   5.872   0.819   7.141  0.0841 -0.8022  0.0533
  147SAPE   H7R16181   5.833   0.858   7.238 -2.1210 -1.2878 -0.5755
  147SAPE   H7S16182   5.935   0.900   7.099 -2.9703  1.3472 -0.8277
  147SAPE   C2816183   5.955   0.700   7.169  0.2004  0.3931  0.0916
  147SAPE   H8R16184   6.043   0.686   7.105  0.0471 -1.3460  0.2204
  147SAPE   C2916185   5.960   0.611   7.271  0.4129 -0.3126 -0.5802
  147SAPE   H9R16186   6.037   0.533   7.268 -0.3446 -1.0297 -1.8997
  147SAPE  C21016187   5.869   0.610   7.395  0.6239  0.3844  0.7189
  147SAPE  H10R16188   5.861   0.504   7.426 -0.4116  0.1106 -0.4139
  147SAPE  H10S16189   5.768   0.643   7.363  0.6639 -0.6135 -0.5338
  147SAPE  C21116190   5.912   0.697   7.507  0.0523 -0.9238  0.3961
  147SAPE  H11R16191   5.960   0.790   7.474 -0.0208 -0.9926  0.0964
  147SAPE  C21216192   5.887   0.667   7.635 -0.6996 -0.9698 -0.2728
  147SAPE  H12R16193   5.892   0.745   7.712 -1.1630 -0.6994 -0.5132
  147SAPE  C21316194   5.806   0.544   7.684 -0.0829 -0.6204  0.5249
  147SAPE  H13R16195   5.733   0.511   7.607 -0.3084 -1.7821  1.2024
  147SAPE  H13S16196   5.743   0.567   7.772  0.7014 -1.0074  1.1994
  147SAPE  C21416197   5.895   0.424   7.707  0.5610 -0.0261  0.2567
  147SAPE  H14R16198   5.939   0.386   7.613 -0.0668 -0.5236  0.1526
  147SAPE  C21516199   5.921   0.364   7.826 -0.3701 -0.1086 -0.7382
  147SAPE  H15R16200   5.986   0.275   7.812 -0.5138 -0.4505  0.6931
  147SAPE  C21616201   5.881   0.396   7.970 -0.1840  0.0974 -0.2067
  147SAPE  H16R16202   5.800   0.472   7.975 -2.4716 -2.2268  0.4081
  147SAPE  H16S16203   5.973   0.417   8.028  0.7794 -0.7209 -1.3870
  147SAPE  C21716204   5.822   0.284   8.051  0.1797  0.3081  0.5624
  147SAPE  H17R16205   5.897   0.203   8.044  0.2819  0.5511 -2.6881
  147SAPE  H17S16206   5.735   0.239   7.999 -0.5527  0.1609  1.8754
  147SAPE  C21816207   5.792   0.311   8.199  0.6650 -0.2999 -0.6648
  147SAPE  H18R16208   5.757   0.416   8.211 -1.5904 -1.0964  0.2472
  147SAPE  H18S16209   5.889   0.318   8.252  0.0947 -0.3920  0.4120
  147SAPE  C21916210   5.706   0.203   8.266 -0.4090 -0.1683  0.4260
  147SAPE  H19R16211   5.750   0.106   8.235 -0.4920 -0.3579  0.8974
  147SAPE  H19S16212   5.599   0.207   8.236 -0.7684 -0.8718  1.5867
  147SAPE  C22016213   5.694   0.216   8.421  0.2683 -0.0191 -0.5814
  147SAPE  H20R16214   5.795   0.214   8.466 -0.2132  0.2740  0.5655
  147SAPE  H20S16215   5.661   0.116   8.456  2.7543 -0.5523  0.4329
  147SAPE  H20T16216   5.633   0.300   8.463  1.3346  1.0407 -1.1088
  147SAPE   C3316217   5.716   0.343   7.109  0.2187 -0.0430 -0.1109
  147SAPE   H3X16218   5.799   0.376   7.175  0.0431  0.2720 -0.0426
  147SAPE   H3Y16219   5.754   0.261   7.046  1.2305  0.9720 -0.8592
  147SAPE   C3416220   5.596   0.296   7.198  0.0536  0.4952  0.3240
  147SAPE   H4X16221   5.510   0.289   7.128 -1.1908  1.6385  1.6739
  147SAPE   H4Y16222   5.576   0.383   7.264 -0.0575  2.6122 -2.3140
  147SAPE   C3516223   5.645   0.170   7.270 -0.2371 -0.2470  0.7655
  147SAPE   H5X16224   5.742   0.183   7.321 -0.6701  0.2646  1.4738
  147SAPE   H5Y16225   5.659   0.095   7.189  1.0260  1.2177 -0.4387
  147SAPE   C3616226   5.541   0.118   7.364  0.4158 -0.3020 -0.3868
  147SAPE   H6X16227   5.567   0.026   7.421  0.3666 -0.7927 -1.1388
  147SAPE   H6Y16228   5.447   0.097   7.309 -0.4020  0.2530  0.7380
  147SAPE   C3716229   5.490   0.224   7.467 -0.5472  0.0181  0.7606
  147SAPE   H7X16230   5.432   0.302   7.413  0.6833  3.0587  3.4703
  147SAPE   H7Y16231   5.573   0.281   7.514  0.3547 -1.6064  1.2321
  147SAPE   C3816232   5.421   0.158   7.585 -0.7611 -0.5997  0.3598
  147SAPE   H8X16233   5.491   0.082   7.626  1.3341  0.5824 -0.8221
  147SAPE   H8Y16234   5.331   0.103   7.552 -0.8549 -0.5202  0.4818
  147SAPE   C3916235   5.370   0.255   7.695  0.5298 -0.2226  1.1183
  147SAPE   H9X16236   5.289   0.200   7.748 -0.9259  0.6491 -0.1231
  147SAPE   H9Y16237   5.306   0.336   7.654  0.5827 -0.8071 -0.1651
  147SAPE  C31016238   5.474   0.320   7.783  0.1394 -0.0045 -0.6327
  147SAPE  H10X16239   5.541   0.393   7.733  3.8282 -0.8028  2.5865
  147SAPE  H10Y16240   5.549   0.243   7.811  0.0049  0.1268  0.1307
  147SAPE  C31116241   5.427   0.390   7.916 -0.1837 -0.5623  0.9916
  147SAPE  H11X16242   5.366   0.477   7.883 -0.2176 -1.6432 -2.1634
  147SAPE  H11Y16243   5.520   0.427   7.965  0.0692  3.6770 -2.1653
  147SAPE  C31216244   5.342   0.302   8.005 -0.5542 -0.3209 -0.3980
  147SAPE  H12X16245   5.388   0.203   8.020  1.3571  0.8067  1.7031
  147SAPE  H12Y16246   5.245   0.289   7.951 -0.6625 -1.4875  0.0627
  147SAPE  C31316247   5.305   0.358   8.144 -1.0608 -0.5044  0.7609
  147SAPE  H13X16248   5.404   0.361   8.194 -0.3819 -2.8992 -0.2877
  147SAPE  H13Y16249   5.248   0.274   8.188 -2.3822  0.5874  1.1670
  147SAPE  C31416250   5.217   0.486   8.149  0.4368 -0.7740  0.0257
  147SAPE  H14X16251   5.130   0.473   8.080 -0.4149  0.8044  0.7447
  147SAPE  H14Y16252   5.265   0.577   8.108  0.1425 -1.4999 -2.0361
  147SAPE  C31516253   5.170   0.529   8.290 -0.5705  0.6988 -0.7733
  147SAPE  H15X16254   5.262   0.581   8.323 -0.6061  0.5503 -0.4276
  147SAPE  H15Y16255   5.141   0.436   8.345  1.5257  0.5959  0.2595
  147SAPE  C31616256   5.046   0.620   8.306  0.1401  0.0644  0.5587
  147SAPE  H16X16257   5.063   0.717   8.254 -0.4892  0.8605  1.7952
  147SAPE  H16Y16258   5.041   0.638   8.416  0.4021 -0.7932  0.7151
  147SAPE  C31716259   4.916   0.550   8.276 -0.5192  0.4454 -0.4707
  147SAPE  H17X16260   4.923   0.460   8.340  2.9380  0.1209 -1.0916
  147SAPE  H17Y16261   4.914   0.504   8.175  1.2737 -0.5954 -0.0779
  147SAPE  C31816262   4.801   0.644   8.292  0.7172  0.4867  0.6693
  147SAPE  H18X16263   4.819   0.738   8.237  0.7971 -0.8856 -1.7961
  147SAPE  H18Y16264   4.801   0.664   8.402 -0.9410 -3.9436  1.7072
  147SAPE  H18Z16265   4.704   0.601   8.261  0.7632 -0.7268  2.0805
  148SAPE     N16266   2.694   4.742   6.614  0.0337  0.8955 -0.0580
  148SAPE   HN116267   2.769   4.670   6.602  0.6684  0.9434  2.8320
  148SAPE   HN216268   2.650   4.718   6.705 -1.0966 -3.1169 -1.4399
  148SAPE   HN316269   2.629   4.726   6.535 -2.3987  0.8386  1.8192
  148SAPE   C1216270   2.745   4.879   6.624 -0.5032  0.2712  1.0907
  148SAPE  H12A16271   2.661   4.929   6.677 -1.4563 -1.2708  1.0956
  148SAPE  H12B16272   2.750   4.934   6.528 -2.1847  0.8053  1.2705
  148SAPE   C1116273   2.872   4.896   6.708 -0.0968 -0.0070 -0.8085
  148SAPE  H11A16274   2.841   4.850   6.804  0.3969  1.8439  0.2653
  148SAPE  H11B16275   2.897   5.003   6.725  1.5318 -0.3585 -0.8664
  148SAPE     P16276   3.074   4.887   6.541 -0.1936  0.0551  0.3830
  148SAPE   O1316277   3.202   4.826   6.555 -0.3735 -0.0212 -0.1535
  148SAPE   O1416278   3.004   4.861   6.413 -0.3909 -0.0272 -0.2153
  148SAPE   O1216279   2.982   4.824   6.655 -0.1959  0.3798  0.2184
  148SAPE   O1116280   3.083   5.037   6.587 -0.0097 -0.2068  0.2689
  148SAPE    C116281   3.216   5.090   6.596  0.2809  0.2220 -0.2764
  148SAPE    HA16282   3.284   5.035   6.527 -1.7442 -1.4044 -1.1018
  148SAPE    HB16283   3.218   5.200   6.581 -0.7101  0.4052  0.7936
  148SAPE    C216284   3.278   5.085   6.738  0.3333 -0.0754 -0.6408
  148SAPE    HS16285   3.270   4.978   6.767  0.1145  0.2916  0.7240
  148SAPE   O2116286   3.203   5.180   6.825  0.2145  0.2355 -0.2802
  148SAPE   C2116287   3.168   5.125   6.936 -0.3649 -0.0731  0.2419
  148SAPE   O2216288   3.186   5.008   6.972  0.6987 -0.1508 -0.3282
  148SAPE   C2216289   3.078   5.224   7.018  0.1583  0.1162 -0.1188
  148SAPE   H2R16290   3.069   5.317   6.958 -1.1377  0.1176  0.0461
  148SAPE   H2S16291   2.979   5.173   7.024 -0.4661  1.3761  0.8658
  148SAPE    C316292   3.422   5.120   6.745  0.3835 -0.3998 -0.2003
  148SAPE    HX16293   3.428   5.210   6.680 -1.0919  0.0463  0.2554
  148SAPE    HY16294   3.492   5.051   6.693  0.6111 -0.4865  0.2214
  148SAPE   O3116295   3.458   5.149   6.881 -0.4646 -0.0871  0.2938
  148SAPE   C3116296   3.483   5.042   6.962  0.1391 -0.1600  0.4188
  148SAPE   O3216297   3.499   4.924   6.922  0.0784 -0.2698 -0.2973
  148SAPE   C3216298   3.504   5.080   7.106  0.4891 -0.3239 -0.7598
  148SAPE   H2X16299   3.400   5.073   7.145  0.2939  0.0161 -1.2266
  148SAPE   H2Y16300   3.555   5.178   7.101  1.4637 -0.8735 -2.2075
  148SAPE   C2316301   3.144   5.233   7.153 -0.5231  0.1569 -0.0605
  148SAPE   H3R16302   3.246   5.275   7.140  0.8703 -1.3817  4.2169
  148SAPE   H3S16303   3.161   5.133   7.197 -0.8180  0.0683 -0.1453
  148SAPE   C2416304   3.078   5.319   7.262 -0.1251 -0.5512  0.1798
  148SAPE   H4R16305   3.092   5.424   7.228  2.4460 -1.4915 -1.9323
  148SAPE   H4S16306   3.130   5.304   7.359  0.6287 -1.0662 -0.2988
  148SAPE   C2516307   2.937   5.291   7.292  0.4049 -0.1262 -0.1093
  148SAPE   H5R16308   2.880   5.285   7.199 -2.5296  1.4357  1.4741
  148SAPE   C2616309   2.872   5.240   7.399 -0.2752  0.3058  0.0030
  148SAPE   H6R16310   2.763   5.229   7.387 -0.2384  0.8983 -0.9784
  148SAPE   C2716311   2.923   5.189   7.531 -0.0387  0.4963 -0.1226
  148SAPE   H7R16312   3.023   5.141   7.516 -0.3210  0.3635 -1.7297
  148SAPE   H7S16313   2.858   5.107   7.569  1.8534 -0.7371  0.6249
  148SAPE   C2816314   2.944   5.296   7.643  0.0841  0.2219 -0.4450
  148SAPE   H8R16315   2.884   5.386   7.626  0.6830  0.3232 -2.1931
  148SAPE   C2916316   3.041   5.280   7.741 -0.2828 -0.0891  0.3894
  148SAPE   H9R16317   3.051   5.352   7.824 -0.0501 -1.2285  1.3875
  148SAPE  C21016318   3.123   5.154   7.751  0.2034  0.0157 -0.1010
  148SAPE  H10R16319   3.067   5.060   7.729  1.6562 -0.9583  0.2238
  148SAPE  H10S16320   3.153   5.141   7.857  2.7829 -0.8272 -0.8645
  148SAPE  C21116321   3.241   5.172   7.661 -0.0500 -0.0325 -0.0542
  148SAPE  H11R16322   3.221   5.224   7.566  1.0132 -0.8603 -0.7629
  148SAPE  C21216323   3.363   5.114   7.682  0.4029  0.0948  0.5065
  148SAPE  H12R16324   3.445   5.124   7.609 -0.4583 -1.1020 -0.6593
  148SAPE  C21316325   3.402   5.035   7.802 -0.2552  0.4801 -0.4445
  148SAPE  H13R16326   3.449   4.939   7.773  1.8561  1.5384 -0.7153
  148SAPE  H13S16327   3.318   5.007   7.869 -0.1449 -0.2511 -0.6116
  148SAPE  C21416328   3.519   5.100   7.877  0.0990  0.2522  0.5527
  148SAPE  H14R16329   3.575   5.174   7.817 -0.2065 -0.6116 -0.8319
  148SAPE  C21516330   3.549   5.082   8.009  0.1170 -0.0069  0.4586
  148SAPE  H15R16331   3.638   5.132   8.049 -1.2593  2.2985  0.8443
  148SAPE  C21616332   3.463   4.991   8.111  0.4170  0.5099  0.0377
  148SAPE  H16R16333   3.532   4.915   8.155  0.9981 -0.1220 -1.8757
  148SAPE  H16S16334   3.392   4.925   8.058  2.4603 -0.1295 -2.0940
  148SAPE  C21716335   3.380   5.059   8.228 -0.4203  0.3258  0.1759
  148SAPE  H17R16336   3.457   5.114   8.287 -1.2074  0.5363  1.0146
  148SAPE  H17S16337   3.351   4.974   8.292 -0.3155 -0.0123 -0.2214
  148SAPE  C21816338   3.262   5.150   8.178 -0.3904  1.1291  0.6837
  148SAPE  H18R16339   3.303   5.206   8.091  1.0224 -0.6708  0.1246
  148SAPE  H18S16340   3.241   5.209   8.270  0.6768  1.8870  0.4534
  148SAPE  C21916341   3.133   5.072   8.133 -0.4175 -0.3716 -0.5780
  148SAPE  H19R16342   3.169   5.006   8.052 -0.3252  1.1206 -1.8006
  148SAPE  H19S16343   3.058   5.141   8.088  0.2202 -0.3512 -1.6276
  148SAPE  C22016344   3.070   4.990   8.240  0.1456 -0.3424  0.1444
  148SAPE  H20R16345   3.135   4.914   8.289 -1.7945 -2.2426 -0.0747
  148SAPE  H20S16346   2.976   4.934   8.218  1.1686 -1.4484 -1.6276
  148SAPE  H20T16347   3.047   5.062   8.321  1.1800  0.8396 -0.5782
  148SAPE   C3316348   3.594   4.991   7.189 -0.0010 -0.2898 -0.6892
  148SAPE   H3X16349   3.700   4.988   7.157  0.3952 -3.6631  0.4621
  148SAPE   H3Y16350   3.559   4.886   7.175 -1.1263 -0.1018  0.5195
  148SAPE   C3416351   3.599   5.050   7.328  0.2281 -0.7133  0.5809
  148SAPE   H4X16352   3.506   5.010   7.374 -0.6352 -0.4626 -0.8773
  148SAPE   H4Y16353   3.582   5.159   7.329 -3.8468 -1.1798  0.6206
  148SAPE   C3516354   3.714   5.003   7.411 -0.0297  0.5137  0.1250
  148SAPE   H5X16355   3.708   5.048   7.512 -2.6917  0.2768  0.1312
  148SAPE   H5Y16356   3.810   5.043   7.372 -0.5439  1.4538 -0.1806
  148SAPE   C3616357   3.729   4.854   7.425  0.6393  0.1020  0.0795
  148SAPE   H6X16358   3.763   4.828   7.322 -1.9439  0.6927 -1.0196
  148SAPE   H6Y16359   3.630   4.809   7.450  0.9349  1.1564  3.6869
  148SAPE   C3716360   3.843   4.823   7.536  0.1530  0.2770  0.7713
  148SAPE   H7X16361   3.924   4.898   7.528  0.7035 -0.4197 -0.4055
  148SAPE   H7Y16362   3.891   4.725   7.518 -1.4792 -0.3199 -0.6305
  148SAPE   C3816363   3.783   4.819   7.677  0.9688 -0.4259 -0.3725
  148SAPE   H8X16364   3.738   4.917   7.706  0.0201 -0.6742 -0.9619
  148SAPE   H8Y16365   3.867   4.803   7.747  2.3563  1.4733 -1.5062
  148SAPE   C3916366   3.669   4.714   7.702 -0.0599  0.0026 -0.8255
  148SAPE   H9X16367   3.692   4.613   7.661  0.9348 -0.0370 -0.2211
  148SAPE   H9Y16368   3.581   4.735   7.638 -0.0365  0.3461 -0.7449
  148SAPE  C31016369   3.642   4.689   7.852 -0.0805 -0.0551 -0.5358
  148SAPE  H10X16370   3.555   4.625   7.876  1.1146 -1.1676  1.0493
  148SAPE  H10Y16371   3.634   4.791   7.896 -0.0099 -0.6510  0.9217
  148SAPE  C31116372   3.760   4.613   7.920 -0.2095 -0.1434 -0.0959
  148SAPE  H11X16373   3.860   4.660   7.929  0.4476 -1.6493  0.8740
  148SAPE  H11Y16374   3.770   4.525   7.854 -3.1496  0.7420 -1.8841
  148SAPE  C31216375   3.732   4.574   8.068 -0.2963 -0.1243 -0.2457
  148SAPE  H12X16376   3.704   4.667   8.122  2.7103  0.5922  0.2680
  148SAPE  H12Y16377   3.828   4.537   8.111  0.3455  1.2966 -0.4069
  148SAPE  C31316378   3.624   4.469   8.087 -0.4807 -0.1505 -0.0335
  148SAPE  H13X16379   3.649   4.389   8.015  0.7522  1.2448 -1.2240
  148SAPE  H13Y16380   3.526   4.519   8.072 -1.6299 -1.7283  1.7047
  148SAPE  C31416381   3.584   4.427   8.235  0.0493 -0.1768  0.0392
  148SAPE  H14X16382   3.565   4.524   8.284 -1.6434 -1.3750  1.8990
  148SAPE  H14Y16383   3.675   4.389   8.287  0.1401  1.8729  1.4951
  148SAPE  C31516384   3.467   4.326   8.248 -0.8505 -0.1844 -0.5795
  148SAPE  H15X16385   3.511   4.224   8.254 -0.2342  0.1617  1.2256
  148SAPE  H15Y16386   3.400   4.351   8.163  0.5057  1.5324 -1.2019
  148SAPE  C31616387   3.397   4.340   8.382 -0.1683 -0.3490  0.3641
  148SAPE  H16X16388   3.306   4.279   8.398 -0.8912  1.1243  2.3028
  148SAPE  H16Y16389   3.357   4.443   8.388 -2.2769 -1.1216  0.5493
  148SAPE  C31716390   3.489   4.302   8.498  0.6141 -0.1696  0.3289
  148SAPE  H17X16391   3.564   4.385   8.501  1.5435 -0.9920  0.2625
  148SAPE  H17Y16392   3.529   4.200   8.483  1.4517  0.3204 -0.9731
  148SAPE  C31816393   3.418   4.294   8.638 -1.0194 -0.3272 -0.2983
  148SAPE  H18X16394   3.323   4.237   8.630 -1.3925  0.0275  1.3901
  148SAPE  H18Y16395   3.387   4.392   8.681 -2.7342 -0.7924 -0.3764
  148SAPE  H18Z16396   3.487   4.255   8.715  0.8034 -3.2882 -3.1432
  149SAPE     N16397   3.229   6.183   6.116 -0.5782  0.4695 -0.2995
  149SAPE   HN116398   3.254   6.088   6.152 -0.6311  0.3625 -0.5411
  149SAPE   HN216399   3.148   6.179   6.051  0.0139 -0.8136 -0.9874
  149SAPE   HN316400   3.311   6.226   6.069  0.0152  0.8064  1.0107
  149SAPE   C1216401   3.205   6.261   6.239  0.0881 -0.4792  0.4869
  149SAPE  H12A16402   3.191   6.364   6.199  4.6242  1.5252  3.2808
  149SAPE  H12B16403   3.289   6.275   6.310 -0.0449  0.3291  0.4906
  149SAPE   C1116404   3.086   6.201   6.310  0.5641  0.8689  0.1403
  149SAPE  H11A16405   3.081   6.253   6.408  0.1150 -0.7486  1.0152
  149SAPE  H11B16406   3.108   6.093   6.320  0.8999  0.8586 -0.6334
  149SAPE     P16407   2.875   6.086   6.196 -0.1235  0.2926  0.0707
  149SAPE   O1316408   2.758   6.138   6.131  0.5549  0.3267  0.1463
  149SAPE   O1416409   2.961   5.987   6.123  0.4303 -0.3039 -0.6360
  149SAPE   O1216410   2.962   6.215   6.234  0.2683  0.1675  0.1460
  149SAPE   O1116411   2.832   6.023   6.337 -0.2231  0.0247  0.3560
  149SAPE    C116412   2.874   5.891   6.374 -0.7773 -0.1852  0.2112
  149SAPE    HA16413   2.802   5.814   6.339 -0.1597 -0.8495  0.3652
  149SAPE    HB16414   2.964   5.851   6.324  0.1680 -0.0061  1.6885
  149SAPE    C216415   2.872   5.865   6.534 -0.6616  0.1292  1.0600
  149SAPE    HS16416   2.765   5.850   6.558 -0.6413 -2.6213 -0.2721
  149SAPE   O2116417   2.932   5.975   6.608 -0.2867 -0.0169 -0.1342
  149SAPE   C2116418   2.855   6.076   6.637 -0.1132  0.1974 -0.6544
  149SAPE   O2216419   2.732   6.079   6.626  0.0959  0.3336  0.4038
  149SAPE   C2216420   2.923   6.195   6.677 -0.3444 -0.4923  0.0458
  149SAPE   H2R16421   3.002   6.211   6.601  0.5866 -1.6417  0.7342
  149SAPE   H2S16422   2.855   6.281   6.664  0.0583 -0.5343 -2.7889
  149SAPE    C316423   2.928   5.734   6.584 -0.0444  0.2183  0.0861
  149SAPE    HX16424   3.036   5.762   6.594 -0.1053  0.5783 -0.2143
  149SAPE    HY16425   2.929   5.654   6.507 -2.0843 -0.4872  0.7555
  149SAPE   O3116426   2.856   5.687   6.696  0.0864 -0.2865 -0.3472
  149SAPE   C3116427   2.912   5.681   6.809 -0.7454 -0.2480  0.1454
  149SAPE   O3216428   3.028   5.719   6.835  0.5410 -0.0290  0.0182
  149SAPE   C3216429   2.814   5.624   6.911 -0.2347  0.1695  0.2396
  149SAPE   H2X16430   2.771   5.719   6.949  1.9365  0.9973  0.7702
  149SAPE   H2Y16431   2.878   5.577   6.989 -0.4362 -0.3271  0.1075
  149SAPE   C2316432   2.984   6.202   6.818 -0.0789 -0.2941  0.3124
  149SAPE   H3R16433   3.056   6.286   6.814  1.9285 -1.8943  0.9708
  149SAPE   H3S16434   3.050   6.113   6.829  2.1223  1.2267  0.1453
  149SAPE   C2416435   2.882   6.244   6.932 -0.0913 -0.1065  0.2142
  149SAPE   H4R16436   2.796   6.173   6.930  1.0247 -1.5021  0.2158
  149SAPE   H4S16437   2.848   6.346   6.905 -0.9902 -0.3132  0.5272
  149SAPE   C2516438   2.935   6.243   7.071  0.9132  0.1537  0.1640
  149SAPE   H5R16439   3.011   6.319   7.096  0.6483  0.4963 -0.0646
  149SAPE   C2616440   2.921   6.150   7.166  0.4990  0.1558  0.0039
  149SAPE   H6R16441   2.976   6.159   7.261  0.8239 -0.1049 -0.1588
  149SAPE   C2716442   2.849   6.019   7.154  0.0916  0.1929  0.6164
  149SAPE   H7R16443   2.769   6.023   7.077 -0.6646  0.2249  1.3994
  149SAPE   H7S16444   2.795   5.992   7.247 -1.3521 -0.8282 -0.4873
  149SAPE   C2816445   2.952   5.919   7.127  0.5155 -0.3609  0.6398
  149SAPE   H8R16446   3.014   5.936   7.037  0.5703 -1.7207  0.4053
  149SAPE   C2916447   2.968   5.808   7.203 -0.6165  0.0008 -0.6700
  149SAPE   H9R16448   3.041   5.736   7.164  0.5990 -0.0506  1.5471
  149SAPE  C21016449   2.895   5.775   7.339 -0.3343  1.0083  0.3944
  149SAPE  H10R16450   2.821   5.694   7.322  1.2566 -0.7848  1.6607
  149SAPE  H10S16451   2.846   5.866   7.377 -0.9730  1.8980 -2.3169
  149SAPE  C21116452   2.998   5.719   7.441  0.0317  0.4022  0.2913
  149SAPE  H11R16453   3.098   5.701   7.399 -0.9262 -1.7944 -1.2433
  149SAPE  C21216454   2.976   5.683   7.572  0.6440 -0.7149 -0.0547
  149SAPE  H12R16455   3.064   5.645   7.626  3.0041  1.0683 -2.3609
  149SAPE  C21316456   2.839   5.705   7.641  0.2155  0.1740  0.4221
  149SAPE  H13R16457   2.822   5.606   7.689  0.0999 -1.2496 -2.3408
  149SAPE  H13S16458   2.766   5.703   7.558 -0.1112 -1.2494  0.7127
  149SAPE  C21416459   2.825   5.826   7.725 -0.0904 -0.5733 -1.1158
  149SAPE  H14R16460   2.853   5.924   7.685 -2.7284  0.3969 -0.8044
  149SAPE  C21516461   2.795   5.820   7.861  0.1812 -0.5747  0.3146
  149SAPE  H15R16462   2.814   5.912   7.918  2.4334 -0.0343 -1.1631
  149SAPE  C21616463   2.761   5.696   7.942 -0.0705 -0.0574 -0.1377
  149SAPE  H16R16464   2.699   5.624   7.885  0.7280  0.3991 -1.6170
  149SAPE  H16S16465   2.702   5.728   8.031  0.9343  3.6358 -0.6537
  149SAPE  C21716466   2.885   5.620   7.993 -0.0842  0.4478  0.4861
  149SAPE  H17R16467   2.963   5.682   8.042  0.0945  1.4995 -1.0635
  149SAPE  H17S16468   2.934   5.571   7.906  0.7587 -0.1771  1.2940
  149SAPE  C21816469   2.821   5.500   8.077 -0.7319  0.4622 -0.5930
  149SAPE  H18R16470   2.764   5.441   8.002  0.7743 -1.5890 -0.2166
  149SAPE  H18S16471   2.753   5.535   8.157 -2.1231 -0.3909 -1.3756
  149SAPE  C21916472   2.923   5.408   8.148  0.1898  0.5649  1.0773
  149SAPE  H19R16473   3.003   5.382   8.076 -1.0335  2.0148 -0.9089
  149SAPE  H19S16474   2.872   5.313   8.172 -1.2866  1.0910  0.1984
  149SAPE  C22016475   2.977   5.468   8.271  0.1652  0.1839  0.8324
  149SAPE  H20R16476   3.039   5.553   8.234 -0.7112  0.1522 -0.8297
  149SAPE  H20S16477   3.041   5.390   8.317  1.3982  0.3727 -0.5013
  149SAPE  H20T16478   2.894   5.508   8.334 -1.7599  2.0231 -2.5670
  149SAPE   C3316479   2.703   5.531   6.855  0.2679  1.1802  0.0290
  149SAPE   H3X16480   2.756   5.471   6.779  0.1089  2.1429 -0.8618
  149SAPE   H3Y16481   2.619   5.591   6.813  1.4014  2.1538 -0.9172
  149SAPE   C3416482   2.651   5.437   6.959  0.6288 -0.6451 -0.2423
  149SAPE   H4X16483   2.743   5.381   6.987  1.1866 -1.2026 -2.9467
  149SAPE   H4Y16484   2.585   5.354   6.927 -1.6010  0.3768  1.3958
  149SAPE   C3516485   2.580   5.513   7.077 -0.0290  0.1681  0.5916
  149SAPE   H5X16486   2.469   5.508   7.068 -0.0579  1.2150  0.2766
  149SAPE   H5Y16487   2.618   5.617   7.067  1.2788 -0.2586  0.9175
  149SAPE   C3616488   2.620   5.465   7.216  0.0443 -0.0397 -0.6621
  149SAPE   H6X16489   2.727   5.484   7.238 -0.0766  1.4660 -1.2452
  149SAPE   H6Y16490   2.601   5.355   7.220 -0.1888  0.0116 -0.3351
  149SAPE   C3716491   2.537   5.517   7.331 -0.3074 -0.1287 -0.8291
  149SAPE   H7X16492   2.430   5.513   7.300 -0.1693 -1.3455 -1.2012
  149SAPE   H7Y16493   2.574   5.622   7.335  2.1448 -0.9669  2.2153
  149SAPE   C3816494   2.557   5.444   7.465 -0.2216 -0.1954  0.3400
  149SAPE   H8X16495   2.665   5.456   7.491  0.2453 -3.6245  0.4205
  149SAPE   H8Y16496   2.542   5.336   7.446  0.8906 -0.2491 -0.3576
  149SAPE   C3916497   2.466   5.500   7.574 -0.2019 -0.0227  0.5519
  149SAPE   H9X16498   2.367   5.526   7.531  0.3416  0.2295 -0.5770
  149SAPE   H9Y16499   2.500   5.595   7.621  0.5057  0.5997 -1.1539
  149SAPE  C31016500   2.458   5.402   7.689 -0.3136 -0.0778 -0.1282
  149SAPE  H10X16501   2.564   5.400   7.724 -0.4956  0.6812  0.5105
  149SAPE  H10Y16502   2.432   5.305   7.643 -2.0115  2.2959 -4.7944
  149SAPE  C31116503   2.381   5.464   7.810  0.4303  0.3186  1.1077
  149SAPE  H11X16504   2.286   5.503   7.770  1.4586 -0.0414 -1.9561
  149SAPE  H11Y16505   2.435   5.557   7.840 -0.6193  1.2752  0.0882
  149SAPE  C31216506   2.378   5.366   7.933 -0.3102 -0.5047 -0.0976
  149SAPE  H12X16507   2.476   5.315   7.947  1.4693  2.1441 -1.8366
  149SAPE  H12Y16508   2.308   5.284   7.907  0.7076 -0.8379 -1.9583
  149SAPE  C31316509   2.350   5.442   8.065 -0.3083 -0.1369  0.0873
  149SAPE  H13X16510   2.271   5.519   8.055 -0.1038  0.2493  1.2735
  149SAPE  H13Y16511   2.441   5.499   8.092  1.3877 -2.5384 -0.2346
  149SAPE  C31416512   2.333   5.351   8.182 -0.3241  0.2533  0.4760
  149SAPE  H14X16513   2.398   5.261   8.176  0.7968  0.8639  2.4115
  149SAPE  H14Y16514   2.229   5.313   8.182 -0.6174  1.0380 -0.3358
  149SAPE  C31516515   2.368   5.420   8.313  0.3511  0.4431 -0.6571
  149SAPE  H15X16516   2.322   5.521   8.321 -0.5737 -0.0881  1.4787
  149SAPE  H15Y16517   2.478   5.427   8.310  0.6668 -2.9778 -1.9200
  149SAPE  C31616518   2.335   5.350   8.443 -0.1377  0.0442 -0.1068
  149SAPE  H16X16519   2.370   5.245   8.433 -2.6582 -1.0378  1.3900
  149SAPE  H16Y16520   2.226   5.364   8.460 -0.0082  0.6383  0.2820
  149SAPE  C31716521   2.409   5.410   8.561 -0.0452 -0.3002  0.1573
  149SAPE  H17X16522   2.374   5.513   8.583  1.0172  0.5203 -1.7900
  149SAPE  H17Y16523   2.514   5.417   8.527  0.2430  0.5040  1.1669
  149SAPE  C31816524   2.397   5.329   8.690  0.4054 -0.4463  0.5596
  149SAPE  H18X16525   2.482   5.357   8.756 -0.3166  2.0870  0.5130
  149SAPE  H18Y16526   2.391   5.221   8.663 -1.0043 -0.4088  0.6361
  149SAPE  H18Z16527   2.304   5.368   8.737  0.3740  0.1015  0.0576
  150SAPE     N16528   4.901   0.739   6.298 -0.3656  0.0308 -0.4754
  150SAPE   HN116529   4.994   0.694   6.289 -0.0156  0.8312 -0.9608
  150SAPE   HN216530   4.836   0.684   6.238  0.4016  0.0770 -1.3763
  150SAPE   HN316531   4.909   0.833   6.253  0.7492 -0.5239 -1.4669
  150SAPE   C1216532   4.858   0.736   6.444  0.1439 -0.4388 -0.4609
  150SAPE  H12A16533   4.749   0.760   6.447  0.0560 -0.8555 -0.1621
  150SAPE  H12B16534   4.924   0.811   6.492  1.5571 -0.8682 -1.6591
  150SAPE   C1116535   4.861   0.598   6.501 -0.1895 -0.1808 -0.1018
  150SAPE  H11A16536   4.824   0.591   6.606 -0.0968 -2.7126 -0.1635
  150SAPE  H11B16537   4.968   0.567   6.500 -0.4234 -1.0411 -1.1044
  150SAPE     P16538   4.701   0.390   6.446 -0.0398  0.1522  0.0169
  150SAPE   O1316539   4.635   0.357   6.321 -0.3610  0.3595  0.0325
  150SAPE   O1416540   4.791   0.282   6.511  0.5070 -0.4646  0.0826
  150SAPE   O1216541   4.791   0.518   6.408 -0.3924 -0.2618  0.1609
  150SAPE   O1116542   4.598   0.438   6.553 -0.1677 -0.1399  0.0402
  150SAPE    C116543   4.511   0.550   6.513 -0.0929  0.3910  0.5659
  150SAPE    HA16544   4.560   0.647   6.490 -0.1819  0.2279 -0.3256
  150SAPE    HB16545   4.453   0.514   6.426  1.8426  1.5185 -1.2580
  150SAPE    C216546   4.411   0.596   6.626  0.3263  0.9200  0.3834
  150SAPE    HS16547   4.348   0.679   6.586 -1.7303 -0.1743  1.1655
  150SAPE   O2116548   4.479   0.631   6.751 -0.2384 -0.1822  0.0797
  150SAPE   C2116549   4.559   0.737   6.749 -0.8789  0.5274 -0.2784
  150SAPE   O2216550   4.571   0.818   6.661 -0.0576 -0.1308  0.3150
  150SAPE   C2216551   4.661   0.740   6.871  0.9149  0.2337 -0.5373
  150SAPE   H2R16552   4.612   0.714   6.967  3.2722 -1.8382  0.2200
  150SAPE   H2S16553   4.738   0.665   6.843  2.0692  1.1148  0.1896
  150SAPE    C316554   4.333   0.462   6.663  0.4142 -0.1691  0.3970
  150SAPE    HX16555   4.394   0.383   6.713 -0.6188 -0.6386  0.9362
  150SAPE    HY16556   4.285   0.428   6.569 -1.4328  2.4374  0.3141
  150SAPE   O3116557   4.219   0.496   6.748  0.3198 -0.5274  0.3278
  150SAPE   C3116558   4.135   0.392   6.768 -0.6629 -0.4046  0.0665
  150SAPE   O3216559   4.163   0.281   6.724  0.1615 -0.3695 -0.5276
  150SAPE   C3216560   4.004   0.438   6.838 -0.3121  0.1264  0.5042
  150SAPE   H2X16561   3.914   0.391   6.793  0.5233 -2.3542  1.2588
  150SAPE   H2Y16562   3.998   0.549   6.835  0.7233  0.2531 -3.6353
  150SAPE   C2316563   4.717   0.886   6.887 -0.1500 -0.4952  0.0484
  150SAPE   H3R16564   4.632   0.956   6.874 -0.0893 -0.5673 -0.7624
  150SAPE   H3S16565   4.786   0.914   6.804 -0.4944  0.7602  0.1640
  150SAPE   C2416566   4.796   0.915   7.020 -0.2981 -0.5706 -0.2217
  150SAPE   H4R16567   4.717   0.940   7.094 -1.7522  0.1562 -1.9404
  150SAPE   H4S16568   4.869   0.999   7.019  0.9618 -1.6360 -0.0533
  150SAPE   C2516569   4.871   0.789   7.067 -0.1074  0.3137  0.3716
  150SAPE   H5R16570   4.818   0.723   7.139  1.7543 -1.1111  0.5073
  150SAPE   C2616571   4.988   0.753   7.027  0.6121  0.1600  0.0771
  150SAPE   H6R16572   5.016   0.659   7.078  0.9161  0.5202  0.5822
  150SAPE   C2716573   5.080   0.820   6.931 -0.4624 -0.2937  0.2153
  150SAPE   H7R16574   5.134   0.898   6.989 -3.8006  0.7381  2.2925
  150SAPE   H7S16575   5.031   0.884   6.855 -0.7618 -0.1685  0.5041
  150SAPE   C2816576   5.161   0.714   6.860 -0.0855  0.2225 -0.5878
  150SAPE   H8R16577   5.126   0.686   6.760 -0.7052 -0.3869 -0.2114
  150SAPE   C2916578   5.271   0.656   6.906  0.0283 -0.0520 -0.1144
  150SAPE   H9R16579   5.314   0.586   6.833 -0.4324  1.2781 -1.7276
  150SAPE  C21016580   5.345   0.669   7.029 -0.5113  0.4193  0.3046
  150SAPE  H10R16581   5.314   0.766   7.074 -0.2713  0.4162  0.4764
  150SAPE  H10S16582   5.454   0.668   7.008 -0.2655 -0.7509  1.4733
  150SAPE  C21116583   5.321   0.573   7.144  1.0962  0.3187  0.2501
  150SAPE  H11R16584   5.281   0.477   7.107 -0.4428  0.7990  0.5962
  150SAPE  C21216585   5.333   0.594   7.276  0.0852 -0.3672  0.4541
  150SAPE  H12R16586   5.293   0.522   7.349 -1.7500  0.6145  0.4755
  150SAPE  C21316587   5.387   0.714   7.348 -0.4464  0.4316 -0.4648
  150SAPE  H13R16588   5.300   0.777   7.373  1.0871  2.1414  0.8534
  150SAPE  H13S16589   5.445   0.774   7.275 -1.0969 -0.7821 -2.0320
  150SAPE  C21416590   5.462   0.707   7.476 -0.3382  0.9679 -0.6938
  150SAPE  H14R16591   5.570   0.726   7.470  0.4366 -2.7752 -1.3505
  150SAPE  C21516592   5.409   0.680   7.595  0.7856  0.0807 -0.0494
  150SAPE  H15R16593   5.480   0.677   7.679 -1.7676 -0.9274  2.2028
  150SAPE  C21616594   5.266   0.658   7.628 -0.3546 -0.3923 -0.1048
  150SAPE  H16R16595   5.231   0.553   7.627 -1.8578  0.0814 -0.7575
  150SAPE  H16S16596   5.201   0.708   7.553  1.6978 -0.1595 -1.8074
  150SAPE  C21716597   5.243   0.721   7.767  0.2339 -0.0268  0.2181
  150SAPE  H17R16598   5.276   0.827   7.769  0.8877 -0.2366  1.4832
  150SAPE  H17S16599   5.293   0.667   7.850 -1.0766 -1.0148  0.3925
  150SAPE  C21816600   5.086   0.714   7.814 -0.3965 -0.1122  0.5552
  150SAPE  H18R16601   5.061   0.606   7.822  2.5227 -0.8329  1.2801
  150SAPE  H18S16602   5.033   0.762   7.729  0.2544  2.6301  1.6149
  150SAPE  C21916603   5.081   0.792   7.943  0.0165  0.1959 -0.3035
  150SAPE  H19R16604   5.125   0.892   7.924 -1.0151  1.1514  1.9280
  150SAPE  H19S16605   5.141   0.732   8.015 -1.5278 -0.8971  0.1398
  150SAPE  C22016606   4.930   0.805   7.983  0.4707  0.0557  0.6301
  150SAPE  H20R16607   4.870   0.854   7.903 -0.4110 -1.3165  0.4053
  150SAPE  H20S16608   4.919   0.855   8.081 -2.5495 -1.5545  1.2359
  150SAPE  H20T16609   4.885   0.706   8.005 -2.8214  0.8406 -1.6667
  150SAPE   C3316610   3.992   0.390   6.978 -0.2597 -0.2148 -0.0138
  150SAPE   H3X16611   4.066   0.434   7.049  1.6736 -2.8337 -0.2300
  150SAPE   H3Y16612   4.015   0.283   7.000  1.8856  0.3229  0.6562
  150SAPE   C3416613   3.859   0.434   7.046 -0.2377  0.7307 -0.3967
  150SAPE   H4X16614   3.765   0.391   7.005 -1.1631  1.1096  1.2359
  150SAPE   H4Y16615   3.859   0.544   7.031 -1.8092  0.7427 -0.5483
  150SAPE   C3516616   3.857   0.401   7.197  0.2534  0.4716  0.1185
  150SAPE   H5X16617   3.939   0.463   7.240 -0.5990  1.2343  0.6652
  150SAPE   H5Y16618   3.888   0.297   7.221  1.0898  0.2010 -1.9335
  150SAPE   C3616619   3.725   0.434   7.263 -0.1053  0.3709  0.1891
  150SAPE   H6X16620   3.637   0.400   7.204 -0.4351  1.4860  0.0138
  150SAPE   H6Y16621   3.712   0.545   7.261 -1.2233  0.2423 -1.2683
  150SAPE   C3716622   3.716   0.380   7.408  0.3181 -1.1379  0.5453
  150SAPE   H7X16623   3.770   0.457   7.467 -1.7613 -0.2668  1.4275
  150SAPE   H7Y16624   3.758   0.279   7.428  0.3594 -0.7139  2.9869
  150SAPE   C3816625   3.558   0.372   7.460 -0.0429  0.3618 -0.0788
  150SAPE   H8X16626   3.506   0.292   7.402 -0.8549  0.6478  0.2289
  150SAPE   H8Y16627   3.507   0.467   7.434  0.1122  0.7238  0.8866
  150SAPE   C3916628   3.549   0.328   7.603 -0.0071 -0.0275 -0.1980
  150SAPE   H9X16629   3.600   0.230   7.618 -1.4659 -0.8071 -0.0922
  150SAPE   H9Y16630   3.444   0.317   7.640 -0.5880  1.7164 -1.2286
  150SAPE  C31016631   3.626   0.425   7.697 -0.0252 -0.4017 -0.5409
  150SAPE  H10X16632   3.617   0.532   7.668 -2.0746  0.1384  1.7304
  150SAPE  H10Y16633   3.735   0.404   7.697  0.7056  2.7652  1.0594
  150SAPE  C31116634   3.566   0.436   7.841  0.5442  0.1456  0.3438
  150SAPE  H11X16635   3.556   0.335   7.884  1.2661  0.3809  1.0864
  150SAPE  H11Y16636   3.457   0.455   7.832  0.8466  1.3185 -1.4998
  150SAPE  C31216637   3.641   0.522   7.939 -0.2761 -0.4443 -0.1763
  150SAPE  H12X16638   3.710   0.586   7.880  1.5923 -0.5436  1.7815
  150SAPE  H12Y16639   3.711   0.458   7.998  0.1388  1.4984  1.5388
  150SAPE  C31316640   3.552   0.606   8.033  0.1715 -0.3381  0.1036
  150SAPE  H13X16641   3.489   0.683   7.983  0.3364 -0.1805  0.1384
  150SAPE  H13Y16642   3.610   0.658   8.112  1.2575 -0.2355 -0.7381
  150SAPE  C31416643   3.468   0.515   8.118 -0.1176 -0.2953 -0.5237
  150SAPE  H14X16644   3.421   0.442   8.049  1.7504 -0.4514 -1.6909
  150SAPE  H14Y16645   3.372   0.560   8.152 -0.8244 -2.1443  0.0348
  150SAPE  C31516646   3.541   0.419   8.215 -0.0371  0.5179  0.2605
  150SAPE  H15X16647   3.585   0.478   8.298  0.0184 -1.3263  1.6083
  150SAPE  H15Y16648   3.615   0.359   8.157 -0.7159  1.6246 -1.8722
  150SAPE  C31616649   3.448   0.306   8.267  0.4440 -0.3065 -0.0925
  150SAPE  H16X16650   3.428   0.245   8.176  1.4548 -2.3285  0.9742
  150SAPE  H16Y16651   3.359   0.366   8.295  0.2853  1.3773 -3.5562
  150SAPE  C31716652   3.524   0.224   8.376  0.0206  0.2690 -0.6456
  150SAPE  H17X16653   3.451   0.184   8.450  0.9914 -2.2078 -0.9030
  150SAPE  H17Y16654   3.590   0.290   8.435  1.2006 -1.4823  0.1045
  150SAPE  C31816655   3.613   0.106   8.321  0.5187  0.6289  0.1393
  150SAPE  H18X16656   3.691   0.144   8.252 -0.6262 -0.9138 -2.1613
  150SAPE  H18Y16657   3.546   0.038   8.263  1.0612  2.5398 -2.9044
  150SAPE  H18Z16658   3.653   0.061   8.415 -1.6604  0.6884  1.1668
  151SAPE     N16659   4.543   3.824   6.464  0.1412 -0.0547  0.2156
  151SAPE   HN116660   4.567   3.925   6.464  1.5532 -0.3674  0.7917
  151SAPE   HN216661   4.586   3.779   6.381  1.2285  2.1201 -0.4720
  151SAPE   HN316662   4.440   3.821   6.453  0.1302 -0.5119  0.4362
  151SAPE   C1216663   4.597   3.745   6.576 -0.6211  0.5811 -0.5827
  151SAPE  H12A16664   4.552   3.644   6.565 -3.4663  1.6393  0.3146
  151SAPE  H12B16665   4.558   3.797   6.667 -2.4762 -1.5435 -0.0717
  151SAPE   C1116666   4.756   3.750   6.596 -0.2700  0.1815 -0.5726
  151SAPE  H11A16667   4.775   3.673   6.674  1.6543  0.9912 -0.1797
  151SAPE  H11B16668   4.806   3.847   6.617  2.4177 -1.4328  1.1631
  151SAPE     P16669   4.816   3.547   6.423 -0.0675  0.4466 -0.4004
  151SAPE   O1316670   4.699   3.531   6.336 -0.1482 -0.9730 -0.0954
  151SAPE   O1416671   4.943   3.520   6.353 -0.4378  0.0691 -0.5201
  151SAPE   O1216672   4.819   3.698   6.473  0.3101 -0.3158  0.1193
  151SAPE   O1116673   4.814   3.465   6.556  0.3307 -0.3176  0.1263
  151SAPE    C116674   4.939   3.449   6.627 -0.5221 -0.6117  0.5744
  151SAPE    HA16675   4.999   3.374   6.571 -0.4977 -0.9504  1.0451
  151SAPE    HB16676   4.987   3.545   6.653 -0.7933 -0.4577  0.5131
  151SAPE    C216677   4.912   3.390   6.767  0.1686  0.7299 -0.2963
  151SAPE    HS16678   5.006   3.364   6.819 -0.7845 -2.1273  0.1626
  151SAPE   O2116679   4.834   3.277   6.766 -0.1206  0.5781 -0.0019
  151SAPE   C2116680   4.911   3.170   6.736 -0.0903  0.3311  0.1072
  151SAPE   O2216681   5.036   3.173   6.736 -0.4840  0.3537  0.2387
  151SAPE   C2216682   4.829   3.040   6.741  0.1504  0.0724 -0.6108
  151SAPE   H2R16683   4.792   3.033   6.846 -0.9558  1.6661 -0.8581
  151SAPE   H2S16684   4.742   3.053   6.674  0.5899 -2.2972 -1.7362
  151SAPE    C316685   4.832   3.496   6.852  0.2853 -0.3176 -0.2517
  151SAPE    HX16686   4.740   3.525   6.797  0.2156  1.3869  0.6689
  151SAPE    HY16687   4.903   3.582   6.859  0.1213  0.0512 -2.5535
  151SAPE   O3116688   4.796   3.454   6.988 -0.1633 -0.3135 -0.0351
  151SAPE   C3116689   4.894   3.457   7.074 -0.4233 -0.4905 -0.1050
  151SAPE   O3216690   5.012   3.483   7.047  0.1823  0.2126 -0.1811
  151SAPE   C3216691   4.827   3.433   7.205 -0.1659  0.0602  0.5005
  151SAPE   H2X16692   4.830   3.322   7.216  0.5130 -0.1332 -1.3692
  151SAPE   H2Y16693   4.720   3.463   7.204 -0.9299 -2.3635  1.0330
  151SAPE   C2316694   4.916   2.918   6.712  0.7434  0.1016  0.0134
  151SAPE   H3R16695   4.981   2.926   6.622  2.4303  0.0856  1.1782
  151SAPE   H3S16696   4.847   2.833   6.688 -0.5925  1.0471  0.3917
  151SAPE   C2416697   5.002   2.861   6.829 -0.3371 -0.1549  0.1335
  151SAPE   H4R16698   5.066   2.947   6.856  0.6370 -1.1503  1.1009
  151SAPE   H4S16699   5.077   2.783   6.802  0.8338  0.6575  0.9336
  151SAPE   C2516700   4.928   2.792   6.938  0.0591  0.8161 -0.3517
  151SAPE   H5R16701   4.876   2.699   6.912  0.5298 -0.3517  2.5432
  151SAPE   C2616702   4.931   2.823   7.069 -1.0493  0.3120  0.5168
  151SAPE   H6R16703   4.888   2.750   7.139  1.9059 -0.6762  1.4758
  151SAPE   C2716704   4.990   2.950   7.132 -0.0404  0.3970  0.0473
  151SAPE   H7R16705   4.928   3.002   7.208 -0.6236  0.4426 -0.4482
  151SAPE   H7S16706   4.994   3.025   7.050 -2.2689  1.8796  1.2089
  151SAPE   C2816707   5.133   2.935   7.180 -0.1411 -0.4733 -0.1547
  151SAPE   H8R16708   5.201   2.899   7.102 -1.3540 -1.0797 -0.9516
  151SAPE   C2916709   5.194   2.966   7.295 -0.3369  0.6665  0.2156
  151SAPE   H9R16710   5.300   2.942   7.307 -0.8514 -1.7349  0.6374
  151SAPE  C21016711   5.144   3.019   7.427  0.2526  1.2854  0.0915
  151SAPE  H10R16712   5.041   3.056   7.405  0.6481  1.1884 -2.1232
  151SAPE  H10S16713   5.195   3.112   7.458 -0.3268  1.7396 -0.2832
  151SAPE  C21116714   5.154   2.906   7.531  0.0575 -0.2064  0.3776
  151SAPE  H11R16715   5.094   2.820   7.499 -0.8502  1.1359 -1.7939
  151SAPE  C21216716   5.215   2.911   7.650  0.3647  0.0398  0.0727
  151SAPE  H12R16717   5.210   2.827   7.721  1.1220  1.3222  1.7180
  151SAPE  C21316718   5.288   3.033   7.697  0.5145 -0.4580  0.4998
  151SAPE  H13R16719   5.218   3.119   7.693  0.9267 -0.1029  0.7749
  151SAPE  H13S16720   5.363   3.059   7.619 -0.2361 -0.9451 -0.3992
  151SAPE  C21416721   5.364   3.004   7.826  0.7728 -0.2207  0.5398
  151SAPE  H14R16722   5.473   3.015   7.827  0.6400  1.6232 -0.3978
  151SAPE  C21516723   5.294   2.996   7.946  0.7796 -0.2844  0.0672
  151SAPE  H15R16724   5.358   2.948   8.021  0.9597 -3.5020 -1.9587
  151SAPE  C21616725   5.147   3.016   7.981 -0.2155  0.0427  0.3721
  151SAPE  H16R16726   5.096   2.918   7.977 -0.5847  0.2667 -0.8291
  151SAPE  H16S16727   5.091   3.080   7.909 -1.3513 -0.3045  0.9358
  151SAPE  C21716728   5.141   3.080   8.126  0.2277  0.1480  0.3535
  151SAPE  H17R16729   5.204   3.172   8.124  1.2881 -0.5747 -0.5313
  151SAPE  H17S16730   5.188   3.023   8.209 -0.2362 -2.3244 -1.0121
  151SAPE  C21816731   5.012   3.122   8.192 -0.2273  0.0312 -0.2750
  151SAPE  H18R16732   5.047   3.171   8.285  1.7280  2.0255 -1.9407
  151SAPE  H18S16733   4.938   3.039   8.200 -2.7327  1.9824 -1.4395
  151SAPE  C21916734   4.938   3.239   8.121  0.7583 -0.1018 -0.5267
  151SAPE  H19R16735   4.917   3.215   8.014  0.1349  1.4677 -0.7730
  151SAPE  H19S16736   5.006   3.327   8.124  0.0422  0.4737 -0.8745
  151SAPE  C22016737   4.805   3.265   8.192 -0.2336 -0.6430  0.3416
  151SAPE  H20R16738   4.815   3.276   8.302  0.8070 -2.1026  0.4249
  151SAPE  H20S16739   4.761   3.357   8.149 -1.1666 -0.9258  0.6651
  151SAPE  H20T16740   4.726   3.187   8.177  0.1661 -1.0815  0.4790
  151SAPE   C3316741   4.901   3.484   7.323  0.1778  0.0209 -0.0104
  151SAPE   H3X16742   4.864   3.584   7.355  1.8407  2.1154 -3.8287
  151SAPE   H3Y16743   5.003   3.525   7.305 -0.0972  0.0756 -1.6564
  151SAPE   C3416744   4.932   3.372   7.427  0.2750 -0.8860 -0.5254
  151SAPE   H4X16745   5.019   3.399   7.491  0.4147 -1.4857 -0.4523
  151SAPE   H4Y16746   4.957   3.281   7.368  0.3055 -1.3141  0.1278
  151SAPE   C3516747   4.818   3.331   7.521 -0.0955 -0.0971  0.1652
  151SAPE   H5X16748   4.787   3.424   7.572 -0.6082 -0.7133  1.0038
  151SAPE   H5Y16749   4.861   3.286   7.613  2.2323 -1.6050 -1.5223
  151SAPE   C3616750   4.692   3.258   7.473 -0.0336  0.7113  0.3565
  151SAPE   H6X16751   4.716   3.154   7.443 -1.6099 -0.3711  2.5517
  151SAPE   H6Y16752   4.663   3.298   7.374  0.4852  1.7566  0.6146
  151SAPE   C3716753   4.573   3.258   7.564 -0.1324  0.2444  0.3688
  151SAPE   H7X16754   4.487   3.200   7.526 -1.5894  2.2659  0.4226
  151SAPE   H7Y16755   4.541   3.363   7.580  0.7204  1.2082 -3.2714
  151SAPE   C3816756   4.614   3.196   7.702 -0.1218 -0.4586  0.6766
  151SAPE   H8X16757   4.658   3.277   7.763 -0.5653 -1.2614  2.1155
  151SAPE   H8Y16758   4.697   3.122   7.693  0.4886  0.2326  0.5801
  151SAPE   C3916759   4.501   3.133   7.779 -0.0880  0.5323 -0.4342
  151SAPE   H9X16760   4.416   3.204   7.790  0.1367  0.4556  2.5630
  151SAPE   H9Y16761   4.535   3.121   7.884  3.3140  1.4022 -1.3226
  151SAPE  C31016762   4.447   3.004   7.714  0.0314 -0.4688 -0.0369
  151SAPE  H10X16763   4.519   2.922   7.732 -0.7932 -0.6892  2.8938
  151SAPE  H10Y16764   4.441   3.022   7.604 -1.3992 -0.1813  0.0655
  151SAPE  C31116765   4.303   2.965   7.760  0.5987  0.5226 -0.1185
  151SAPE  H11X16766   4.259   2.896   7.685 -0.6481  2.1235 -0.9257
  151SAPE  H11Y16767   4.249   3.062   7.754  1.5219  1.3209  2.8675
  151SAPE  C31216768   4.309   2.908   7.895 -0.2045 -0.5843  0.1281
  151SAPE  H12X16769   4.377   2.973   7.953  0.4283  1.1630 -2.3904
  151SAPE  H12Y16770   4.351   2.808   7.915  0.3289 -0.5933 -0.9375
  151SAPE  C31316771   4.173   2.909   7.968  0.2246 -0.5319  0.0668
  151SAPE  H13X16772   4.122   2.831   7.908  0.5888 -1.2524  0.6694
  151SAPE  H13Y16773   4.114   3.001   7.950 -0.3404 -1.0235 -0.6799
  151SAPE  C31416774   4.171   2.870   8.120 -0.3806 -0.0993 -0.5710
  151SAPE  H14X16775   4.072   2.891   8.166 -0.0678  1.0515 -0.3939
  151SAPE  H14Y16776   4.240   2.928   8.185  1.1545 -1.6544 -0.7204
  151SAPE  C31516777   4.204   2.720   8.130 -0.2085  0.1295 -0.5127
  151SAPE  H15X16778   4.287   2.692   8.062  1.1007 -0.8773  1.4277
  151SAPE  H15Y16779   4.120   2.660   8.089 -1.5819  1.4781  0.1774
  151SAPE  C31616780   4.238   2.679   8.277  0.6460  0.1216 -0.8396
  151SAPE  H16X16781   4.154   2.705   8.345  1.2622 -1.6537  0.7109
  151SAPE  H16Y16782   4.325   2.739   8.311 -0.1016  0.6465  0.1927
  151SAPE  C31716783   4.262   2.526   8.303  0.6252  0.7833 -0.1979
  151SAPE  H17X16784   4.315   2.517   8.401  1.9252 -1.2514 -0.9987
  151SAPE  H17Y16785   4.328   2.483   8.225  4.1797  2.8252  1.4111
  151SAPE  C31816786   4.119   2.456   8.312 -0.4633  0.0673  0.4759
  151SAPE  H18X16787   4.117   2.345   8.313  2.0090 -0.0622 -0.6689
  151SAPE  H18Y16788   4.062   2.490   8.223  0.2902 -2.4600 -1.1075
  151SAPE  H18Z16789   4.068   2.489   8.405  0.0043  2.3744 -0.0286
  152SAPE     N16790   1.115   2.164   6.538 -0.1575  0.1540  0.1594
  152SAPE   HN116791   1.127   2.072   6.490  0.8156  1.5525 -2.4732
  152SAPE   HN216792   1.109   2.235   6.462 -1.5992 -1.8980 -1.8190
  152SAPE   HN316793   1.196   2.178   6.601 -0.9361  0.4971  1.1189
  152SAPE   C1216794   0.977   2.174   6.609 -0.1414  0.5430  1.0471
  152SAPE  H12A16795   0.961   2.088   6.678 -1.3126  0.4507  0.6913
  152SAPE  H12B16796   0.896   2.161   6.534 -0.0480  0.6325  0.9312
  152SAPE   C1116797   0.965   2.310   6.670  0.1767  0.1584  0.6191
  152SAPE  H11A16798   1.042   2.324   6.749  1.9739  1.5603 -1.2970
  152SAPE  H11B16799   0.865   2.310   6.720 -0.4549  1.5878 -0.5912
  152SAPE     P16800   1.096   2.507   6.551 -0.1402  0.0032  0.2964
  152SAPE   O1316801   1.198   2.431   6.486  0.1381 -0.4347  0.0167
  152SAPE   O1416802   1.057   2.637   6.494 -0.1018  0.1361  0.0416
  152SAPE   O1216803   0.968   2.418   6.584 -0.0454 -0.8980  0.2425
  152SAPE   O1116804   1.157   2.524   6.689  0.0694  0.1787 -0.0256
  152SAPE    C116805   1.093   2.585   6.796  0.6293 -0.1485  0.5019
  152SAPE    HA16806   1.081   2.693   6.771 -0.6559  0.5745  3.7152
  152SAPE    HB16807   0.991   2.545   6.813  0.5590  0.3580  1.2921
  152SAPE    C216808   1.179   2.602   6.922 -0.4375 -0.0956 -0.2873
  152SAPE    HS16809   1.212   2.499   6.950 -0.4396  0.5885  2.5512
  152SAPE   O2116810   1.093   2.654   7.024 -0.1246  0.3925  0.6711
  152SAPE   C2116811   1.033   2.563   7.104  0.3447 -0.4344 -0.9351
  152SAPE   O2216812   1.033   2.442   7.095 -0.2639 -0.2280 -0.0871
  152SAPE   C2216813   0.955   2.645   7.208  0.3912  0.4938 -0.0750
  152SAPE   H2R16814   1.035   2.683   7.275  1.3148  1.4030 -1.6513
  152SAPE   H2S16815   0.900   2.725   7.154  0.3707  2.2290  2.3471
  152SAPE    C316816   1.294   2.702   6.906  0.3666  0.3528 -0.0661
  152SAPE    HX16817   1.253   2.803   6.881 -0.9823 -0.7194 -2.6165
  152SAPE    HY16818   1.353   2.659   6.822  0.6234 -1.2082  0.8767
  152SAPE   O3116819   1.374   2.689   7.024 -0.0001  0.7667  0.0064
  152SAPE   C3116820   1.449   2.789   7.061  0.3846 -1.2674 -0.4972
  152SAPE   O3216821   1.451   2.900   7.003  0.4544 -0.3772 -0.0502
  152SAPE   C3216822   1.532   2.733   7.176 -0.0075  0.3167 -0.2134
  152SAPE   H2X16823   1.612   2.669   7.133 -0.9595  0.1829 -1.8462
  152SAPE   H2Y16824   1.466   2.674   7.243 -1.3655 -0.8813 -2.4877
  152SAPE   C2316825   0.850   2.561   7.281  0.4638 -0.0117  0.3929
  152SAPE   H3R16826   0.916   2.486   7.329  0.2814 -0.1670  0.4035
  152SAPE   H3S16827   0.776   2.515   7.212  0.8908  1.1457 -0.8938
  152SAPE   C2416828   0.784   2.650   7.388  0.4042  0.0931  0.7636
  152SAPE   H4R16829   0.733   2.734   7.336  0.4998  0.2699  0.9536
  152SAPE   H4S16830   0.862   2.697   7.452  1.0267  1.4644 -0.9198
  152SAPE   C2516831   0.686   2.570   7.472 -0.3453 -0.5665  0.1834
  152SAPE   H5R16832   0.727   2.489   7.533 -1.2589 -1.0780  0.1424
  152SAPE   C2616833   0.552   2.587   7.486 -0.0008 -0.7658  0.2320
  152SAPE   H6R16834   0.502   2.523   7.560 -1.7209 -0.3822 -0.5683
  152SAPE   C2716835   0.464   2.688   7.418 -0.4324 -0.5204 -0.3182
  152SAPE   H7R16836   0.397   2.641   7.343  0.1284 -0.0939 -1.0978
  152SAPE   H7S16837   0.526   2.764   7.367 -3.6501  1.2233 -1.9207
  152SAPE   C2816838   0.381   2.773   7.519  0.1975  0.0301  0.5762
  152SAPE   H8R16839   0.274   2.752   7.532  0.1434 -0.7232 -0.8758
  152SAPE   C2916840   0.427   2.857   7.607 -0.4052 -1.0443 -0.1360
  152SAPE   H9R16841   0.355   2.905   7.675  0.2460 -1.4537  0.8788
  152SAPE  C21016842   0.570   2.903   7.639  0.3497  0.4017  0.4106
  152SAPE  H10R16843   0.580   3.002   7.590 -1.4846 -1.2019 -3.7166
  152SAPE  H10S16844   0.635   2.838   7.577 -0.9249  1.5398 -2.3004
  152SAPE  C21116845   0.602   2.911   7.788  0.4657  0.5961 -0.8688
  152SAPE  H11R16846   0.670   2.833   7.824  0.1389 -0.3519 -2.2419
  152SAPE  C21216847   0.547   2.995   7.880 -0.7929 -0.0086 -0.2694
  152SAPE  H12R16848   0.583   2.971   7.981 -1.0114  1.4918  0.1882
  152SAPE  C21316849   0.453   3.107   7.871  0.1956 -0.0173 -0.7569
  152SAPE  H13R16850   0.363   3.077   7.929  0.8370 -1.8474 -0.6525
  152SAPE  H13S16851   0.425   3.137   7.768  0.3275  1.0797 -0.4847
  152SAPE  C21416852   0.505   3.238   7.933 -0.2653  0.1032 -0.4270
  152SAPE  H14R16853   0.551   3.304   7.859 -0.0269  1.4902  0.9073
  152SAPE  C21516854   0.514   3.270   8.064  0.8990  0.9192  0.2188
  152SAPE  H15R16855   0.558   3.368   8.091  1.3829  0.7671 -0.0089
  152SAPE  C21616856   0.460   3.190   8.182  1.2130 -0.1945  0.3083
  152SAPE  H16R16857   0.540   3.173   8.257  0.4712  0.6257  1.3195
  152SAPE  H16S16858   0.409   3.098   8.147  2.5796  0.0178 -2.5903
  152SAPE  C21716859   0.358   3.289   8.248  0.4902 -0.2386  0.6773
  152SAPE  H17R16860   0.404   3.390   8.244 -0.0160  0.0018 -2.9996
  152SAPE  H17S16861   0.347   3.268   8.356  0.7133 -2.4372  0.3113
  152SAPE  C21816862   0.226   3.301   8.179  0.1932 -0.2818  0.2763
  152SAPE  H18R16863   0.180   3.200   8.180 -0.5739  0.0555 -0.0511
  152SAPE  H18S16864   0.234   3.345   8.078 -0.3484 -0.3445  0.1996
  152SAPE  C21916865   0.120   3.394   8.255  0.3118 -1.0718  0.0675
  152SAPE  H19R16866   0.116   3.363   8.361 -0.8496 -0.5248  0.1893
  152SAPE  H19S16867   0.024   3.368   8.206 -1.2890 -0.1225  2.5617
  152SAPE  C22016868   0.163   3.541   8.251 -0.1669 -0.2703  0.3732
  152SAPE  H20R16869   0.258   3.555   8.306  0.6308 -2.2373 -0.3958
  152SAPE  H20S16870   0.089   3.611   8.296 -0.4996 -0.9861  0.9636
  152SAPE  H20T16871   0.184   3.576   8.148 -0.7094 -1.4067 -0.1448
  152SAPE   C3316872   1.609   2.839   7.252  0.1574  0.2041  0.2318
  152SAPE   H3X16873   1.540   2.910   7.303 -0.7188 -0.9469  0.6957
  152SAPE   H3Y16874   1.675   2.883   7.175 -0.2962 -0.1199 -0.3482
  152SAPE   C3416875   1.696   2.783   7.369  0.3700 -0.4825 -0.5636
  152SAPE   H4X16876   1.753   2.874   7.398 -1.4998  0.2195  1.0992
  152SAPE   H4Y16877   1.769   2.710   7.328  0.4097 -1.3954  1.0610
  152SAPE   C3516878   1.628   2.717   7.488 -0.4371 -0.7399 -0.1909
  152SAPE   H5X16879   1.698   2.715   7.573 -1.4279 -0.3706  0.6552
  152SAPE   H5Y16880   1.602   2.612   7.461  0.7401 -0.9754 -0.4681
  152SAPE   C3616881   1.508   2.788   7.549 -0.0910  0.9954  0.2679
  152SAPE   H6X16882   1.413   2.788   7.491 -0.3378  2.5385  0.6032
  152SAPE   H6Y16883   1.521   2.898   7.561 -1.5717  1.3442 -0.9621
  152SAPE   C3716884   1.478   2.726   7.684 -0.5552 -0.9022  0.1907
  152SAPE   H7X16885   1.470   2.617   7.664 -3.8887 -0.5052 -1.3918
  152SAPE   H7Y16886   1.375   2.761   7.710  0.7205  1.9403  1.8541
  152SAPE   C3816887   1.578   2.774   7.795  0.1839 -0.6958 -0.4931
  152SAPE   H8X16888   1.611   2.879   7.781 -0.7135 -0.0813  1.5822
  152SAPE   H8Y16889   1.664   2.705   7.794 -0.1142 -1.0871  0.3784
  152SAPE   C3916890   1.511   2.773   7.935  0.1927 -1.0001 -0.1325
  152SAPE   H9X16891   1.419   2.835   7.920  0.8600  0.0675  0.0684
  152SAPE   H9Y16892   1.572   2.827   8.010  1.1239 -2.2916  0.0734
  152SAPE  C31016893   1.472   2.642   7.983  0.1915 -0.0950  0.2402
  152SAPE  H10X16894   1.555   2.576   8.015 -0.6337 -2.4523 -2.1130
  152SAPE  H10Y16895   1.426   2.583   7.901  0.8282  1.4046 -1.2344
  152SAPE  C31116896   1.369   2.645   8.103  0.3706 -0.6114 -0.2737
  152SAPE  H11X16897   1.335   2.540   8.117  0.9154 -0.7700 -0.1227
  152SAPE  H11Y16898   1.280   2.706   8.075 -0.5980  0.0066  3.5346
  152SAPE  C31216899   1.422   2.704   8.235  0.4548 -0.7670  0.6030
  152SAPE  H12X16900   1.440   2.813   8.225  0.7993 -0.8898 -0.1818
  152SAPE  H12Y16901   1.513   2.642   8.245  2.3515  1.9877  1.4612
  152SAPE  C31316902   1.322   2.694   8.355 -0.0872 -0.4157  0.5732
  152SAPE  H13X16903   1.305   2.588   8.386  0.1748 -0.8718 -0.7650
  152SAPE  H13Y16904   1.236   2.755   8.319  1.2917  0.9014 -0.6009
  152SAPE  C31416905   1.375   2.757   8.480  0.4473 -1.2580 -0.2013
  152SAPE  H14X16906   1.294   2.761   8.557 -0.1206 -3.4767 -0.6066
  152SAPE  H14Y16907   1.412   2.859   8.457  0.2220 -1.2082 -0.3480
  152SAPE  C31516908   1.492   2.683   8.539 -0.6624  0.5685  0.2389
  152SAPE  H15X16909   1.566   2.658   8.461 -2.3844 -0.5314 -1.1023
  152SAPE  H15Y16910   1.458   2.583   8.573  1.1893  0.8865  3.4035
  152SAPE  C31616911   1.563   2.744   8.660  0.7259 -0.5124  0.3556
  152SAPE  H16X16912   1.641   2.673   8.694  2.4674  0.8976 -0.4679
  152SAPE  H16Y16913   1.495   2.770   8.744  0.0790  3.2420 -1.0997
  152SAPE  C31716914   1.631   2.878   8.628  0.7155 -0.6589 -0.1760
  152SAPE  H17X16915   1.572   2.967   8.598  1.8290  0.9195  2.0128
  152SAPE  H17Y16916   1.696   2.840   8.546 -0.7644 -2.5198 -0.5514
  152SAPE  C31816917   1.707   2.929   8.754 -0.3265 -0.6390 -0.4830
  152SAPE  H18X16918   1.639   2.942   8.841 -1.6171 -3.5792 -0.9157
  152SAPE  H18Y16919   1.757   3.025   8.729 -0.7657 -0.4230 -0.5574
  152SAPE  H18Z16920   1.784   2.852   8.776 -0.7836 -1.0807 -0.4191
  153SAPE     N16921   5.528   0.017   6.314 -0.1679 -0.6587  0.1171
  153SAPE   HN116922   5.595  -0.061   6.331  0.5195  0.1510  1.2388
  153SAPE   HN216923   5.479   0.022   6.406  1.5949  0.2038  1.0694
  153SAPE   HN316924   5.451  -0.009   6.249  0.3778 -0.1931 -0.7333
  153SAPE   C1216925   5.619   0.143   6.289  0.1796 -0.8771  0.2086
  153SAPE  H12A16926   5.547   0.223   6.261  0.9911 -0.1414  0.1687
  153SAPE  H12B16927   5.679   0.126   6.197  0.1179  2.2437 -0.5211
  153SAPE   C1116928   5.696   0.182   6.419 -1.1029  0.5575 -0.4402
  153SAPE  H11A16929   5.755   0.094   6.454 -0.3401  1.7932  1.5424
  153SAPE  H11B16930   5.627   0.207   6.502 -2.8831 -2.3068 -0.9076
  153SAPE     P16931   5.916   0.259   6.320 -0.0862  0.1728 -0.0351
  153SAPE   O1316932   5.903   0.144   6.224 -0.4943 -0.3949  0.2898
  153SAPE   O1416933   5.989   0.378   6.273 -0.3982  0.2327  0.0009
  153SAPE   O1216934   5.776   0.301   6.388 -0.2788 -0.1334 -0.5670
  153SAPE   O1116935   5.995   0.212   6.448 -0.3990  0.0864  0.9001
  153SAPE    C116936   5.988   0.269   6.578 -0.1490 -0.1367 -0.8611
  153SAPE    HA16937   6.012   0.377   6.580 -0.8098  0.0036  0.7289
  153SAPE    HB16938   5.895   0.247   6.635  1.4292 -0.5176  1.7369
  153SAPE    C216939   6.113   0.211   6.657  0.2039 -0.5640 -0.7089
  153SAPE    HS16940   6.098   0.102   6.673  0.2239 -0.5303 -0.4621
  153SAPE   O2116941   6.136   0.285   6.781  0.1229 -0.4795  0.2771
  153SAPE   C2116942   6.057   0.240   6.879 -0.0880 -0.7410 -0.7519
  153SAPE   O2216943   5.992   0.141   6.888 -0.5081 -0.2537 -0.9001
  153SAPE   C2216944   6.067   0.345   6.994 -0.0948 -0.6712  0.6110
  153SAPE   H2R16945   6.048   0.446   6.950 -0.1789  0.1651  2.4432
  153SAPE   H2S16946   5.979   0.323   7.059  0.5237 -0.8110  1.4247
  153SAPE    C316947   6.241   0.232   6.578 -0.6163  0.1841  0.4369
  153SAPE    HX16948   6.261   0.341   6.568  0.5348 -0.1884 -2.6194
  153SAPE    HY16949   6.230   0.188   6.476  3.1699  0.8436 -0.4096
  153SAPE   O3116950   6.360   0.175   6.643  0.1830 -0.6667  0.2116
  153SAPE   C3116951   6.370   0.048   6.645 -0.3732  0.1958  0.9400
  153SAPE   O3216952   6.307  -0.033   6.578 -0.0822  0.6742  0.3786
  153SAPE   C3216953   6.476   0.013   6.744  0.4567  0.4631  0.3461
  153SAPE   H2X16954   6.573   0.052   6.709  0.1710 -0.0530 -1.0746
  153SAPE   H2Y16955   6.484  -0.097   6.732 -4.2717  0.1642 -2.4426
  153SAPE   C2316956   6.198   0.350   7.074 -0.7355  0.4629 -0.3492
  153SAPE   H3R16957   6.210   0.450   7.120 -0.1531 -0.2082  1.0321
  153SAPE   H3S16958   6.277   0.326   7.000  0.4986  1.5837  0.5584
  153SAPE   C2416959   6.209   0.240   7.189 -0.0848  0.0588  0.0846
  153SAPE   H4R16960   6.317   0.244   7.214  0.8501 -0.8919 -3.3006
  153SAPE   H4S16961   6.188   0.140   7.145 -1.0702 -0.6038  1.9508
  153SAPE   C2516962   6.110   0.252   7.305  0.0649 -0.1028 -0.0077
  153SAPE   H5R16963   6.005   0.228   7.280 -0.2932  0.3794  0.9926
  153SAPE   C2616964   6.142   0.285   7.431  0.3098 -0.2092 -0.0627
  153SAPE   H6R16965   6.072   0.271   7.514  0.2192  1.5643  0.1961
  153SAPE   C2716966   6.279   0.317   7.476 -0.4122  0.2566  0.2950
  153SAPE   H7R16967   6.341   0.363   7.396 -2.2766 -0.6265 -1.7480
  153SAPE   H7S16968   6.331   0.223   7.503 -0.6090  0.4466  1.4147
  153SAPE   C2816969   6.283   0.422   7.587  0.4026 -0.2931 -0.5549
  153SAPE   H8R16970   6.231   0.516   7.564 -0.2929 -1.1431 -2.6727
  153SAPE   C2916971   6.342   0.405   7.709  0.0322  0.3495  0.0911
  153SAPE   H9R16972   6.333   0.483   7.786  0.0863  1.2375 -0.7686
  153SAPE  C21016973   6.413   0.286   7.761 -0.0651  0.0827 -0.2786
  153SAPE  H10R16974   6.478   0.238   7.686 -0.7849 -0.6809 -0.4292
  153SAPE  H10S16975   6.342   0.205   7.790 -0.7047  0.2769 -1.2786
  153SAPE  C21116976   6.491   0.337   7.879  0.3468 -0.3437  0.2967
  153SAPE  H11R16977   6.596   0.362   7.858 -0.6036  4.1633  0.0845
  153SAPE  C21216978   6.445   0.338   8.003  0.2040 -0.2547 -0.1543
  153SAPE  H12R16979   6.500   0.380   8.088 -0.4041 -1.5520  0.9101
  153SAPE  C21316980   6.300   0.311   8.034  0.3147  0.3466 -0.6492
  153SAPE  H13R16981   6.290   0.214   8.088 -0.0909 -0.3468 -1.9424
  153SAPE  H13S16982   6.236   0.282   7.948 -0.0151 -1.4388  0.1433
  153SAPE  C21416983   6.228   0.418   8.107  0.1451 -0.3035  0.4985
  153SAPE  H14R16984   6.177   0.492   8.044 -0.2361 -0.0764  1.0559
  153SAPE  C21516985   6.224   0.432   8.239 -0.4558 -0.1258  0.5365
  153SAPE  H15R16986   6.152   0.499   8.287 -0.4193  0.1912  0.1530
  153SAPE  C21616987   6.278   0.338   8.342  0.2323 -0.0482  0.1779
  153SAPE  H16R16988   6.312   0.399   8.429 -2.2567  0.0587  1.1548
  153SAPE  H16S16989   6.360   0.278   8.298  0.3919 -0.0273  0.4431
  153SAPE  C21716990   6.191   0.224   8.402  0.9009  0.5141 -0.2169
  153SAPE  H17R16991   6.109   0.284   8.446  1.1139 -0.7028  2.0332
  153SAPE  H17S16992   6.233   0.171   8.491  1.4354  0.4109 -0.5232
  153SAPE  C21816993   6.129   0.127   8.294  0.2889  0.2809  0.0386
  153SAPE  H18R16994   6.217   0.083   8.242 -0.2921 -1.1429  0.2064
  153SAPE  H18S16995   6.063   0.173   8.218  0.1658  1.4556  0.8263
  153SAPE  C21916996   6.051   0.013   8.362  0.0032 -0.0788 -0.1759
  153SAPE  H19R16997   5.959   0.033   8.420  0.3074  1.2204 -0.1267
  153SAPE  H19S16998   6.117  -0.049   8.426 -0.3738  0.3284  0.6129
  153SAPE  C22016999   5.999  -0.084   8.259 -0.6237  0.0322  0.3443
  153SAPE  H20R17000   5.908  -0.043   8.211  0.4299  4.3091  1.6016
  153SAPE  H20S17001   5.978  -0.187   8.294  0.1742  0.2496  1.5167
  153SAPE  H20T17002   6.080  -0.099   8.184 -0.9980 -2.7164  0.3762
  153SAPE   C3317003   6.444   0.052   6.891 -0.0476 -0.1765 -0.5142
  153SAPE   H3X17004   6.341   0.020   6.917  0.2528 -2.2622 -1.7339
  153SAPE   H3Y17005   6.456   0.162   6.906  3.0604 -0.5818  0.6321
  153SAPE   C3417006   6.545  -0.003   6.991  0.0512 -0.1266 -0.4074
  153SAPE   H4X17007   6.648   0.027   6.960  0.3679 -0.3848  0.3770
  153SAPE   H4Y17008   6.543  -0.113   6.983  0.1546 -0.1321 -0.3611
  153SAPE   C3517009   6.537   0.052   7.131  0.1374  0.0675 -0.2247
  153SAPE   H5X17010   6.435   0.036   7.172  0.0927  0.8006 -0.0415
  153SAPE   H5Y17011   6.544   0.163   7.127 -1.1230  0.1668 -0.3404
  153SAPE   C3617012   6.641  -0.013   7.222 -1.3449 -0.0829 -0.1890
  153SAPE   H6X17013   6.739   0.015   7.178 -2.0849  0.4337 -1.5799
  153SAPE   H6Y17014   6.647  -0.122   7.206  0.5306  0.2432 -2.1657
  153SAPE   C3717015   6.618   0.020   7.372 -0.3321  0.2794  0.0907
  153SAPE   H7X17016   6.529  -0.040   7.401  0.4300 -0.1250  1.6549
  153SAPE   H7Y17017   6.596   0.127   7.389  0.0013  0.4026 -0.2447
  153SAPE   C3817018   6.732  -0.048   7.463 -0.3296 -0.4508 -0.0426
  153SAPE   H8X17019   6.833  -0.008   7.444  0.1372 -2.0044 -1.0471
  153SAPE   H8Y17020   6.740  -0.156   7.439 -3.0698 -0.7863  0.1988
  153SAPE   C3917021   6.701  -0.042   7.615 -0.4250 -0.3912  0.5194
  153SAPE   H9X17022   6.594  -0.071   7.620 -1.3275  2.7700  1.7529
  153SAPE   H9Y17023   6.705   0.063   7.650 -0.8755 -0.2756  0.2300
  153SAPE  C31017024   6.798  -0.125   7.700  0.2584  0.2083 -0.1193
  153SAPE  H10X17025   6.905  -0.104   7.679  1.3645 -4.0565  0.2473
  153SAPE  H10Y17026   6.787  -0.224   7.651  0.0997 -0.1517  0.6415
  153SAPE  C31117027   6.770  -0.143   7.851  0.0797 -0.4420  0.8200
  153SAPE  H11X17028   6.674  -0.197   7.861  0.4768 -1.4026 -0.3150
  153SAPE  H11Y17029   6.770  -0.042   7.899  2.0830 -0.8385  1.7338
  153SAPE  C31217030   6.875  -0.227   7.920  0.3304 -0.0785  0.3404
  153SAPE  H12X17031   6.975  -0.194   7.884  0.2624 -0.8690 -0.6171
  153SAPE  H12Y17032   6.853  -0.331   7.887 -1.0514  0.6463 -1.1185
  153SAPE  C31317033   6.881  -0.217   8.074 -0.2658 -0.5495  0.2344
  153SAPE  H13X17034   6.776  -0.237   8.103 -0.7312  1.8013  0.4138
  153SAPE  H13Y17035   6.904  -0.111   8.096  2.6250 -1.3321  1.4045
  153SAPE  C31417036   6.985  -0.295   8.158  0.1587 -0.4943 -0.2701
  153SAPE  H14X17037   6.949  -0.286   8.263 -0.0795  1.0873 -0.4571
  153SAPE  H14Y17038   7.087  -0.251   8.168 -0.8022  2.0358 -0.9216
  153SAPE  C31517039   6.990  -0.441   8.104 -0.3059  0.0296  0.3536
  153SAPE  H15X17040   7.074  -0.458   8.033  1.1503 -1.3019  2.2874
  153SAPE  H15Y17041   6.900  -0.463   8.043 -0.4678  0.8708  0.2807
  153SAPE  C31617042   7.009  -0.550   8.210  0.4692 -0.3840 -0.7406
  153SAPE  H16X17043   6.924  -0.528   8.277  1.9574  2.5296  0.3567
  153SAPE  H16Y17044   7.101  -0.533   8.270  0.6885 -1.1671 -0.8409
  153SAPE  C31717045   7.009  -0.696   8.160  0.7531 -0.0831  0.8665
  153SAPE  H17X17046   7.090  -0.716   8.086 -0.4549  1.2642 -0.9094
  153SAPE  H17Y17047   6.915  -0.724   8.107  0.7510  1.8301 -0.2283
  153SAPE  C31817048   7.018  -0.796   8.277 -0.0056 -0.3960  1.1898
  153SAPE  H18X17049   7.097  -0.761   8.346 -0.3509  0.5034  1.1385
  153SAPE  H18Y17050   7.051  -0.893   8.235  3.8973  1.3761 -0.2800
  153SAPE  H18Z17051   6.918  -0.804   8.324 -0.8065 -0.8156 -0.4909
  154SAPE     N17052   4.026   5.971   6.238  0.0456  0.5167 -0.1723
  154SAPE   HN117053   4.123   5.937   6.225 -0.4643 -1.4227  0.6538
  154SAPE   HN217054   4.029   6.055   6.299 -1.4820  0.0615  0.5848
  154SAPE   HN317055   3.950   5.911   6.277 -1.6643  2.9482  0.4922
  154SAPE   C1217056   3.976   6.004   6.106  0.9172 -0.9749  0.0339
  154SAPE  H12A17057   3.961   5.909   6.050 -0.9595  0.6295 -2.4132
  154SAPE  H12B17058   4.050   6.073   6.060 -2.2943  0.7267 -3.0114
  154SAPE   C1117059   3.861   6.098   6.119  0.1640 -0.5843  0.3657
  154SAPE  H11A17060   3.782   6.044   6.177 -0.7779  1.4291  1.0526
  154SAPE  H11B17061   3.838   6.129   6.015  2.7063 -1.3428 -0.4996
  154SAPE     P17062   3.789   6.334   6.186 -0.4477  0.2458  0.1076
  154SAPE   O1317063   3.830   6.434   6.277  0.2733 -0.1714 -0.3684
  154SAPE   O1417064   3.774   6.374   6.043  0.0179 -0.2417 -0.0746
  154SAPE   O1217065   3.889   6.216   6.192  0.1416  0.3756 -0.1435
  154SAPE   O1117066   3.651   6.277   6.237  0.1141 -0.2342  0.8923
  154SAPE    C117067   3.634   6.199   6.357  0.4822 -0.4515 -0.3127
  154SAPE    HA17068   3.542   6.136   6.352 -0.1518  0.3489  0.8672
  154SAPE    HB17069   3.720   6.129   6.365  0.9608  0.0540 -0.8717
  154SAPE    C217070   3.618   6.277   6.489  0.3272  0.3716 -0.2166
  154SAPE    HS17071   3.685   6.366   6.488  1.5011 -0.4622 -2.8116
  154SAPE   O2117072   3.648   6.179   6.596  0.8606  0.1290  0.0282
  154SAPE   C2117073   3.774   6.194   6.639 -0.0780 -0.5525 -0.0831
  154SAPE   O2217074   3.867   6.265   6.600  0.3130  0.3005 -0.4390
  154SAPE   C2217075   3.788   6.081   6.745 -0.2683 -0.5193  0.4296
  154SAPE   H2R17076   3.778   6.128   6.845  0.0398  0.1607  0.1502
  154SAPE   H2S17077   3.700   6.017   6.724 -0.5643 -0.5347  1.6547
  154SAPE    C317078   3.471   6.327   6.513  0.5530 -0.3097  0.0396
  154SAPE    HX17079   3.404   6.238   6.514  0.1096 -0.0023 -0.9361
  154SAPE    HY17080   3.450   6.390   6.424 -1.3665  0.6957  1.1468
  154SAPE   O3117081   3.464   6.407   6.628  0.5919 -0.1364  0.0784
  154SAPE   C3117082   3.344   6.452   6.664  0.3608  0.0482  0.1855
  154SAPE   O3217083   3.240   6.411   6.618  0.3561  0.0862  0.0910
  154SAPE   C3217084   3.350   6.551   6.781  0.0817  0.1642  0.1027
  154SAPE   H2X17085   3.405   6.636   6.736 -1.4889  0.3364 -1.6174
  154SAPE   H2Y17086   3.400   6.506   6.870 -1.3730 -1.5888  0.1121
  154SAPE   C2317087   3.927   6.006   6.727 -0.0165 -0.3131 -0.4537
  154SAPE   H3R17088   4.010   6.079   6.733  0.2812 -0.5663 -1.3001
  154SAPE   H3S17089   3.938   5.967   6.624  1.0035 -1.5407  0.0911
  154SAPE   C2417090   3.951   5.889   6.829 -0.2519  0.0272  0.0209
  154SAPE   H4R17091   3.970   5.923   6.933 -0.4804 -1.0956  0.4358
  154SAPE   H4S17092   4.040   5.837   6.788 -0.7303 -0.7111 -0.0881
  154SAPE   C2517093   3.829   5.802   6.819  0.3793  0.0519 -0.1839
  154SAPE   H5R17094   3.824   5.740   6.728 -0.4687 -1.9291  1.1511
  154SAPE   C2617095   3.736   5.789   6.914  1.1535  0.3712 -0.0657
  154SAPE   H6R17096   3.655   5.716   6.899  2.1094 -0.4707 -1.3868
  154SAPE   C2717097   3.723   5.851   7.048  0.2316 -0.4157  0.3187
  154SAPE   H7R17098   3.621   5.829   7.085 -0.0225 -0.0180 -0.1470
  154SAPE   H7S17099   3.728   5.962   7.039 -1.6476 -0.0754  2.5138
  154SAPE   C2817100   3.829   5.816   7.151  0.4492  0.2201  0.0494
  154SAPE   H8R17101   3.912   5.748   7.123  0.8864  0.4520  0.7613
  154SAPE   C2917102   3.829   5.862   7.277 -0.4569  0.1511 -1.1409
  154SAPE   H9R17103   3.909   5.833   7.346 -0.7996  1.3427 -0.2213
  154SAPE  C21017104   3.726   5.953   7.335 -0.3538 -0.8376  0.6479
  154SAPE  H10R17105   3.648   5.975   7.258  0.4549 -0.1738 -0.0012
  154SAPE  H10S17106   3.781   6.048   7.353  1.0529 -1.2281 -1.2202
  154SAPE  C21117107   3.667   5.902   7.459 -0.4369  0.5195 -0.1545
  154SAPE  H11R17108   3.564   5.866   7.442 -0.2601 -0.3996  0.6552
  154SAPE  C21217109   3.707   5.894   7.592  0.3481  0.2395  0.7320
  154SAPE  H12R17110   3.636   5.855   7.668  0.6379 -2.2035 -0.1603
  154SAPE  C21317111   3.839   5.935   7.646  0.4230  0.3654  0.0568
  154SAPE  H13R17112   3.836   6.046   7.644 -1.3071  0.3422 -0.1948
  154SAPE  H13S17113   3.924   5.917   7.577 -0.5594  1.5187 -1.5088
  154SAPE  C21417114   3.876   5.873   7.777 -0.3122 -0.2077 -0.5700
  154SAPE  H14R17115   3.896   5.766   7.770  2.0033  0.2039 -1.0025
  154SAPE  C21517116   3.883   5.934   7.901  0.4663  0.0282 -0.1275
  154SAPE  H15R17117   3.926   5.890   7.993  2.4295 -0.3238 -1.1515
  154SAPE  C21617118   3.831   6.073   7.934  0.5740 -0.7973 -0.4688
  154SAPE  H16R17119   3.720   6.073   7.932  0.5117 -0.1288  1.0801
  154SAPE  H16S17120   3.890   6.138   7.866 -0.7466  1.1806  0.1844
  154SAPE  C21717121   3.878   6.118   8.078  0.5702 -0.2822 -0.4370
  154SAPE  H17R17122   3.844   6.044   8.153  1.3816 -0.3527 -0.1345
  154SAPE  H17S17123   3.823   6.212   8.099 -0.4491 -0.2352 -2.8631
  154SAPE  C21817124   4.024   6.144   8.102 -0.2215  0.0666 -0.7466
  154SAPE  H18R17125   4.071   6.201   8.019  0.2885 -1.5275 -1.5910
  154SAPE  H18S17126   4.080   6.049   8.118 -1.3783 -0.7571 -1.4959
  154SAPE  C21917127   4.048   6.221   8.235 -0.0538  0.9183 -0.1518
  154SAPE  H19R17128   4.002   6.162   8.317  0.9259  2.4074  1.5121
  154SAPE  H19S17129   3.997   6.318   8.219 -1.5378 -0.2421 -3.4072
  154SAPE  C22017130   4.194   6.250   8.242 -1.4550 -0.3558 -0.2016
  154SAPE  H20R17131   4.219   6.299   8.338 -0.1897 -4.4557  1.8125
  154SAPE  H20S17132   4.234   6.318   8.164  0.6334 -1.3191 -0.0542
  154SAPE  H20T17133   4.257   6.160   8.222 -0.5396  0.0182  0.8723
  154SAPE   C3317134   3.202   6.588   6.837 -1.0046 -0.2469  0.4240
  154SAPE   H3X17135   3.144   6.495   6.858 -0.5457 -1.0481 -1.6633
  154SAPE   H3Y17136   3.150   6.643   6.756  0.8483  1.4805  0.3410
  154SAPE   C3417137   3.210   6.668   6.967  0.5566  0.3090  0.3497
  154SAPE   H4X17138   3.132   6.746   6.962  0.2434  0.0693  1.2087
  154SAPE   H4Y17139   3.306   6.724   6.974 -0.7063  2.6003 -0.0390
  154SAPE   C3517140   3.175   6.584   7.096 -0.4477 -0.8169 -0.1100
  154SAPE   H5X17141   3.250   6.502   7.103 -1.0671 -1.3043  1.1050
  154SAPE   H5Y17142   3.075   6.541   7.078 -0.3283 -1.0405 -0.2522
  154SAPE   C3617143   3.165   6.676   7.221 -0.0755 -0.8536 -0.0830
  154SAPE   H6X17144   3.081   6.749   7.216  0.6689 -0.0081 -0.6186
  154SAPE   H6Y17145   3.255   6.742   7.224 -0.5685 -0.1994  0.9630
  154SAPE   C3717146   3.148   6.595   7.348  0.3533 -0.2780 -0.4537
  154SAPE   H7X17147   3.253   6.566   7.372  0.9903  3.7610  2.7998
  154SAPE   H7Y17148   3.090   6.502   7.332  0.3528 -0.5333  0.8539
  154SAPE   C3817149   3.095   6.678   7.465  0.5366  0.0663  0.4683
  154SAPE   H8X17150   3.007   6.734   7.425  0.0212 -1.2155 -0.2598
  154SAPE   H8Y17151   3.164   6.765   7.472  0.7758 -0.0953  0.1677
  154SAPE   C3917152   3.049   6.604   7.592 -0.3514 -0.1137  0.2318
  154SAPE   H9X17153   3.029   6.671   7.678  1.2434 -0.0024  0.5410
  154SAPE   H9Y17154   3.124   6.535   7.637 -1.5082 -1.2091  0.5603
  154SAPE  C31017155   2.920   6.526   7.581  0.2776  0.1720  0.3436
  154SAPE  H10X17156   2.937   6.450   7.502  2.7285 -0.0034  0.9677
  154SAPE  H10Y17157   2.840   6.596   7.548  0.3821  1.3724  2.4427
  154SAPE  C31117158   2.876   6.449   7.710 -0.1214  0.3511 -0.0506
  154SAPE  H11X17159   2.956   6.408   7.777 -1.7311 -0.4670  1.4762
  154SAPE  H11Y17160   2.817   6.360   7.678 -1.4161  1.6148 -1.3227
  154SAPE  C31217161   2.794   6.531   7.813 -0.3494  0.0534 -0.0911
  154SAPE  H12X17162   2.707   6.577   7.761 -1.6611 -1.6159  0.5368
  154SAPE  H12Y17163   2.858   6.618   7.839  1.8721 -1.4338 -0.2835
  154SAPE  C31317164   2.745   6.449   7.928 -0.3432  0.2203 -0.3879
  154SAPE  H13X17165   2.817   6.385   7.983  0.6135 -0.3737 -2.2498
  154SAPE  H13Y17166   2.672   6.381   7.880  1.3554 -1.7060 -0.3905
  154SAPE  C31417167   2.692   6.534   8.038 -0.0498 -0.0104  0.2907
  154SAPE  H14X17168   2.625   6.614   8.000  1.2361  0.4444 -1.0798
  154SAPE  H14Y17169   2.776   6.591   8.084  1.5752 -2.6371  0.7873
  154SAPE  C31517170   2.618   6.454   8.152 -0.7333 -0.4820  0.2273
  154SAPE  H15X17171   2.527   6.404   8.112 -0.4606 -1.6154  0.9740
  154SAPE  H15Y17172   2.581   6.534   8.221  0.5329 -0.3026  0.7220
  154SAPE  C31617173   2.689   6.350   8.232 -0.2967 -0.6713 -0.2626
  154SAPE  H16X17174   2.781   6.394   8.275  1.0102 -2.2912 -1.2954
  154SAPE  H16Y17175   2.725   6.265   8.171  2.2016 -0.0139  0.1962
  154SAPE  C31717176   2.603   6.306   8.346  0.1653 -1.3176 -0.4234
  154SAPE  H17X17177   2.500   6.268   8.331 -1.8188  2.9031  0.8612
  154SAPE  H17Y17178   2.580   6.393   8.411 -1.4040 -0.8584 -1.5371
  154SAPE  C31817179   2.685   6.211   8.436 -0.3431 -0.0799  0.0807
  154SAPE  H18X17180   2.780   6.258   8.467  0.7329 -0.6698 -2.1319
  154SAPE  H18Y17181   2.722   6.123   8.380 -0.4237  1.3692 -2.4037
  154SAPE  H18Z17182   2.634   6.172   8.526  0.6231 -1.6651 -0.0253
  155SAPE     N17183   2.630   1.986   6.500 -0.2530  0.1583 -0.3994
  155SAPE   HN117184   2.616   1.918   6.577 -2.2521  0.9244 -0.0347
  155SAPE   HN217185   2.696   1.945   6.430 -1.0478 -0.7346 -0.6471
  155SAPE   HN317186   2.671   2.074   6.536 -0.4104  0.9636 -2.0835
  155SAPE   C1217187   2.493   1.996   6.458  0.3238 -0.4905  0.1128
  155SAPE  H12A17188   2.483   2.075   6.380 -1.2857 -2.0137 -1.3273
  155SAPE  H12B17189   2.431   2.018   6.547 -0.4892 -0.4987 -0.4436
  155SAPE   C1117190   2.425   1.871   6.395 -0.0826  0.8987  1.2020
  155SAPE  H11A17191   2.465   1.862   6.292 -0.5377  1.7957  0.9280
  155SAPE  H11B17192   2.316   1.893   6.398 -0.6667  0.2023 -4.6312
  155SAPE     P17193   2.361   1.622   6.434 -0.6354  0.1616 -0.1477
  155SAPE   O1317194   2.321   1.609   6.293 -0.5086 -0.4624 -0.2511
  155SAPE   O1417195   2.415   1.506   6.507  0.2016 -0.2549  0.1725
  155SAPE   O1217196   2.459   1.745   6.466 -0.5356 -0.5338 -0.0440
  155SAPE   O1117197   2.223   1.661   6.504 -0.1259 -0.1526  0.1893
  155SAPE    C117198   2.193   1.747   6.609  0.8061  0.0946 -0.1331
  155SAPE    HA17199   2.266   1.830   6.606  1.8530 -0.4091  4.1860
  155SAPE    HB17200   2.093   1.791   6.588  1.0626 -0.5993 -3.2686
  155SAPE    C217201   2.221   1.687   6.748 -0.7229  0.1212  0.5197
  155SAPE    HS17202   2.328   1.658   6.757 -1.1551 -1.4747  0.8636
  155SAPE   O2117203   2.124   1.588   6.778 -0.7014 -0.2388 -0.4182
  155SAPE   C2117204   2.162   1.495   6.861 -0.6092  0.8211  0.2550
  155SAPE   O2217205   2.277   1.455   6.886  0.2268  0.1020  0.0509
  155SAPE   C2217206   2.039   1.421   6.906  0.3946 -0.1409  0.1993
  155SAPE   H2R17207   1.954   1.479   6.863  0.8388  0.9797  0.7878
  155SAPE   H2S17208   2.044   1.321   6.857  0.9417 -0.5139  0.9986
  155SAPE    C317209   2.216   1.798   6.853  0.2045 -0.7569 -0.0885
  155SAPE    HX17210   2.121   1.853   6.838  0.6928 -0.1667 -1.1998
  155SAPE    HY17211   2.295   1.876   6.840 -0.9135  0.2718 -0.8623
  155SAPE   O3117212   2.233   1.741   6.983 -0.7464 -0.7956 -0.0135
  155SAPE   C3117213   2.360   1.722   7.027 -0.5028 -0.8335  1.2139
  155SAPE   O3217214   2.458   1.770   6.970 -0.3960  0.1958  0.1669
  155SAPE   C3217215   2.357   1.638   7.149  0.3545 -0.6626 -0.0108
  155SAPE   H2X17216   2.447   1.574   7.140  1.0995  0.6337 -3.3001
  155SAPE   H2Y17217   2.268   1.573   7.142 -0.1400 -0.8359  4.6548
  155SAPE   C2317218   2.036   1.415   7.060 -0.4266 -0.4280 -0.7836
  155SAPE   H3R17219   2.044   1.513   7.110 -0.4025 -0.2132 -1.2074
  155SAPE   H3S17220   2.131   1.368   7.093  0.1687 -0.3570 -2.3153
  155SAPE   C2417221   1.912   1.328   7.111 -0.8893 -0.1658  0.1173
  155SAPE   H4R17222   1.945   1.223   7.123  1.0399  0.3409 -0.3500
  155SAPE   H4S17223   1.832   1.328   7.035  0.0050 -2.2273 -0.8951
  155SAPE   C2517224   1.858   1.380   7.241  0.1703 -0.1551  0.3733
  155SAPE   H5R17225   1.806   1.476   7.231  2.9231  1.4350  0.2191
  155SAPE   C2617226   1.875   1.320   7.366 -0.4143  0.0428  1.2343
  155SAPE   H6R17227   1.822   1.367   7.450 -0.8302 -0.2817  1.1558
  155SAPE   C2717228   1.968   1.201   7.398  0.7646  0.1625  0.2155
  155SAPE   H7R17229   2.030   1.236   7.484  1.0047 -2.2881  1.1234
  155SAPE   H7S17230   2.044   1.183   7.320  0.0365  0.8955 -0.6799
  155SAPE   C2817231   1.874   1.082   7.422 -0.2785 -0.0404  0.0061
  155SAPE   H8R17232   1.825   1.056   7.327 -2.1925  0.7783  0.7163
  155SAPE   C2917233   1.825   1.023   7.535 -0.2468  0.3422 -0.6030
  155SAPE   H9R17234   1.754   0.941   7.516 -1.0885  0.3020  2.2288
  155SAPE  C21017235   1.850   1.056   7.682  0.6796  0.3261 -0.7297
  155SAPE  H10R17236   1.922   0.980   7.718  0.4154 -0.0688 -1.0309
  155SAPE  H10S17237   1.759   1.037   7.742  0.4265 -1.5005 -1.6201
  155SAPE  C21117238   1.906   1.186   7.730 -0.1721 -0.3890 -0.0688
  155SAPE  H11R17239   1.907   1.269   7.658  0.0811 -1.5033 -1.3821
  155SAPE  C21217240   1.960   1.213   7.853  0.5056 -0.7123  0.2334
  155SAPE  H12R17241   1.993   1.316   7.876  1.0633 -0.9479  0.5364
  155SAPE  C21317242   1.970   1.124   7.976 -0.0112 -0.0762 -0.3566
  155SAPE  H13R17243   1.980   1.018   7.946  0.6429 -0.5897  1.5773
  155SAPE  H13S17244   1.874   1.129   8.031  0.6928 -1.7074  1.0894
  155SAPE  C21417245   2.072   1.172   8.074 -0.3372  0.1202 -0.7723
  155SAPE  H14R17246   2.179   1.164   8.048  0.0545  1.0010  0.4762
  155SAPE  C21517247   2.048   1.222   8.193 -0.7416  0.1495  0.2519
  155SAPE  H15R17248   2.131   1.259   8.254  0.0674 -1.7838  0.4025
  155SAPE  C21617249   1.917   1.242   8.263  0.1883 -0.1938 -0.4058
  155SAPE  H16R17250   1.925   1.218   8.371  3.6758  1.4977 -0.1501
  155SAPE  H16S17251   1.836   1.173   8.230  0.0716  0.0437 -0.6147
  155SAPE  C21717252   1.858   1.385   8.252  0.1385 -0.4008 -0.1357
  155SAPE  H17R17253   1.761   1.396   8.304 -0.2525  3.6564 -1.3661
  155SAPE  H17S17254   1.843   1.399   8.142  0.9886  2.2807  0.0060
  155SAPE  C21817255   1.946   1.493   8.306 -0.0286 -0.1705  0.0370
  155SAPE  H18R17256   2.044   1.485   8.255 -0.3996 -2.0667 -0.4610
  155SAPE  H18S17257   1.973   1.464   8.410  2.5213  1.1841 -0.1750
  155SAPE  C21917258   1.895   1.639   8.294 -0.1532 -0.2132 -0.1326
  155SAPE  H19R17259   1.813   1.631   8.369  0.1622 -1.3781  0.1075
  155SAPE  H19S17260   1.869   1.650   8.187 -1.1186 -0.8514  0.0199
  155SAPE  C22017261   2.005   1.736   8.340 -0.0282  0.0169 -0.4096
  155SAPE  H20R17262   2.083   1.739   8.261 -2.1299  2.8356 -2.6058
  155SAPE  H20S17263   2.047   1.707   8.439 -0.6739  1.6214  0.3709
  155SAPE  H20T17264   1.958   1.836   8.346 -2.0565 -0.8422 -1.2134
  155SAPE   C3317265   2.350   1.712   7.285  0.1258 -0.1200  0.7819
  155SAPE   H3X17266   2.268   1.787   7.293  1.2161  1.2171  0.0150
  155SAPE   H3Y17267   2.445   1.763   7.315  0.2140  1.1839 -1.4177
  155SAPE   C3417268   2.313   1.623   7.398  0.4993  0.0973 -0.6393
  155SAPE   H4X17269   2.389   1.544   7.413  0.2747  0.1398  0.9072
  155SAPE   H4Y17270   2.211   1.579   7.392  0.2123  0.2725  1.7699
  155SAPE   C3517271   2.328   1.702   7.537 -0.0060  0.3005  0.4828
  155SAPE   H5X17272   2.247   1.778   7.539  0.8989  1.3048 -0.0122
  155SAPE   H5Y17273   2.424   1.758   7.538  1.0078 -1.2693 -1.4409
  155SAPE   C3617274   2.323   1.611   7.657 -0.2820 -0.4577  0.8530
  155SAPE   H6X17275   2.426   1.569   7.652 -0.5408 -1.1796  1.3658
  155SAPE   H6Y17276   2.246   1.530   7.656  1.3636 -2.1550  2.8213
  155SAPE   C3717277   2.313   1.682   7.797 -0.1437  0.8664  0.1529
  155SAPE   H7X17278   2.224   1.748   7.804 -0.5309  0.3232  0.4344
  155SAPE   H7Y17279   2.409   1.731   7.825  2.4488 -3.9560  0.8700
  155SAPE   C3817280   2.294   1.579   7.907  0.3337  0.2659 -0.9051
  155SAPE   H8X17281   2.368   1.500   7.885  1.7701  1.4671 -0.5710
  155SAPE   H8Y17282   2.188   1.547   7.909  0.4542 -0.1807  1.8215
  155SAPE   C3917283   2.316   1.627   8.053  0.2393  0.1109  0.2361
  155SAPE   H9X17284   2.309   1.538   8.120  0.2905  0.9335  1.3715
  155SAPE   H9Y17285   2.244   1.706   8.085  0.7164  0.5597  0.2118
  155SAPE  C31017286   2.449   1.689   8.079 -0.2596  0.0594  0.2560
  155SAPE  H10X17287   2.461   1.784   8.022  1.2055  0.7282  1.5884
  155SAPE  H10Y17288   2.531   1.620   8.049  1.1702  2.4121 -1.6654
  155SAPE  C31117289   2.483   1.703   8.228  0.0404  0.8530 -0.6145
  155SAPE  H11X17290   2.469   1.604   8.275  0.8328  0.5090 -1.0939
  155SAPE  H11Y17291   2.408   1.770   8.277 -0.9790 -1.1420  0.6863
  155SAPE  C31217292   2.624   1.763   8.245 -1.0165  0.1055  0.3827
  155SAPE  H12X17293   2.694   1.692   8.196 -1.4689 -1.0792  1.4103
  155SAPE  H12Y17294   2.641   1.769   8.355  2.6814  0.6406 -0.0803
  155SAPE  C31317295   2.630   1.911   8.207 -0.1674  0.4737  0.3412
  155SAPE  H13X17296   2.542   1.955   8.259  1.0211  2.2259  0.9577
  155SAPE  H13Y17297   2.616   1.930   8.098  0.3068  1.6894  0.4773
  155SAPE  C31417298   2.764   1.979   8.256  1.0914  0.5737  0.2822
  155SAPE  H14X17299   2.774   1.953   8.363  1.2368  2.7079  0.8221
  155SAPE  H14Y17300   2.745   2.088   8.247 -0.3168  0.3594  0.3431
  155SAPE  C31517301   2.880   1.926   8.175 -0.1038  0.6917 -0.5066
  155SAPE  H15X17302   2.840   1.927   8.072 -2.6443 -3.9721  0.1416
  155SAPE  H15Y17303   2.903   1.821   8.205  0.9484  1.4068  1.3182
  155SAPE  C31617304   3.005   2.011   8.189 -0.8008 -0.1460 -0.1343
  155SAPE  H16X17305   3.024   2.018   8.298 -0.6748  0.2799 -0.1811
  155SAPE  H16Y17306   2.971   2.109   8.150 -1.5177 -0.1793  0.3977
  155SAPE  C31717307   3.130   1.968   8.110  1.1437  0.4344 -0.2823
  155SAPE  H17X17308   3.196   2.057   8.103 -0.1785  1.6100  1.6480
  155SAPE  H17Y17309   3.094   1.950   8.006 -0.3345  2.6488 -0.2075
  155SAPE  C31817310   3.200   1.843   8.166  0.3444  0.2150  0.0208
  155SAPE  H18X17311   3.144   1.757   8.123  0.1630 -0.1378  0.9278
  155SAPE  H18Y17312   3.188   1.840   8.277 -1.4491  2.8096 -0.0049
  155SAPE  H18Z17313   3.304   1.840   8.128  0.4325  1.4485  0.1371
  156SAPE     N17314   0.778   2.568   6.409  0.3891 -0.2817  0.0830
  156SAPE   HN117315   0.704   2.568   6.482  0.5803 -2.0252  0.3264
  156SAPE   HN217316   0.796   2.472   6.374 -2.4439 -1.7292  2.1796
  156SAPE   HN317317   0.862   2.617   6.445 -0.3004 -0.0092  1.3701
  156SAPE   C1217318   0.741   2.656   6.287 -0.1221 -0.9498  0.8919
  156SAPE  H12A17319   0.662   2.597   6.236 -2.0368 -0.6283  3.2902
  156SAPE  H12B17320   0.829   2.665   6.220 -1.3848  0.4847 -0.6431
  156SAPE   C1117321   0.696   2.794   6.333 -0.0582  0.0115 -0.4740
  156SAPE  H11A17322   0.601   2.780   6.390  0.8938  2.2314  1.8535
  156SAPE  H11B17323   0.671   2.844   6.237 -1.6811 -1.0633 -0.6488
  156SAPE     P17324   0.840   2.999   6.396  0.1657  0.2192 -0.1534
  156SAPE   O1317325   0.969   2.998   6.325  0.9091 -0.0697  0.0903
  156SAPE   O1417326   0.729   3.070   6.327  0.0952 -0.1593 -0.1204
  156SAPE   O1217327   0.796   2.852   6.415 -0.0453  0.4032 -0.4387
  156SAPE   O1117328   0.857   3.044   6.550  0.1307 -0.2803 -0.2920
  156SAPE    C117329   0.744   3.055   6.644  0.0781 -0.2810  0.8771
  156SAPE    HA17330   0.756   3.156   6.688  0.5839  0.2364 -0.4033
  156SAPE    HB17331   0.641   3.057   6.601 -0.0465  2.4914  1.1439
  156SAPE    C217332   0.750   2.953   6.765 -0.2023  0.1198 -0.5784
  156SAPE    HS17333   0.654   2.965   6.820  0.4570  0.0643  0.6187
  156SAPE   O2117334   0.863   2.979   6.857 -0.0304 -0.1753 -0.2020
  156SAPE   C2117335   0.852   3.086   6.929 -0.0877 -0.2526  0.7074
  156SAPE   O2217336   0.761   3.165   6.927  0.2959  0.1274 -0.2247
  156SAPE   C2217337   0.982   3.098   7.017 -0.2368 -0.0223 -0.0070
  156SAPE   H2R17338   1.007   2.990   7.027 -0.2330 -0.0912 -0.6895
  156SAPE   H2S17339   1.055   3.155   6.957 -1.7439 -0.9696 -2.9621
  156SAPE    C317340   0.749   2.809   6.711 -0.1748  0.4600  0.0494
  156SAPE    HX17341   0.844   2.784   6.657 -1.1400 -2.0305 -0.6677
  156SAPE    HY17342   0.667   2.800   6.637  0.3394 -1.5180 -0.3663
  156SAPE   O3117343   0.732   2.708   6.817 -0.5068 -0.1593  0.4207
  156SAPE   C3117344   0.705   2.590   6.782 -0.0229  0.3140 -0.6389
  156SAPE   O3217345   0.658   2.558   6.674  0.0148  0.2787  0.5964
  156SAPE   C3217346   0.679   2.501   6.907 -0.3313 -0.2713  0.0186
  156SAPE   H2X17347   0.740   2.547   6.987  0.0886 -0.7579 -0.0190
  156SAPE   H2Y17348   0.712   2.397   6.887 -2.3484 -0.7453 -1.1474
  156SAPE   C2317349   0.954   3.157   7.157  0.3096 -0.1798 -0.0519
  156SAPE   H3R17350   0.891   3.088   7.216 -4.3386  1.7739 -2.1976
  156SAPE   H3S17351   0.894   3.250   7.142 -0.1228 -0.4499  0.0076
  156SAPE   C2417352   1.083   3.202   7.236 -0.2047  0.2667  0.5140
  156SAPE   H4R17353   1.071   3.235   7.341  1.8514 -0.6036  1.0627
  156SAPE   H4S17354   1.127   3.289   7.183  0.5407  0.7674  1.8930
  156SAPE   C2517355   1.186   3.086   7.238 -0.2754  0.3095  0.0981
  156SAPE   H5R17356   1.215   3.035   7.145  0.6882 -0.7690  0.9591
  156SAPE   C2617357   1.238   3.030   7.348 -0.2682 -0.1686 -0.0597
  156SAPE   H6R17358   1.303   2.941   7.345  0.6362  0.4183  1.2861
  156SAPE   C2717359   1.207   3.077   7.489  0.1983 -0.1779  0.1227
  156SAPE   H7R17360   1.207   3.188   7.489 -0.6487 -0.1530  1.8503
  156SAPE   H7S17361   1.278   3.029   7.559  0.5264 -1.1761 -0.8728
  156SAPE   C2817362   1.076   3.025   7.532 -0.3146  0.1049  0.2081
  156SAPE   H8R17363   1.010   2.985   7.454 -1.4060  1.2120  0.5295
  156SAPE   C2917364   1.023   3.033   7.657 -0.2990 -0.2939  0.5721
  156SAPE   H9R17365   0.929   2.977   7.667 -0.7826  0.4305  0.1801
  156SAPE  C21017366   1.074   3.096   7.788 -0.7722 -0.3362 -0.1546
  156SAPE  H10R17367   1.162   3.161   7.767  0.0269 -0.9069  1.2512
  156SAPE  H10S17368   1.119   3.017   7.852  0.0559 -1.2774 -1.8460
  156SAPE  C21117369   0.962   3.168   7.859 -0.9188  0.2401 -0.8642
  156SAPE  H11R17370   0.907   3.233   7.789  0.6309  3.2535  0.5407
  156SAPE  C21217371   0.926   3.159   7.988 -0.4144  0.2245 -0.4673
  156SAPE  H12R17372   0.846   3.223   8.030  0.4328  0.8440  0.2633
  156SAPE  C21317373   1.017   3.089   8.093 -0.4157  0.8767 -0.1965
  156SAPE  H13R17374   1.126   3.099   8.074 -0.2360 -0.7668 -0.1156
  156SAPE  H13S17375   0.999   2.980   8.098 -1.3463  1.0612  0.9535
  156SAPE  C21417376   0.995   3.153   8.230  0.4924  0.6652  0.0834
  156SAPE  H14R17377   0.990   3.262   8.231 -2.3644  0.5965  0.7943
  156SAPE  C21517378   0.988   3.086   8.348 -0.8551 -0.0275 -0.8800
  156SAPE  H15R17379   0.970   3.137   8.444  0.9515 -1.3133  0.2044
  156SAPE  C21617380   0.997   2.935   8.369  0.8141  0.2192  0.1250
  156SAPE  H16R17381   1.069   2.900   8.446  0.9310 -1.6944 -0.7817
  156SAPE  H16S17382   1.027   2.889   8.272  2.4698  1.0012  0.2366
  156SAPE  C21717383   0.863   2.869   8.402 -0.0425  0.6051  0.7266
  156SAPE  H17R17384   0.842   2.882   8.511  0.5870  1.1384  0.7899
  156SAPE  H17S17385   0.891   2.767   8.369 -1.5372  1.0138 -2.1908
  156SAPE  C21817386   0.735   2.918   8.329 -0.5918 -0.5231 -0.5079
  156SAPE  H18R17387   0.745   2.921   8.218  0.9041  1.4413 -0.3707
  156SAPE  H18S17388   0.715   3.022   8.365  1.9127 -0.5177  1.1276
  156SAPE  C21917389   0.615   2.836   8.364  0.0370 -0.2829  0.4531
  156SAPE  H19R17390   0.578   2.864   8.465 -0.7677 -1.5922  0.5485
  156SAPE  H19S17391   0.631   2.728   8.381  0.6816 -0.4512 -1.0862
  156SAPE  C22017392   0.498   2.853   8.272  0.4217  0.8470 -0.2035
  156SAPE  H20R17393   0.413   2.786   8.296  1.3468 -0.9269 -1.6615
  156SAPE  H20S17394   0.538   2.836   8.170 -0.4937  1.8752 -0.7573
  156SAPE  H20T17395   0.457   2.956   8.266 -1.4556  0.1041 -0.6125
  156SAPE   C3317396   0.534   2.492   6.948  0.2995  0.3193  0.2748
  156SAPE   H3X17397   0.470   2.447   6.869 -2.5130  3.1809  0.6804
  156SAPE   H3Y17398   0.503   2.598   6.965  1.9906  0.6619  1.5337
  156SAPE   C3417399   0.515   2.418   7.084 -0.4865  0.3440 -0.9510
  156SAPE   H4X17400   0.410   2.441   7.114 -0.4759  0.5956 -1.1081
  156SAPE   H4Y17401   0.571   2.460   7.170 -1.8899  1.5588 -0.5978
  156SAPE   C3517402   0.548   2.270   7.085 -0.9089 -0.1373 -0.2425
  156SAPE   H5X17403   0.659   2.278   7.076 -1.1516  3.9135 -1.5339
  156SAPE   H5Y17404   0.512   2.222   6.992 -1.2997  1.7839 -1.1179
  156SAPE   C3617405   0.524   2.183   7.218  0.0236  0.1932 -0.3128
  156SAPE   H6X17406   0.600   2.103   7.211 -1.4962 -1.1453 -2.8654
  156SAPE   H6Y17407   0.425   2.137   7.198  0.9227 -1.3144 -1.5036
  156SAPE   C3717408   0.531   2.255   7.351 -0.1472 -0.4084  0.5023
  156SAPE   H7X17409   0.470   2.347   7.338 -0.1605 -0.3430  0.9816
  156SAPE   H7Y17410   0.639   2.281   7.345 -0.3903  0.3048 -1.7705
  156SAPE   C3817411   0.480   2.191   7.480 -0.0708  0.0596  0.2483
  156SAPE   H8X17412   0.503   2.260   7.564  1.2073 -1.0553  0.8662
  156SAPE   H8Y17413   0.537   2.098   7.506 -2.3967 -1.3161  0.7336
  156SAPE   C3917414   0.331   2.151   7.474 -0.2742 -0.3592 -0.4454
  156SAPE   H9X17415   0.309   2.062   7.411 -1.1350  0.6062 -1.5544
  156SAPE   H9Y17416   0.272   2.239   7.439 -1.5190 -0.5014  1.1949
  156SAPE  C31017417   0.259   2.137   7.616  0.4283 -0.1371 -0.0209
  156SAPE  H10X17418   0.156   2.124   7.578  0.6999 -0.2387 -0.7375
  156SAPE  H10Y17419   0.263   2.230   7.678  1.5776 -0.9929  1.2604
  156SAPE  C31117420   0.325   2.033   7.701 -0.3042 -0.7194 -0.2648
  156SAPE  H11X17421   0.429   2.067   7.722  0.4363 -2.7430 -0.4343
  156SAPE  H11Y17422   0.338   1.930   7.661 -2.1202 -1.0256 -0.1174
  156SAPE  C31217423   0.269   1.997   7.844 -0.0036 -0.2976 -0.2239
  156SAPE  H12X17424   0.298   1.901   7.891 -2.6658 -1.1106 -0.0778
  156SAPE  H12Y17425   0.159   1.980   7.834  0.0512 -1.4018  0.8511
  156SAPE  C31317426   0.305   2.114   7.955  0.4393  0.6278  0.1399
  156SAPE  H13X17427   0.259   2.203   7.909  1.5524  1.7880  1.1943
  156SAPE  H13Y17428   0.412   2.143   7.966 -0.0061  2.0225  1.0872
  156SAPE  C31417429   0.243   2.096   8.091 -0.1154  0.0537 -0.8398
  156SAPE  H14X17430   0.133   2.082   8.095 -0.1208  0.3475  0.7866
  156SAPE  H14Y17431   0.254   2.191   8.148 -0.4598  0.6503 -1.7516
  156SAPE  C31517432   0.314   1.980   8.167  0.3778  0.4038  0.1691
  156SAPE  H15X17433   0.421   2.003   8.151  0.7815 -1.7536 -0.5650
  156SAPE  H15Y17434   0.299   1.881   8.120  1.3313 -0.6680  2.0247
  156SAPE  C31617435   0.272   1.977   8.312  0.3561 -0.4514 -0.3452
  156SAPE  H16X17436   0.164   1.953   8.301  0.3024 -2.0594  2.6350
  156SAPE  H16Y17437   0.280   2.077   8.360 -0.2291 -0.2719 -0.6073
  156SAPE  C31717438   0.335   1.867   8.394  0.4113 -0.3804 -0.2673
  156SAPE  H17X17439   0.443   1.885   8.409  0.2133 -1.2814  3.0565
  156SAPE  H17Y17440   0.314   1.774   8.338 -0.9728 -1.6666  2.2009
  156SAPE  C31817441   0.273   1.858   8.536 -0.0814  0.6010  0.1197
  156SAPE  H18X17442   0.315   1.927   8.613  0.6684 -2.0176  2.1741
  156SAPE  H18Y17443   0.283   1.756   8.577 -1.3116  0.9161  1.2982
  156SAPE  H18Z17444   0.163   1.873   8.541 -0.1207 -0.0615  2.3840
  157SAPE     N17445   5.973   6.676   6.175 -0.2438 -0.3317  0.1973
  157SAPE   HN117446   5.983   6.717   6.270 -0.1109 -0.7818  0.3779
  157SAPE   HN217447   6.025   6.735   6.107 -1.8029  2.2572  1.0950
  157SAPE   HN317448   5.873   6.677   6.146  0.1390 -0.1097 -1.1703
  157SAPE   C1217449   6.024   6.530   6.164  0.7339 -0.0691  0.1642
  157SAPE  H12A17450   6.134   6.529   6.156  0.6156 -0.9961 -2.1211
  157SAPE  H12B17451   5.983   6.504   6.064  0.8879  4.9230 -1.4457
  157SAPE   C1117452   5.971   6.444   6.276 -0.0322  0.8429 -0.3182
  157SAPE  H11A17453   5.996   6.491   6.373  1.3776  1.8076 -1.1117
  157SAPE  H11B17454   6.030   6.350   6.271 -0.3491  0.6434 -0.3765
  157SAPE     P17455   5.763   6.294   6.228  0.4681  0.3053 -0.1243
  157SAPE   O1317456   5.620   6.316   6.203  0.1242 -0.4235 -0.6897
  157SAPE   O1417457   5.828   6.234   6.112 -0.3251 -1.2018  0.1931
  157SAPE   O1217458   5.829   6.427   6.273  0.7259 -0.6786 -0.3957
  157SAPE   O1117459   5.772   6.205   6.362  0.3012  0.0836 -0.3705
  157SAPE    C117460   5.693   6.227   6.477  0.5971 -0.2827 -0.3748
  157SAPE    HA17461   5.607   6.298   6.466  1.2207  0.8432  1.5374
  157SAPE    HB17462   5.648   6.131   6.508 -0.2924  0.6348  1.3201
  157SAPE    C217463   5.769   6.300   6.584 -0.1750 -0.5838 -0.8660
  157SAPE    HS17464   5.794   6.400   6.542  0.6026 -0.9461 -1.2830
  157SAPE   O2117465   5.887   6.219   6.619  0.0078 -0.5682 -0.3919
  157SAPE   C2117466   5.977   6.290   6.686 -0.3016 -0.4342 -0.0127
  157SAPE   O2217467   5.989   6.409   6.699  0.3207 -0.1543  0.5714
  157SAPE   C2217468   6.088   6.184   6.731  0.7230 -0.6902 -0.4258
  157SAPE   H2R17469   6.116   6.132   6.636 -0.6950 -2.5420  0.1359
  157SAPE   H2S17470   6.176   6.231   6.780  1.2152 -3.1976  1.3034
  157SAPE    C317471   5.677   6.325   6.707 -0.5309  0.6485 -0.1639
  157SAPE    HX17472   5.675   6.230   6.764 -0.1786  0.4454 -0.4901
  157SAPE    HY17473   5.571   6.341   6.676 -0.4889 -0.7984 -1.1272
  157SAPE   O3117474   5.724   6.428   6.803  0.1980 -0.0632  0.1819
  157SAPE   C3117475   5.655   6.437   6.918 -0.0477 -0.1076  0.2650
  157SAPE   O3217476   5.546   6.382   6.944 -0.1904 -0.5686  0.7032
  157SAPE   C3217477   5.739   6.532   7.011  0.2445 -0.5960  0.8386
  157SAPE   H2X17478   5.744   6.622   6.947 -0.6023 -0.5278  0.8466
  157SAPE   H2Y17479   5.841   6.491   7.023  0.8842  1.0236  1.1348
  157SAPE   C2317480   6.036   6.079   6.827  0.3669 -0.2980 -0.7945
  157SAPE   H3R17481   6.117   6.004   6.834 -0.9095 -1.6086  0.5948
  157SAPE   H3S17482   5.951   6.020   6.787  1.1098 -1.6296 -0.4786
  157SAPE   C2417483   5.990   6.135   6.967 -0.2241 -0.0249  0.5890
  157SAPE   H4R17484   5.904   6.203   6.947  1.5585  2.6308  1.3575
  157SAPE   H4S17485   6.077   6.195   7.000  1.4560 -3.2750  2.5431
  157SAPE   C2517486   5.956   6.020   7.060  0.2018 -0.5413  0.0455
  157SAPE   H5R17487   5.942   5.922   7.011  0.1729 -0.8836  0.7345
  157SAPE   C2617488   5.944   6.032   7.190 -0.3503  1.4030  0.9121
  157SAPE   H6R17489   5.901   5.950   7.249 -0.8742  0.4749 -0.6933
  157SAPE   C2717490   5.957   6.157   7.274 -0.2621 -0.6365  0.2935
  157SAPE   H7R17491   5.870   6.176   7.340  1.0060  0.1677  1.8276
  157SAPE   H7S17492   5.955   6.250   7.214 -1.5057  0.9871  2.6704
  157SAPE   C2817493   6.079   6.152   7.359 -0.6034  0.5012 -0.9349
  157SAPE   H8R17494   6.172   6.156   7.300 -0.6998  1.6226 -1.0309
  157SAPE   C2917495   6.093   6.153   7.490 -0.2110  0.1289 -0.4208
  157SAPE   H9R17496   6.194   6.154   7.534  0.6510 -0.8998 -2.2312
  157SAPE  C21017497   5.991   6.162   7.594  0.2803 -0.0642 -0.1018
  157SAPE  H10R17498   5.897   6.110   7.566 -0.0377  1.4141 -2.0510
  157SAPE  H10S17499   5.945   6.263   7.603 -0.2078 -0.3820  1.2124
  157SAPE  C21117500   6.045   6.112   7.722 -0.0931 -0.4973  0.4368
  157SAPE  H11R17501   6.065   6.004   7.729  1.5847 -0.2010  0.6253
  157SAPE  C21217502   6.066   6.173   7.840  0.3048 -0.0832 -0.1682
  157SAPE  H12R17503   6.104   6.112   7.924 -1.8966  0.7218  1.5217
  157SAPE  C21317504   6.014   6.310   7.873 -0.6587  0.3219  0.3164
  157SAPE  H13R17505   5.961   6.348   7.783 -2.4336 -1.6399  0.4525
  157SAPE  H13S17506   6.109   6.363   7.893 -0.1493 -1.7397  4.2673
  157SAPE  C21417507   5.934   6.308   7.997  0.5556 -0.3206  0.0584
  157SAPE  H14R17508   5.926   6.213   8.053 -0.7101  0.2830  0.9515
  157SAPE  C21517509   5.866   6.413   8.045  0.7656  0.4344  0.0305
  157SAPE  H15R17510   5.804   6.404   8.136  1.4373  2.6523  0.7909
  157SAPE  C21617511   5.854   6.545   7.968 -0.3928 -0.0027 -0.1309
  157SAPE  H16R17512   5.924   6.545   7.881  0.2198  1.6404  0.3249
  157SAPE  H16S17513   5.890   6.632   8.028 -0.8400 -0.5629  0.9654
  157SAPE  C21717514   5.717   6.569   7.906  0.0957 -0.0907 -0.0117
  157SAPE  H17R17515   5.644   6.596   7.985 -0.4610  2.3740 -1.2821
  157SAPE  H17S17516   5.683   6.473   7.862  0.2438  1.1355 -3.0384
  157SAPE  C21817517   5.712   6.675   7.790  0.7516  0.7515 -0.2002
  157SAPE  H18R17518   5.691   6.774   7.835 -2.4077 -0.8211  2.1650
  157SAPE  H18S17519   5.620   6.648   7.734  0.7453  0.4725 -0.0595
  157SAPE  C21917520   5.830   6.676   7.686  0.3479 -0.3827  0.0880
  157SAPE  H19R17521   5.849   6.574   7.648 -0.6788 -0.6776  0.3309
  157SAPE  H19S17522   5.925   6.713   7.730 -0.2515  2.6940 -0.9439
  157SAPE  C22017523   5.806   6.769   7.561 -0.2796 -0.4647 -0.4109
  157SAPE  H20R17524   5.786   6.877   7.577 -1.8090 -0.4917 -1.8769
  157SAPE  H20S17525   5.711   6.736   7.513 -0.1026 -1.7298  0.0550
  157SAPE  H20T17526   5.892   6.753   7.493  1.2451  0.4026  1.2256
  157SAPE   C3317527   5.679   6.558   7.146 -0.1769  0.6013 -0.1328
  157SAPE   H3X17528   5.568   6.561   7.151 -0.2309 -1.3758  0.6694
  157SAPE   H3Y17529   5.708   6.664   7.165 -0.5385  1.0744 -1.9880
  157SAPE   C3417530   5.732   6.469   7.250  0.6834 -0.3727 -0.1991
  157SAPE   H4X17531   5.838   6.491   7.276  0.3046  0.8492  0.3480
  157SAPE   H4Y17532   5.730   6.365   7.210  1.8270 -0.4832 -0.0116
  157SAPE   C3517533   5.638   6.474   7.373  0.1702 -0.7097  0.3063
  157SAPE   H5X17534   5.543   6.425   7.344 -0.1099  1.5683 -3.2907
  157SAPE   H5Y17535   5.611   6.578   7.400 -1.2488 -0.4714 -1.7921
  157SAPE   C3617536   5.693   6.389   7.487 -0.1574 -0.3970 -0.0964
  157SAPE   H6X17537   5.786   6.439   7.521 -1.8412  2.7396  0.3016
  157SAPE   H6Y17538   5.733   6.296   7.443  3.0169  0.5126  0.6281
  157SAPE   C3717539   5.594   6.349   7.597 -0.4486 -0.3963  0.5468
  157SAPE   H7X17540   5.493   6.309   7.574 -0.1876 -1.7198  1.5874
  157SAPE   H7Y17541   5.571   6.445   7.648  1.9913  0.6234 -0.1501
  157SAPE   C3817542   5.655   6.255   7.699 -0.3072  0.0748  0.8112
  157SAPE   H8X17543   5.755   6.300   7.715 -1.0227  2.2868 -0.4725
  157SAPE   H8Y17544   5.672   6.155   7.655  1.1981  0.9275 -0.6207
  157SAPE   C3917545   5.561   6.230   7.812  0.1618  0.2467  0.2787
  157SAPE   H9X17546   5.465   6.184   7.782  2.1398 -2.8440 -1.8887
  157SAPE   H9Y17547   5.545   6.318   7.878  0.1832  1.1157 -0.8463
  157SAPE  C31017548   5.627   6.123   7.912  0.6148 -0.3375  0.6885
  157SAPE  H10X17549   5.724   6.170   7.941  0.0168  0.8153  0.8654
  157SAPE  H10Y17550   5.640   6.028   7.855  0.6226  1.0351 -1.7416
  157SAPE  C31117551   5.539   6.103   8.034  0.2437  1.2176 -0.4539
  157SAPE  H11X17552   5.463   6.031   7.997 -0.7290  2.3239 -0.6735
  157SAPE  H11Y17553   5.472   6.189   8.055  0.4954  1.3677 -0.2570
  157SAPE  C31217554   5.605   6.043   8.165  0.5255  0.3469  1.0783
  157SAPE  H12X17555   5.683   6.119   8.186  3.4505 -2.1499 -0.1324
  157SAPE  H12Y17556   5.655   5.947   8.141 -0.2349  0.2395 -0.1813
  157SAPE  C31317557   5.514   6.028   8.281 -0.5748 -0.1696  0.2327
  157SAPE  H13X17558   5.551   5.955   8.357  1.0308 -1.9311 -2.1060
  157SAPE  H13Y17559   5.413   5.991   8.256 -0.2862 -0.9174  0.1519
  157SAPE  C31417560   5.493   6.162   8.351 -0.3328  0.5558 -0.6700
  157SAPE  H14X17561   5.423   6.226   8.294 -0.0237 -1.3318 -3.3778
  157SAPE  H14Y17562   5.590   6.216   8.355 -0.9142  1.5679  0.0404
  157SAPE  C31517563   5.429   6.161   8.493  0.1047 -0.1339 -0.2023
  157SAPE  H15X17564   5.466   6.069   8.543  0.9997  0.6345  0.5933
  157SAPE  H15Y17565   5.319   6.149   8.492 -0.1384  1.8750 -0.3937
  157SAPE  C31617566   5.473   6.292   8.565 -0.3933  0.2699  0.6188
  157SAPE  H16X17567   5.433   6.389   8.528  0.0745  0.0753 -0.4043
  157SAPE  H16Y17568   5.581   6.290   8.542 -0.7544 -0.3246 -1.1630
  157SAPE  C31717569   5.468   6.295   8.718 -0.0518 -0.6210 -0.1457
  157SAPE  H17X17570   5.366   6.320   8.752  0.4774 -0.1937  1.1863
  157SAPE  H17Y17571   5.532   6.377   8.756 -0.5553 -1.4486  2.7608
  157SAPE  C31817572   5.513   6.168   8.796 -0.3277  0.5879  0.0267
  157SAPE  H18X17573   5.574   6.106   8.727 -0.6337  1.8530 -1.4427
  157SAPE  H18Y17574   5.419   6.118   8.828 -0.8725  0.6439 -1.3815
  157SAPE  H18Z17575   5.576   6.193   8.884  1.0835 -0.2698 -0.7106
  158SAPE     N17576   0.167   1.824   6.507  0.0637  0.1263 -0.6513
  158SAPE   HN117577   0.136   1.730   6.541 -1.7481 -0.1249 -2.7936
  158SAPE   HN217578   0.187   1.888   6.586 -2.4035  1.9115 -1.3390
  158SAPE   HN317579   0.080   1.856   6.460  0.6342 -1.0192 -2.5761
  158SAPE   C1217580   0.284   1.821   6.410  0.1323 -0.0096  0.6980
  158SAPE  H12A17581   0.362   1.752   6.449  0.8501 -0.3159 -1.2098
  158SAPE  H12B17582   0.319   1.926   6.408  0.7786 -0.2312 -0.5552
  158SAPE   C1117583   0.245   1.759   6.276  0.0572  0.0827  0.4739
  158SAPE  H11A17584   0.330   1.780   6.207 -0.0453  0.4488  0.4538
  158SAPE  H11B17585   0.156   1.803   6.225 -1.0208  0.6335  2.6722
  158SAPE     P17586   0.249   1.520   6.190  0.1875  0.3949 -0.0411
  158SAPE   O1317587   0.123   1.469   6.139 -0.3134  0.9977 -0.5249
  158SAPE   O1417588   0.341   1.580   6.091  0.2480 -0.3017  0.3119
  158SAPE   O1217589   0.220   1.622   6.307 -0.5264  0.1333 -0.4215
  158SAPE   O1117590   0.318   1.397   6.258 -0.1869 -0.4353  0.2013
  158SAPE    C117591   0.380   1.410   6.385  0.7151 -0.1497 -0.4755
  158SAPE    HA17592   0.460   1.334   6.391  0.5921 -0.2352  0.2197
  158SAPE    HB17593   0.418   1.514   6.400 -2.3478  1.2984 -1.7350
  158SAPE    C217594   0.284   1.382   6.509  0.5298  0.0443  0.4045
  158SAPE    HS17595   0.214   1.464   6.534 -0.5415 -1.1226  1.4227
  158SAPE   O2117596   0.364   1.353   6.626 -0.1427  0.0690  0.3524
  158SAPE   C2117597   0.415   1.462   6.684 -0.6633  0.5286  0.0885
  158SAPE   O2217598   0.395   1.577   6.645  0.0868 -0.0820  0.3873
  158SAPE   C2217599   0.508   1.408   6.795  0.5270 -1.1701 -0.4875
  158SAPE   H2R17600   0.486   1.299   6.798 -0.8369 -0.9938 -2.2136
  158SAPE   H2S17601   0.612   1.425   6.761 -0.1757  1.4518 -1.5363
  158SAPE    C317602   0.197   1.253   6.488  0.3416 -0.3308  0.8060
  158SAPE    HX17603   0.267   1.173   6.455  1.5516  0.5275  1.2267
  158SAPE    HY17604   0.116   1.270   6.413  0.0112  1.1872  1.4794
  158SAPE   O3117605   0.138   1.207   6.611  0.2642 -0.6249 -0.4852
  158SAPE   C3117606   0.026   1.276   6.645  0.2512 -0.8832 -0.2881
  158SAPE   O3217607  -0.019   1.376   6.592 -0.8940  0.4608 -0.2006
  158SAPE   C3217608  -0.051   1.204   6.760  0.5082 -0.5892 -0.0842
  158SAPE   H2X17609   0.018   1.155   6.832 -1.6890 -2.0957  1.1165
  158SAPE   H2Y17610  -0.114   1.131   6.706 -1.1427 -0.5161  1.6702
  158SAPE   C2317611   0.488   1.478   6.929 -0.2364 -0.5847 -0.3086
  158SAPE   H3R17612   0.490   1.588   6.911  1.2933 -0.9907 -3.0344
  158SAPE   H3S17613   0.574   1.453   6.995 -0.5481  0.6313  0.6040
  158SAPE   C2417614   0.372   1.412   7.010  0.5966 -0.8861  0.7538
  158SAPE   H4R17615   0.385   1.302   7.010  0.4973 -0.9015  1.3694
  158SAPE   H4S17616   0.277   1.445   6.962 -0.3637 -0.1440  3.0284
  158SAPE   C2517617   0.393   1.465   7.148  0.0372  0.3851 -0.0802
  158SAPE   H5R17618   0.498   1.492   7.166  0.8889 -1.2845 -2.1735
  158SAPE   C2617619   0.299   1.480   7.242  0.3133 -0.5660  0.4987
  158SAPE   H6R17620   0.340   1.514   7.338  1.7426 -0.1509 -0.2347
  158SAPE   C2717621   0.150   1.458   7.234 -0.1856 -0.2251  0.2747
  158SAPE   H7R17622   0.122   1.506   7.138  0.8128  2.2639  1.1536
  158SAPE   H7S17623   0.085   1.519   7.299  0.8357  0.6927  0.4691
  158SAPE   C2817624   0.115   1.311   7.231  0.8906 -0.5560  0.3817
  158SAPE   H8R17625   0.118   1.271   7.129  1.8793 -2.6466  1.1648
  158SAPE   C2917626   0.069   1.236   7.326 -0.3466 -0.5832  0.4323
  158SAPE   H9R17627   0.062   1.131   7.294 -1.4388 -0.0430 -1.3001
  158SAPE  C21017628   0.046   1.281   7.463  0.3158  0.1381  0.0421
  158SAPE  H10R17629  -0.056   1.324   7.473 -0.4689 -1.6883  0.3322
  158SAPE  H10S17630   0.111   1.368   7.484  2.9725 -1.6041 -0.5059
  158SAPE  C21117631   0.059   1.167   7.561  0.9532 -0.4755 -0.0715
  158SAPE  H11R17632  -0.002   1.083   7.526 -0.8748  1.7132 -2.4113
  158SAPE  C21217633   0.111   1.153   7.679  0.0126  0.0549  0.4441
  158SAPE  H12R17634   0.114   1.057   7.733  0.1388 -0.1573  0.0656
  158SAPE  C21317635   0.196   1.248   7.751 -0.0344  0.1635  0.4040
  158SAPE  H13R17636   0.248   1.313   7.678  2.1183 -1.0083  0.8040
  158SAPE  H13S17637   0.273   1.185   7.800 -1.5009  0.5356  3.4376
  158SAPE  C21417638   0.125   1.322   7.867 -0.2540  0.0869 -0.7619
  158SAPE  H14R17639   0.054   1.397   7.830 -0.9480 -0.5942 -0.8386
  158SAPE  C21517640   0.143   1.303   8.000 -0.5197  0.0162  0.7519
  158SAPE  H15R17641   0.079   1.361   8.068 -1.1041 -0.1286  0.3390
  158SAPE  C21617642   0.241   1.199   8.060  1.2959 -0.0121  0.3529
  158SAPE  H16R17643   0.342   1.246   8.063  0.9245  0.8929 -0.5989
  158SAPE  H16S17644   0.250   1.106   8.000  1.6225  1.6785 -2.3954
  158SAPE  C21717645   0.189   1.167   8.198 -0.3192  0.2985  1.0324
  158SAPE  H17R17646   0.187   1.257   8.262  0.4844  1.1988 -0.1610
  158SAPE  H17S17647   0.269   1.106   8.245 -1.3726 -2.0838 -0.0847
  158SAPE  C21817648   0.062   1.088   8.208  0.1679  0.0252  0.7089
  158SAPE  H18R17649   0.060   0.998   8.143 -1.1646  1.3429 -1.2100
  158SAPE  H18S17650  -0.029   1.149   8.188  1.1269  1.3247  0.2171
  158SAPE  C21917651   0.046   1.033   8.354  0.6537 -0.1352 -0.3910
  158SAPE  H19R17652   0.126   0.958   8.373 -1.4729 -2.3898  0.2037
  158SAPE  H19S17653  -0.052   0.986   8.377  0.8109  0.7763  2.4938
  158SAPE  C22017654   0.045   1.140   8.468  0.7706  0.5363 -0.0521
  158SAPE  H20R17655   0.143   1.192   8.468  1.1545 -0.1577 -1.1842
  158SAPE  H20S17656   0.032   1.096   8.569  0.1700  1.4351  0.2750
  158SAPE  H20T17657  -0.043   1.207   8.466  0.2584 -0.0750  1.1439
  158SAPE   C3317658  -0.135   1.299   6.849 -0.2204 -0.1239 -0.1034
  158SAPE   H3X17659  -0.205   1.364   6.793 -0.5402  0.2526  0.7082
  158SAPE   H3Y17660  -0.065   1.357   6.912 -0.2625 -0.8979  0.6729
  158SAPE   C3417661  -0.226   1.211   6.937 -0.8375 -0.1969 -0.3769
  158SAPE   H4X17662  -0.250   1.116   6.885  1.3455 -0.4991 -0.9058
  158SAPE   H4Y17663  -0.320   1.256   6.976 -1.2225 -0.8901 -0.4961
  158SAPE   C3517664  -0.156   1.159   7.065  1.2157 -0.5407  0.4427
  158SAPE   H5X17665  -0.152   1.234   7.147  1.1452  1.0134 -0.9067
  158SAPE   H5Y17666  -0.054   1.138   7.025  0.1503  1.5776 -4.1123
  158SAPE   C3617667  -0.211   1.033   7.117 -0.2247  0.4115  0.0705
  158SAPE   H6X17668  -0.128   0.983   7.172  0.5524  0.6217 -0.8739
  158SAPE   H6Y17669  -0.225   0.965   7.030  1.7171  0.5752 -0.4118
  158SAPE   C3717670  -0.330   1.047   7.208  0.1482 -0.1764 -0.0330
  158SAPE   H7X17671  -0.285   1.099   7.295 -0.0003 -0.0153 -0.0518
  158SAPE   H7Y17672  -0.404   1.117   7.164 -0.4221 -0.9269 -0.2979
  158SAPE   C3817673  -0.401   0.916   7.258  0.0165  0.1964 -0.0558
  158SAPE   H8X17674  -0.346   0.821   7.240  0.7202 -0.0347  2.8271
  158SAPE   H8Y17675  -0.491   0.901   7.195  1.2919  1.3113 -2.2942
  158SAPE   C3917676  -0.457   0.935   7.399 -0.3779 -0.1953  0.0661
  158SAPE   H9X17677  -0.520   1.027   7.399  1.6384  1.2522 -0.0354
  158SAPE   H9Y17678  -0.368   0.957   7.461 -2.3019  2.9120  2.0013
  158SAPE  C31017679  -0.540   0.820   7.453 -0.1392 -0.4163  0.4023
  158SAPE  H10X17680  -0.471   0.732   7.453 -0.1840 -0.4866 -1.1576
  158SAPE  H10Y17681  -0.622   0.802   7.380 -1.2377 -1.1823  1.7850
  158SAPE  C31117682  -0.588   0.853   7.596  0.0701 -0.2339 -0.4644
  158SAPE  H11X17683  -0.664   0.773   7.611 -3.5098  2.6540 -1.5591
  158SAPE  H11Y17684  -0.647   0.947   7.589  1.3969  0.5931 -0.9146
  158SAPE  C31217685  -0.488   0.842   7.712  0.7410  0.4035 -0.0156
  158SAPE  H12X17686  -0.410   0.921   7.712 -0.7371  1.9121 -0.0061
  158SAPE  H12Y17687  -0.452   0.741   7.683 -4.9229 -1.9478 -0.1188
  158SAPE  C31317688  -0.557   0.841   7.844  0.3202 -0.0346  0.4464
  158SAPE  H13X17689  -0.621   0.749   7.846  1.0082 -0.5577 -0.6623
  158SAPE  H13Y17690  -0.625   0.928   7.834  0.5923  0.3976  2.0886
  158SAPE  C31417691  -0.470   0.852   7.971  0.4409  0.0303 -0.3426
  158SAPE  H14X17692  -0.420   0.950   7.982  0.8612 -0.4048  2.3302
  158SAPE  H14Y17693  -0.381   0.785   7.967  1.9243  1.8348  1.0072
  158SAPE  C31517694  -0.546   0.819   8.095 -0.3424 -0.2111 -0.4088
  158SAPE  H15X17695  -0.590   0.719   8.072  1.3689 -1.1152  0.0934
  158SAPE  H15Y17696  -0.620   0.897   8.124 -0.3220 -0.7508  1.2061
  158SAPE  C31617697  -0.448   0.789   8.220  0.1464 -0.2048  0.4600
  158SAPE  H16X17698  -0.354   0.738   8.187 -0.2692 -1.7842  1.5680
  158SAPE  H16Y17699  -0.495   0.703   8.273 -0.0280 -1.1962 -1.2492
  158SAPE  C31717700  -0.420   0.901   8.322 -0.2278  0.2167 -0.1820
  158SAPE  H17X17701  -0.522   0.937   8.350  0.4050 -0.2269  3.1262
  158SAPE  H17Y17702  -0.364   0.978   8.265 -1.7859  1.1018 -0.5763
  158SAPE  C31817703  -0.356   0.864   8.460  0.1095  0.2084  0.4713
  158SAPE  H18X17704  -0.279   0.783   8.452  0.0771  0.2656 -0.6300
  158SAPE  H18Y17705  -0.435   0.809   8.516 -1.0515 -2.2703 -3.2271
  158SAPE  H18Z17706  -0.326   0.956   8.514  0.4820  2.1497 -2.7453
  159SAPE     N17707   0.786   3.194   6.101 -0.1306  0.4636 -1.0437
  159SAPE   HN117708   0.746   3.146   6.185  0.6052 -0.8170 -1.4078
  159SAPE   HN217709   0.846   3.127   6.049 -1.5606 -1.3192 -0.5027
  159SAPE   HN317710   0.834   3.281   6.133  0.8817 -0.7634  1.0063
  159SAPE   C1217711   0.667   3.217   6.014 -0.2858  0.5004  0.8228
  159SAPE  H12A17712   0.641   3.119   5.967  2.9473 -0.4464  0.7227
  159SAPE  H12B17713   0.712   3.287   5.940  2.6724 -2.1617 -0.1423
  159SAPE   C1117714   0.543   3.259   6.098 -0.5686  0.0531  0.1275
  159SAPE  H11A17715   0.468   3.282   6.019  0.4578  0.5622 -0.7430
  159SAPE  H11B17716   0.582   3.345   6.157  0.1145 -1.3588  1.7761
  159SAPE     P17717   0.400   3.044   6.122 -0.3071 -0.2470 -0.2780
  159SAPE   O1317718   0.313   3.104   6.025  0.7048 -0.2284  0.2715
  159SAPE   O1417719   0.471   2.926   6.075  0.4656 -0.2362  0.4495
  159SAPE   O1217720   0.501   3.148   6.179 -0.9872  0.1591 -0.1891
  159SAPE   O1117721   0.310   3.005   6.254 -0.1172 -0.5625 -0.2722
  159SAPE    C117722   0.333   3.096   6.368 -0.5701  0.1312  0.0414
  159SAPE    HA17723   0.433   3.076   6.411 -1.1183 -0.4056  1.1128
  159SAPE    HB17724   0.312   3.201   6.336 -0.2188 -0.1007 -0.9718
  159SAPE    C217725   0.238   3.065   6.486  0.2439  0.5255  0.5610
  159SAPE    HS17726   0.151   3.134   6.482  0.1503  0.3994  0.3950
  159SAPE   O2117727   0.308   3.081   6.613 -0.6314  0.2580  0.3476
  159SAPE   C2117728   0.336   3.210   6.655  0.4136 -0.0421  0.0968
  159SAPE   O2217729   0.295   3.310   6.595  0.7646  0.0594  0.0196
  159SAPE   C2217730   0.413   3.187   6.783 -0.1382  0.1848  0.4477
  159SAPE   H2R17731   0.351   3.126   6.852 -1.5917 -2.4169 -2.9183
  159SAPE   H2S17732   0.506   3.134   6.754  0.6008  1.4013  0.5153
  159SAPE    C317733   0.178   2.916   6.480  0.0083  0.2818  0.0012
  159SAPE    HX17734   0.266   2.850   6.468  0.9858  1.6093 -0.3563
  159SAPE    HY17735   0.136   2.893   6.379 -1.1968  1.4032  0.2074
  159SAPE   O3117736   0.106   2.867   6.596 -0.1480  0.5129 -0.5651
  159SAPE   C3117737  -0.028   2.877   6.582 -0.5837 -0.8472 -0.2081
  159SAPE   O3217738  -0.093   2.887   6.477 -0.1259  0.5328  0.0599
  159SAPE   C3217739  -0.092   2.891   6.723  0.6479  0.4826 -0.4702
  159SAPE   H2X17740  -0.050   2.805   6.780 -2.6885 -0.8285  0.2056
  159SAPE   H2Y17741  -0.202   2.876   6.718  0.4880  1.7460 -1.0846
  159SAPE   C2317742   0.438   3.321   6.841 -0.7196  0.5117  0.1877
  159SAPE   H3R17743   0.453   3.401   6.765  0.9245  0.6401  0.6099
  159SAPE   H3S17744   0.528   3.317   6.906 -1.5313  1.4267  1.4175
  159SAPE   C2417745   0.326   3.374   6.932  0.2649 -0.3442  0.3794
  159SAPE   H4R17746   0.319   3.313   7.024  0.4716  1.8486  1.9512
  159SAPE   H4S17747   0.223   3.366   6.890  0.3304 -1.8692  0.4684
  159SAPE   C2517748   0.337   3.521   6.971 -0.4677  0.4029  0.0098
  159SAPE   H5R17749   0.361   3.572   6.877  1.4008 -1.9033 -0.8449
  159SAPE   C2617750   0.345   3.577   7.092  0.1478  0.0628 -0.0168
  159SAPE   H6R17751   0.357   3.686   7.097  0.8534  0.1018 -1.9593
  159SAPE   C2717752   0.338   3.496   7.222  0.1915  0.3991 -0.4910
  159SAPE   H7R17753   0.421   3.534   7.286  1.5270 -2.7752 -0.1590
  159SAPE   H7S17754   0.365   3.388   7.215 -2.3749 -0.5977  2.4340
  159SAPE   C2817755   0.209   3.505   7.284 -0.3607  0.0015  0.2017
  159SAPE   H8R17756   0.119   3.511   7.222  0.2957  2.3230 -0.6188
  159SAPE   C2917757   0.182   3.502   7.413 -0.0313  0.2124 -0.0470
  159SAPE   H9R17758   0.076   3.505   7.441  0.3993  3.2025  1.6553
  159SAPE  C21017759   0.266   3.483   7.539 -0.2384 -0.3968  0.2185
  159SAPE  H10R17760   0.240   3.572   7.601 -0.0338 -0.9166  1.0634
  159SAPE  H10S17761   0.371   3.489   7.504 -0.1890 -0.3467  0.3725
  159SAPE  C21117762   0.254   3.355   7.616  0.4181 -0.6713  0.3943
  159SAPE  H11R17763   0.316   3.273   7.577  2.2460 -1.0454  3.7588
  159SAPE  C21217764   0.182   3.336   7.726  0.4385 -0.6690 -0.3005
  159SAPE  H12R17765   0.172   3.231   7.759  0.8299  0.6099  4.6313
  159SAPE  C21317766   0.098   3.433   7.806  0.3899  0.7643 -0.7532
  159SAPE  H13R17767   0.140   3.535   7.797 -0.6328  1.3374  0.6081
  159SAPE  H13S17768   0.103   3.410   7.915 -1.1151  0.0244 -0.8140
  159SAPE  C21417769  -0.044   3.421   7.776  0.2456  0.3755  0.6257
  159SAPE  H14R17770  -0.069   3.354   7.693  1.7801 -0.6472  0.9513
  159SAPE  C21517771  -0.147   3.482   7.843 -0.0353 -0.3349 -0.4197
  159SAPE  H15R17772  -0.249   3.459   7.810 -0.0798  1.7016 -1.8950
  159SAPE  C21617773  -0.133   3.581   7.960 -0.5398  0.5749  0.6631
  159SAPE  H16R17774  -0.164   3.682   7.928  2.5409  1.6773  0.8514
  159SAPE  H16S17775  -0.026   3.590   7.989 -0.3562  1.2483 -0.1828
  159SAPE  C21717776  -0.206   3.538   8.087 -0.2737  0.0197 -0.1899
  159SAPE  H17R17777  -0.155   3.443   8.116  0.0799 -0.2442 -1.6027
  159SAPE  H17S17778  -0.311   3.506   8.071  0.3935 -2.0654 -0.7082
  159SAPE  C21817779  -0.193   3.640   8.203  0.2500 -0.2357  0.4218
  159SAPE  H18R17780  -0.092   3.686   8.190 -0.1684  0.1289 -2.2618
  159SAPE  H18S17781  -0.194   3.588   8.301 -0.8796  0.3963  0.7643
  159SAPE  C21917782  -0.310   3.748   8.216  0.0328  0.4711  0.2474
  159SAPE  H19R17783  -0.406   3.695   8.234  1.2564 -1.5903  1.0893
  159SAPE  H19S17784  -0.317   3.799   8.118 -0.3655 -0.4935 -0.2442
  159SAPE  C22017785  -0.282   3.856   8.323 -0.4401 -0.2334 -0.1884
  159SAPE  H20R17786  -0.197   3.925   8.303 -1.7504  1.5309  0.0205
  159SAPE  H20S17787  -0.260   3.811   8.422  0.8050  1.6820  0.4808
  159SAPE  H20T17788  -0.362   3.932   8.336  0.7635  1.0137  0.2649
  159SAPE   C3317789  -0.056   3.029   6.795  0.9787  0.7943 -0.5328
  159SAPE   H3X17790  -0.135   3.105   6.774  0.2951  0.1942 -0.1870
  159SAPE   H3Y17791   0.037   3.071   6.750  0.0439  1.4104 -1.9701
  159SAPE   C3417792  -0.040   3.024   6.952 -0.0785 -0.0066  0.4251
  159SAPE   H4X17793  -0.134   2.980   6.993  1.9258 -1.7122  3.5652
  159SAPE   H4Y17794  -0.030   3.131   6.981  4.2456  0.1101 -0.7797
  159SAPE   C3517795   0.077   2.931   6.989  0.6583 -0.2157 -0.5111
  159SAPE   H5X17796   0.168   2.995   6.991  1.5132 -1.4105  0.9170
  159SAPE   H5Y17797   0.096   2.838   6.931 -1.9602 -0.4406 -1.1506
  159SAPE   C3617798   0.057   2.887   7.133 -0.0992 -0.6594  0.0099
  159SAPE   H6X17799   0.140   2.823   7.170 -0.5932 -1.4322 -0.1856
  159SAPE   H6Y17800  -0.033   2.822   7.136  0.4306 -1.3958  0.5211
  159SAPE   C3717801   0.029   3.001   7.234 -0.2312 -0.1725 -0.7133
  159SAPE   H7X17802  -0.060   3.065   7.216 -0.8224 -0.5587  0.6532
  159SAPE   H7Y17803   0.118   3.067   7.235  0.7417 -1.4608 -0.9526
  159SAPE   C3817804   0.025   2.948   7.377  0.0851 -0.1090  0.4499
  159SAPE   H8X17805   0.114   2.882   7.388 -0.0576 -0.3414  0.2014
  159SAPE   H8Y17806  -0.066   2.885   7.388  1.0132 -1.2148  2.2070
  159SAPE   C3917807   0.031   3.053   7.487 -0.1805 -0.0931 -0.3347
  159SAPE   H9X17808   0.007   3.145   7.430  1.4044  1.2314  1.0242
  159SAPE   H9Y17809   0.133   3.057   7.531  0.4161 -2.0275 -1.4439
  159SAPE  C31017810  -0.080   3.016   7.595 -0.0815  0.1827 -0.8717
  159SAPE  H10X17811  -0.169   2.989   7.534  0.2704 -1.2663 -0.7836
  159SAPE  H10Y17812  -0.106   3.106   7.656  1.6890  0.6626 -0.7855
  159SAPE  C31117813  -0.032   2.913   7.690 -0.4542  0.3517 -0.8188
  159SAPE  H11X17814   0.069   2.936   7.730 -2.3657  2.2773  3.4739
  159SAPE  H11Y17815  -0.027   2.814   7.638 -1.2326 -0.5125  0.6824
  159SAPE  C31217816  -0.120   2.907   7.811 -0.6032 -0.0933  0.1329
  159SAPE  H12X17817  -0.073   2.834   7.881  0.1319 -0.7290 -1.0011
  159SAPE  H12Y17818  -0.230   2.891   7.805 -0.5117 -0.4301 -0.6903
  159SAPE  C31317819  -0.109   3.040   7.889  0.0417  0.1219  0.6308
  159SAPE  H13X17820  -0.179   3.115   7.846 -0.2178 -0.2850  0.3373
  159SAPE  H13Y17821  -0.004   3.076   7.895  0.4036 -0.6844 -0.5872
  159SAPE  C31417822  -0.167   3.012   8.031 -0.1667 -0.9005 -0.4777
  159SAPE  H14X17823  -0.092   2.945   8.078  0.4482 -0.3532 -0.6676
  159SAPE  H14Y17824  -0.268   2.965   8.037  0.3039 -1.8253  0.5978
  159SAPE  C31517825  -0.171   3.139   8.132 -0.3417  0.2896  0.4163
  159SAPE  H15X17826  -0.229   3.224   8.089 -1.5695 -0.4318  0.6121
  159SAPE  H15Y17827  -0.069   3.179   8.151 -0.8940  1.5649  0.8037
  159SAPE  C31617828  -0.244   3.107   8.262 -0.2163 -0.7263 -0.3673
  159SAPE  H16X17829  -0.192   3.021   8.310 -1.5002 -0.6291  1.2769
  159SAPE  H16Y17830  -0.348   3.076   8.239 -1.0950 -0.4431  2.8593
  159SAPE  C31717831  -0.242   3.223   8.361  0.5768 -0.9321  0.2186
  159SAPE  H17X17832  -0.309   3.300   8.317  0.7998 -0.9226 -0.1021
  159SAPE  H17Y17833  -0.137   3.259   8.372 -0.7117  3.2337  0.8085
  159SAPE  C31817834  -0.302   3.196   8.499  0.1679  0.0846  0.3247
  159SAPE  H18X17835  -0.255   3.108   8.548 -2.6280 -1.5489  0.2226
  159SAPE  H18Y17836  -0.408   3.165   8.490  0.1649 -1.0872  3.3896
  159SAPE  H18Z17837  -0.301   3.292   8.556  2.2329  0.2866  0.0581
  160SAPE     N17838   3.675   2.819   6.437 -0.4553  0.3313 -0.0180
  160SAPE   HN117839   3.613   2.854   6.361 -1.5273  1.2361  1.2285
  160SAPE   HN217840   3.637   2.725   6.457  0.9159 -0.7389 -2.0906
  160SAPE   HN317841   3.662   2.885   6.517 -0.4434  1.5120 -0.9617
  160SAPE   C1217842   3.817   2.789   6.402  0.3146 -0.6237 -1.5152
  160SAPE  H12A17843   3.866   2.739   6.489 -0.5528  2.7261  1.1374
  160SAPE  H12B17844   3.865   2.886   6.377 -0.6055  0.4538  0.6109
  160SAPE   C1117845   3.815   2.688   6.289 -0.4146  0.2924 -0.1310
  160SAPE  H11A17846   3.917   2.660   6.254 -1.2325 -0.8703 -1.7235
  160SAPE  H11B17847   3.761   2.736   6.204 -0.6144 -1.4320 -1.0275
  160SAPE     P17848   3.757   2.439   6.248 -0.0583  0.0476 -0.2357
  160SAPE   O1317849   3.686   2.325   6.310 -0.1946 -0.3755 -0.0921
  160SAPE   O1417850   3.711   2.473   6.113 -0.5744  0.4393  0.0668
  160SAPE   O1217851   3.744   2.571   6.336  0.1136  0.3517  0.6935
  160SAPE   O1117852   3.916   2.418   6.257 -0.8361 -0.3059  0.1410
  160SAPE    C117853   3.964   2.323   6.348  0.4056 -0.5374  0.1984
  160SAPE    HA17854   3.909   2.227   6.357 -0.2516 -0.1563  0.2748
  160SAPE    HB17855   4.070   2.306   6.319 -0.4969 -1.0409 -3.2207
  160SAPE    C217856   3.999   2.395   6.479  0.4725  0.0554  0.0251
  160SAPE    HS17857   4.053   2.318   6.538  0.7720 -0.3866 -0.8153
  160SAPE   O2117858   3.885   2.454   6.541 -0.0409  0.5946  0.0196
  160SAPE   C2117859   3.814   2.361   6.608  0.2684 -0.5940  0.0068
  160SAPE   O2217860   3.852   2.250   6.633 -0.7814 -0.1450  0.2381
  160SAPE   C2217861   3.681   2.426   6.647  0.2588  0.6904  0.5399
  160SAPE   H2R17862   3.700   2.508   6.719 -0.3528  2.0116 -0.7777
  160SAPE   H2S17863   3.631   2.449   6.551 -0.2900  0.7011  0.8221
  160SAPE    C317864   4.108   2.510   6.474 -0.4295  0.3119 -0.3977
  160SAPE    HX17865   4.052   2.596   6.433 -0.7845 -0.4863 -1.6622
  160SAPE    HY17866   4.189   2.483   6.402  1.5895  0.8157  1.5935
  160SAPE   O3117867   4.168   2.544   6.605  0.2877 -0.0840 -0.6113
  160SAPE   C3117868   4.255   2.460   6.655 -0.4091  0.5396  0.2498
  160SAPE   O3217869   4.273   2.346   6.612  0.9792 -0.3738 -0.2608
  160SAPE   C3217870   4.346   2.532   6.757  0.2756  0.1880  0.4751
  160SAPE   H2X17871   4.288   2.547   6.851 -0.7667 -1.2743  0.1033
  160SAPE   H2Y17872   4.370   2.632   6.715  0.0028 -0.4067 -1.1916
  160SAPE   C2317873   3.586   2.320   6.716  0.9543 -0.9773 -0.2789
  160SAPE   H3R17874   3.620   2.299   6.819  1.0795  0.1710 -0.0763
  160SAPE   H3S17875   3.596   2.229   6.653  0.6837 -2.2978  1.5133
  160SAPE   C2417876   3.439   2.363   6.709 -0.0399  0.4263  0.0969
  160SAPE   H4R17877   3.365   2.282   6.730  1.6058 -0.9689  0.6975
  160SAPE   H4S17878   3.420   2.387   6.602 -0.4861 -1.6134 -0.3157
  160SAPE   C2517879   3.415   2.482   6.801 -0.1389  0.7855 -0.0264
  160SAPE   H5R17880   3.444   2.576   6.753 -0.5731 -0.0451 -2.0273
  160SAPE   C2617881   3.363   2.473   6.924 -0.1239  0.4703  0.0212
  160SAPE   H6R17882   3.346   2.566   6.981 -0.1454  0.2666  0.3512
  160SAPE   C2717883   3.316   2.355   7.006  0.4406 -0.1450  0.3738
  160SAPE   H7R17884   3.290   2.283   6.926 -0.5521  0.5802  0.0316
  160SAPE   H7S17885   3.222   2.389   7.055  0.8990  1.9898 -0.1060
  160SAPE   C2817886   3.418   2.290   7.093  0.1269 -0.2218  0.0992
  160SAPE   H8R17887   3.504   2.242   7.043  0.8536  0.1042  0.9994
  160SAPE   C2917888   3.417   2.289   7.225  0.2363  0.6911  0.4273
  160SAPE   H9R17889   3.494   2.238   7.285  1.6509  1.2439 -0.8575
  160SAPE  C21017890   3.316   2.362   7.311  0.1087  0.1064 -0.3269
  160SAPE  H10R17891   3.291   2.292   7.393  0.1792 -2.1875 -2.1744
  160SAPE  H10S17892   3.224   2.389   7.254  2.0280  2.1740 -2.6996
  160SAPE  C21117893   3.373   2.494   7.357 -0.0816  0.0193  0.3021
  160SAPE  H11R17894   3.412   2.552   7.272 -0.4145 -0.4851 -0.2043
  160SAPE  C21217895   3.387   2.555   7.480  0.9581 -0.1668 -0.2035
  160SAPE  H12R17896   3.424   2.659   7.485 -1.4621  0.8268 -1.2395
  160SAPE  C21317897   3.336   2.498   7.609  0.7872  0.9603  0.1359
  160SAPE  H13R17898   3.335   2.387   7.613 -2.6963  0.9017  0.6425
  160SAPE  H13S17899   3.229   2.527   7.614  0.5568  0.2038 -0.3134
  160SAPE  C21417900   3.403   2.550   7.736 -0.5964 -0.0318 -0.6788
  160SAPE  H14R17901   3.425   2.657   7.749  1.8882 -0.6677  1.1155
  160SAPE  C21517902   3.427   2.483   7.852 -0.1353  0.7492  0.2514
  160SAPE  H15R17903   3.478   2.529   7.938 -1.7948 -0.8408  2.2003
  160SAPE  C21617904   3.395   2.337   7.879 -0.3289 -1.0413  0.6194
  160SAPE  H16R17905   3.482   2.267   7.884  0.7636  0.0861 -1.3561
  160SAPE  H16S17906   3.323   2.306   7.801  1.1306  0.2708 -1.3459
  160SAPE  C21717907   3.327   2.318   8.017  0.6734 -0.0205  0.2649
  160SAPE  H17R17908   3.276   2.220   8.029 -4.4332  2.2680 -0.1387
  160SAPE  H17S17909   3.234   2.378   8.006  0.9059  0.0052 -2.0065
  160SAPE  C21817910   3.409   2.355   8.147  0.4718 -0.2227 -0.0238
  160SAPE  H18R17911   3.456   2.455   8.137  3.5175 -1.5608 -0.0520
  160SAPE  H18S17912   3.489   2.279   8.161  0.6769  0.1321  0.8577
  160SAPE  C21917913   3.321   2.336   8.268  0.2990 -0.3233 -0.1811
  160SAPE  H19R17914   3.291   2.229   8.276 -1.8406  0.2350 -0.1710
  160SAPE  H19S17915   3.228   2.396   8.257 -0.1215 -0.8397  0.5360
  160SAPE  C22017916   3.389   2.374   8.400  0.3046  0.2867 -0.1969
  160SAPE  H20R17917   3.338   2.324   8.485  3.4899  3.0819  3.7518
  160SAPE  H20S17918   3.387   2.484   8.417  1.1983  0.5356 -1.5204
  160SAPE  H20T17919   3.494   2.340   8.405 -0.6120 -2.7020  0.3971
  160SAPE   C3317920   4.477   2.451   6.776 -0.1956 -0.5764 -0.6006
  160SAPE   H3X17921   4.541   2.440   6.686 -0.4568 -3.9846 -0.5041
  160SAPE   H3Y17922   4.461   2.351   6.822  2.6394  0.6752  3.6981
  160SAPE   C3417923   4.548   2.514   6.896 -0.3208  0.0483 -0.2021
  160SAPE   H4X17924   4.471   2.526   6.975 -0.3565 -0.5985 -0.1308
  160SAPE   H4Y17925   4.595   2.612   6.874 -0.5932  0.2621  0.1604
  160SAPE   C3517926   4.653   2.425   6.949 -0.2968 -0.0163 -0.5033
  160SAPE   H5X17927   4.730   2.406   6.871  0.7511 -2.4707  0.9776
  160SAPE   H5Y17928   4.608   2.324   6.967 -0.3196 -0.8279 -4.2435
  160SAPE   C3617929   4.719   2.462   7.086  0.1171  0.1617  0.1448
  160SAPE   H6X17930   4.759   2.565   7.077 -1.0808  0.6700  0.3785
  160SAPE   H6Y17931   4.809   2.400   7.108 -0.8932 -1.1014  0.8441
  160SAPE   C3717932   4.623   2.449   7.210 -0.5540 -0.5959  0.6316
  160SAPE   H7X17933   4.607   2.340   7.226 -0.4634 -0.4005  2.1423
  160SAPE   H7Y17934   4.528   2.503   7.187 -0.1463 -0.6259 -1.3324
  160SAPE   C3817935   4.704   2.497   7.334  0.0312 -0.3213 -0.3920
  160SAPE   H8X17936   4.811   2.468   7.333 -0.1241 -1.2421  2.0393
  160SAPE   H8Y17937   4.658   2.453   7.426 -0.8023 -0.5434 -0.8999
  160SAPE   C3917938   4.693   2.651   7.345  0.4033 -0.3321 -0.7097
  160SAPE   H9X17939   4.588   2.681   7.363 -0.3499 -2.0946 -1.9082
  160SAPE   H9Y17940   4.727   2.708   7.256  1.5889  3.0929  1.7199
  160SAPE  C31017941   4.772   2.710   7.455  0.1769  0.2309 -1.1088
  160SAPE  H10X17942   4.769   2.820   7.439 -0.9474  1.0576  3.3705
  160SAPE  H10Y17943   4.878   2.681   7.469  0.0213  0.4549  0.7472
  160SAPE  C31117944   4.691   2.682   7.585 -0.0956  0.1392  0.5877
  160SAPE  H11X17945   4.682   2.574   7.611 -0.7192  0.4403  1.7252
  160SAPE  H11Y17946   4.594   2.736   7.582 -0.4294 -0.4402  0.7634
  160SAPE  C31217947   4.769   2.734   7.702  0.0249  0.5101 -0.2461
  160SAPE  H12X17948   4.779   2.845   7.698  0.0352  0.6835  2.4686
  160SAPE  H12Y17949   4.874   2.696   7.704 -0.0510  0.3089  0.0247
  160SAPE  C31317950   4.684   2.714   7.828  0.1846  0.3091 -0.0735
  160SAPE  H13X17951   4.666   2.604   7.830  0.4703  0.2658  1.7308
  160SAPE  H13Y17952   4.590   2.771   7.813  0.6990  1.5268  1.1166
  160SAPE  C31417953   4.754   2.779   7.947  0.0527  0.7570 -0.3421
  160SAPE  H14X17954   4.768   2.889   7.931  0.6847  0.8068  0.4729
  160SAPE  H14Y17955   4.854   2.730   7.947 -0.9087 -1.4204 -2.3769
  160SAPE  C31517956   4.673   2.752   8.077 -0.1752 -0.4086  0.6495
  160SAPE  H15X17957   4.661   2.642   8.091 -0.7040 -0.6617 -1.4544
  160SAPE  H15Y17958   4.575   2.799   8.055  0.6811 -0.0081 -3.0280
  160SAPE  C31617959   4.745   2.815   8.199  0.0641  0.2784 -0.7920
  160SAPE  H16X17960   4.763   2.924   8.186 -2.0007  0.6344 -0.9919
  160SAPE  H16Y17961   4.841   2.759   8.206  0.3009  0.7281 -0.3165
  160SAPE  C31717962   4.655   2.807   8.314 -0.3688 -0.7844 -0.3729
  160SAPE  H17X17963   4.601   2.710   8.313  0.2881 -1.1532 -1.4469
  160SAPE  H17Y17964   4.574   2.880   8.291  1.9443  1.8115 -0.7627
  160SAPE  C31817965   4.720   2.833   8.456 -0.2272 -0.2463 -0.4382
  160SAPE  H18X17966   4.657   2.781   8.530 -1.1616  0.6740 -0.5689
  160SAPE  H18Y17967   4.716   2.940   8.484  0.2656  0.1691 -1.8462
  160SAPE  H18Z17968   4.829   2.813   8.462 -0.0701  0.4079 -0.9481
  161SOPE     N17969   5.683   3.550  11.127  0.2254  0.0457  0.0471
  161SOPE   HN117970   5.779   3.588  11.121  0.2448 -0.0849 -0.5316
  161SOPE   HN217971   5.616   3.621  11.090  1.9187  0.9520 -1.4102
  161SOPE   HN317972   5.650   3.536  11.225  1.0984 -0.7119  0.2447
  161SOPE   C1217973   5.667   3.430  11.049  0.1623  0.0100  0.3961
  161SOPE  H12A17974   5.569   3.382  11.071  0.1141 -0.1201 -0.0866
  161SOPE  H12B17975   5.748   3.361  11.083  1.0175  1.5474  1.6202
  161SOPE   C1117976   5.674   3.450  10.897  0.1629 -0.0676 -0.2573
  161SOPE  H11A17977   5.657   3.348  10.855 -2.2029  0.7073 -1.3656
  161SOPE  H11B17978   5.774   3.496  10.885  0.1332  0.0958  0.1511
  161SOPE     P17979   5.452   3.483  10.772  0.4117  0.0724  0.0397
  161SOPE   O1317980   5.364   3.597  10.731  0.9604 -0.1150  0.5492
  161SOPE   O1417981   5.399   3.362  10.841 -0.1747 -0.0726 -0.1730
  161SOPE   O1217982   5.574   3.544  10.855 -1.0260 -0.7618  0.1065
  161SOPE   O1117983   5.513   3.419  10.639  0.4743 -0.1152  0.3336
  161SOPE    C117984   5.575   3.508  10.549  0.1234  0.1697 -0.1492
  161SOPE    HA17985   5.682   3.521  10.579 -0.2394  1.8526  0.5129
  161SOPE    HB17986   5.526   3.607  10.538 -2.1271 -1.0968 -2.4329
  161SOPE    C217987   5.590   3.443  10.405  0.1032 -0.6568 -0.4856
  161SOPE    HS17988   5.651   3.353  10.427  0.1298 -0.4704  0.2150
  161SOPE   O2117989   5.644   3.545  10.317 -0.5204  0.2018  0.0696
  161SOPE   C2117990   5.779   3.551  10.309  0.7455  0.2595  0.0872
  161SOPE   O2217991   5.846   3.458  10.350 -0.4451  0.4505 -0.4463
  161SOPE   C2217992   5.826   3.671  10.239 -1.4039 -0.7165 -0.9030
  161SOPE   H2R17993   5.933   3.688  10.260 -1.2310 -1.1348 -1.4217
  161SOPE   H2S17994   5.771   3.757  10.282 -0.5390 -1.1211  1.1448
  161SOPE    C317995   5.444   3.405  10.360  0.2255 -0.0424  0.1754
  161SOPE    HX17996   5.393   3.503  10.359 -2.0320 -1.1337 -0.8946
  161SOPE    HY17997   5.394   3.337  10.432 -1.1638  1.3814  0.6088
  161SOPE   O3117998   5.443   3.347  10.232  0.1040  0.3609  0.5075
  161SOPE   C3117999   5.320   3.322  10.180 -0.2471 -0.4553  0.3519
  161SOPE   O3218000   5.215   3.346  10.231  0.3324  0.0068  0.0680
  161SOPE   C3218001   5.343   3.283  10.033 -0.5787  0.0056 -0.2409
  161SOPE   H2X18002   5.390   3.183  10.034  0.9220  0.6235 -2.1046
  161SOPE   H2Y18003   5.421   3.355   9.998  0.4477 -0.8156  0.3110
  161SOPE   C2318004   5.791   3.663  10.087  0.0577 -0.2233  0.4093
  161SOPE   H3R18005   5.785   3.767  10.047 -1.5044 -0.9922 -1.4751
  161SOPE   H3S18006   5.685   3.631  10.085 -0.1757  0.1186  3.2694
  161SOPE   C2418007   5.892   3.583  10.011 -0.1291 -0.0890 -0.2484
  161SOPE   H4R18008   5.976   3.640   9.966  0.8281 -0.6751  0.7370
  161SOPE   H4S18009   5.937   3.504  10.075  0.0043  0.0698 -0.1453
  161SOPE   C2518010   5.822   3.500   9.902 -0.2909  0.2512 -0.0258
  161SOPE   H5R18011   5.883   3.411   9.873 -0.6485 -0.2377  0.6812
  161SOPE   H5S18012   5.726   3.468   9.949  0.3599 -0.9070  0.5714
  161SOPE   C2618013   5.786   3.574   9.775 -0.2175 -0.4791 -0.5061
  161SOPE   H6R18014   5.750   3.678   9.794  0.3378 -0.5484  1.1025
  161SOPE   H6S18015   5.880   3.585   9.717  0.2118  0.3197  0.3052
  161SOPE   C2718016   5.691   3.481   9.691 -0.3703  0.4184 -0.2807
  161SOPE   H7R18017   5.742   3.383   9.684 -0.4070  0.4404 -0.8862
  161SOPE   H7S18018   5.603   3.474   9.758  0.4223  2.7585  1.1608
  161SOPE   C2818019   5.658   3.527   9.549 -0.2168 -0.1351 -0.9152
  161SOPE   H8R18020   5.620   3.631   9.553 -1.9848 -0.7796  0.7264
  161SOPE   H8S18021   5.748   3.505   9.488  0.7784 -2.0047  1.0635
  161SOPE   C2918022   5.551   3.445   9.492  0.7486 -0.8516  1.0812
  161SOPE   H9118023   5.470   3.409   9.556  0.2562  2.1834  2.3195
  161SOPE  C21018024   5.537   3.419   9.359 -0.5210  0.1427  1.1443
  161SOPE  H10118025   5.450   3.366   9.316  0.3782  0.1426 -0.7972
  161SOPE  C21118026   5.631   3.467   9.244 -1.0984 -0.3121 -0.8394
  161SOPE  H11R18027   5.690   3.385   9.198  0.9542  1.2149 -1.0546
  161SOPE  H11S18028   5.707   3.542   9.274 -1.0125 -0.2592 -1.1849
  161SOPE  C21218029   5.570   3.558   9.133 -0.0293  0.2949  0.1727
  161SOPE  H12R18030   5.657   3.580   9.067  2.3886 -2.0561  2.3239
  161SOPE  H12S18031   5.517   3.643   9.181  0.0835 -0.0965  0.9988
  161SOPE  C21318032   5.452   3.493   9.047 -0.7121 -0.0955 -0.2566
  161SOPE  H13R18033   5.391   3.559   8.982 -1.1051 -2.1148 -2.0402
  161SOPE  H13S18034   5.396   3.415   9.103  0.1253 -1.3687 -1.1381
  161SOPE  C21418035   5.521   3.416   8.932 -0.1279  0.1381  0.0262
  161SOPE  H14R18036   5.595   3.349   8.980  0.5676 -0.2572 -1.5553
  161SOPE  H14S18037   5.581   3.480   8.864 -0.2754  0.4419  0.1768
  161SOPE  C21518038   5.423   3.325   8.857 -0.2606 -0.1052  0.1547
  161SOPE  H15R18039   5.328   3.379   8.834 -1.4860 -1.7736  1.0918
  161SOPE  H15S18040   5.398   3.240   8.924  0.0800 -0.2345  0.1184
  161SOPE  C21618041   5.475   3.260   8.727 -0.1949  0.1115  0.1215
  161SOPE  H16R18042   5.569   3.203   8.746  0.8347  1.5379 -0.5547
  161SOPE  H16S18043   5.503   3.336   8.652  0.9486 -2.1745 -1.9197
  161SOPE  C21718044   5.370   3.158   8.657 -0.3140 -0.8041  0.0040
  161SOPE  H17R18045   5.272   3.210   8.651 -0.5973 -1.4140 -1.0553
  161SOPE  H17S18046   5.357   3.088   8.742  1.2382  0.9976  1.8028
  161SOPE  C21818047   5.398   3.103   8.518  0.0927 -0.1421 -0.0139
  161SOPE  H18R18048   5.322   3.031   8.480  0.9505 -0.7871 -0.5669
  161SOPE  H18S18049   5.494   3.047   8.520  0.9397  1.2623 -0.0560
  161SOPE  H18T18050   5.402   3.183   8.441 -0.7192  0.0147  0.0938
  161SOPE   C3318051   5.231   3.286   9.932 -0.1325 -0.0861  0.5237
  161SOPE   H3X18052   5.156   3.358   9.972 -0.7237  0.5743 -1.6307
  161SOPE   H3Y18053   5.181   3.188   9.916 -1.8155  0.8869 -0.3924
  161SOPE   C3418054   5.260   3.319   9.781  0.4132 -0.3380 -0.8774
  161SOPE   H4X18055   5.334   3.245   9.744  2.8990  2.0315 -1.0284
  161SOPE   H4Y18056   5.324   3.410   9.777  0.7582 -0.4368  1.3618
  161SOPE   C3518057   5.139   3.341   9.689  0.4137 -0.0760  0.1612
  161SOPE   H5X18058   5.095   3.442   9.702  1.1376  0.3137 -0.3530
  161SOPE   H5Y18059   5.067   3.258   9.704 -0.5801  0.2266 -2.4187
  161SOPE   C3618060   5.174   3.345   9.535  0.3245  0.1027 -0.7424
  161SOPE   H6X18061   5.228   3.253   9.505  1.1903 -0.2392  1.6323
  161SOPE   H6Y18062   5.238   3.434   9.523  1.9118 -0.8405  0.3794
  161SOPE   C3718063   5.047   3.382   9.447  0.4002  0.0727 -0.0993
  161SOPE   H7X18064   4.969   3.426   9.514 -0.7756 -1.9344 -0.0555
  161SOPE   H7Y18065   4.997   3.291   9.409 -0.4780  0.6269 -0.3143
  161SOPE   C3818066   5.085   3.477   9.339  0.3340  0.0484  0.0874
  161SOPE   H8X18067   5.182   3.443   9.297 -0.4122  0.3026 -1.9797
  161SOPE   H8Y18068   5.096   3.582   9.373  3.3252  0.3031 -1.3982
  161SOPE   C3918069   4.978   3.482   9.225 -0.3279 -0.3617  0.0857
  161SOPE   H9X18070   4.903   3.562   9.245 -0.6162 -0.6788  0.2918
  161SOPE   H9Y18071   4.921   3.386   9.229  0.6183 -1.2057 -3.2060
  161SOPE  C31018072   5.037   3.489   9.089 -0.4492 -0.4146  0.0122
  161SOPE  H10X18073   5.108   3.408   9.059 -0.4014 -0.1553 -0.5970
  161SOPE  H10Y18074   5.087   3.587   9.071 -0.1177  0.2389  3.7872
  161SOPE  C31118075   4.928   3.484   8.978  0.1489 -0.4337 -0.1546
  161SOPE  H11X18076   4.846   3.553   9.006 -0.8314 -1.0823 -1.3195
  161SOPE  H11Y18077   4.884   3.383   8.983  0.4441 -0.7670 -2.8905
  161SOPE  C31218078   4.979   3.515   8.836  0.8996 -0.1526  0.3830
  161SOPE  H12X18079   5.043   3.426   8.819 -0.3091 -1.1427  0.8471
  161SOPE  H12Y18080   5.044   3.604   8.844  3.1251 -1.7973  1.7067
  161SOPE  C31318081   4.864   3.530   8.728 -0.7556  0.3837 -0.2277
  161SOPE  H13X18082   4.829   3.635   8.736 -1.5507  0.0020  1.8784
  161SOPE  H13Y18083   4.786   3.457   8.757 -0.8197  0.5262 -0.0399
  161SOPE  C31418084   4.923   3.508   8.584 -0.3277  0.4121 -0.1831
  161SOPE  H14X18085   4.832   3.521   8.521 -1.6656 -4.0055  0.4723
  161SOPE  H14Y18086   4.952   3.401   8.576  1.7113  0.8831  0.3358
  161SOPE  C31518087   5.035   3.596   8.548  0.0515  0.0406 -0.1882
  161SOPE  H15X18088   5.119   3.573   8.618  0.0508 -0.1473 -0.2488
  161SOPE  H15Y18089   4.993   3.698   8.562 -0.8308 -0.3547  0.1241
  161SOPE  C31618090   5.094   3.578   8.411 -0.0305 -0.5268  0.0386
  161SOPE  H16X18091   5.160   3.666   8.392 -0.3511 -0.1595  0.5927
  161SOPE  H16Y18092   5.010   3.578   8.338  1.2847  1.1855 -1.5712
  161SOPE  C31718093   5.167   3.448   8.392  0.1946 -0.4143 -0.0866
  161SOPE  H17X18094   5.091   3.367   8.379  0.1643 -0.2407 -1.1148
  161SOPE  H17Y18095   5.231   3.420   8.478  2.1654 -3.2650 -2.2767
  161SOPE  C31818096   5.256   3.442   8.265  0.0783 -0.1607 -0.3422
  161SOPE  H18X18097   5.337   3.518   8.271  0.7087 -0.8897  0.8088
  161SOPE  H18Y18098   5.190   3.467   8.179  0.5638  0.3816 -0.5600
  161SOPE  H18Z18099   5.303   3.343   8.255  0.3499 -0.0796  0.1213
  162SOPE     N18100   4.132   3.839  10.840 -0.2900 -0.1735 -0.4561
  162SOPE   HN118101   4.158   3.840  10.941 -0.6351 -0.7472 -0.3588
  162SOPE   HN218102   4.086   3.747  10.832 -0.9345 -0.0139  0.9594
  162SOPE   HN318103   4.224   3.830  10.794  1.0225 -2.3407  2.2943
  162SOPE   C1218104   4.062   3.966  10.792  0.2768 -0.6177  0.0105
  162SOPE  H12A18105   3.965   3.922  10.761  0.4066 -0.1870 -1.0408
  162SOPE  H12B18106   4.116   3.989  10.698  1.9991 -0.0909  1.0842
  162SOPE   C1118107   4.047   4.073  10.910  0.2331  0.9124  0.4922
  162SOPE  H11A18108   3.974   4.030  10.981 -1.2677  0.4515 -1.2404
  162SOPE  H11B18109   4.005   4.164  10.861 -0.1139  0.5121  0.0432
  162SOPE     P18110   4.285   4.198  10.943  0.1017  0.0700  0.1316
  162SOPE   O1318111   4.413   4.155  10.998  0.3173  0.4340  0.3785
  162SOPE   O1418112   4.233   4.329  10.982 -0.1738  0.2571 -0.3514
  162SOPE   O1218113   4.173   4.091  10.976 -0.3813  0.4247 -0.1725
  162SOPE   O1118114   4.298   4.191  10.787  0.7068 -0.2615 -0.0028
  162SOPE    C118115   4.263   4.298  10.705 -0.0489 -0.1752  0.5681
  162SOPE    HA18116   4.337   4.381  10.708 -0.3348  0.1063 -0.1093
  162SOPE    HB18117   4.162   4.336  10.728 -0.3240  0.3436 -1.3423
  162SOPE    C218118   4.287   4.269  10.551  1.0588 -0.2758  0.5637
  162SOPE    HS18119   4.313   4.366  10.505 -2.8495  0.5236 -0.3369
  162SOPE   O2118120   4.168   4.216  10.485 -0.1092 -0.0173  0.0678
  162SOPE   C2118121   4.076   4.303  10.460 -0.1714 -0.1326  0.0615
  162SOPE   O2218122   4.075   4.421  10.491 -0.0706  0.3826 -0.3607
  162SOPE   C2218123   3.970   4.238  10.370 -0.0728  0.0944  0.2555
  162SOPE   H2R18124   3.878   4.300  10.383 -0.2545 -0.0286 -0.4287
  162SOPE   H2S18125   3.962   4.132  10.403  2.3949 -0.8920 -2.0105
  162SOPE    C318126   4.406   4.168  10.532  0.1105  0.4304 -0.6258
  162SOPE    HX18127   4.382   4.089  10.607 -1.1820  1.6804  0.3192
  162SOPE    HY18128   4.499   4.217  10.568  1.0442 -0.1719 -2.1144
  162SOPE   O3118129   4.427   4.105  10.399  0.3208  0.3776 -0.3323
  162SOPE   C3118130   4.476   4.190  10.314 -0.0504  0.6031  0.2697
  162SOPE   O3218131   4.505   4.307  10.328 -0.2195  0.3094 -0.2333
  162SOPE   C3218132   4.512   4.103  10.183 -0.4648  0.2549  0.0430
  162SOPE   H2X18133   4.484   3.995  10.183  0.7390 -0.1700 -3.0135
  162SOPE   H2Y18134   4.622   4.088  10.178 -0.7564 -2.1631 -0.2237
  162SOPE   C2318135   4.004   4.235  10.216  0.1496  0.4989 -0.0916
  162SOPE   H3R18136   4.087   4.163  10.200  0.2915  0.1390  2.0162
  162SOPE   H3S18137   4.046   4.336  10.193  5.4386 -1.0366  1.4461
  162SOPE   C2418138   3.886   4.211  10.128  0.1116 -0.4558 -0.3221
  162SOPE   H4R18139   3.846   4.110  10.153  0.8336 -0.3385  1.4401
  162SOPE   H4S18140   3.815   4.292  10.151  0.2273 -0.2174 -0.7772
  162SOPE   C2518141   3.924   4.213   9.983 -0.1517  0.3963  0.0098
  162SOPE   H5R18142   3.836   4.228   9.916 -0.5027  2.5020  0.8568
  162SOPE   H5S18143   4.000   4.293   9.964  2.2960 -2.1009 -1.4975
  162SOPE   C2618144   4.000   4.092   9.933 -0.2628  0.6628  0.1930
  162SOPE   H6R18145   4.097   4.068   9.981  0.7303 -0.2403 -2.0780
  162SOPE   H6S18146   3.946   3.995   9.937 -0.5221  0.5924 -2.6245
  162SOPE   C2718147   4.028   4.111   9.780 -0.0979 -0.5345 -0.4166
  162SOPE   H7R18148   3.931   4.135   9.732  0.0703  0.6911 -0.1729
  162SOPE   H7S18149   4.077   4.210   9.768  0.1910 -0.2252  2.7176
  162SOPE   C2818150   4.095   3.994   9.713  0.4857 -0.6676 -0.2006
  162SOPE   H8R18151   4.129   4.023   9.611  0.3238 -1.8148 -0.6042
  162SOPE   H8S18152   4.191   3.959   9.758  0.5646 -0.8353 -0.4943
  162SOPE   C2918153   4.004   3.869   9.698  0.0892  0.4643  0.6654
  162SOPE   H9118154   4.016   3.801   9.784  1.3934 -0.1114  0.0584
  162SOPE  C21018155   3.924   3.842   9.596  0.1690  0.6185  0.5879
  162SOPE  H10118156   3.856   3.756   9.599 -2.0108  2.1709 -1.0746
  162SOPE  C21118157   3.891   3.933   9.483  0.0059 -0.4289 -0.3198
  162SOPE  H11R18158   3.971   4.009   9.463 -1.9023  1.7354 -0.1904
  162SOPE  H11S18159   3.804   3.996   9.513  0.2459  0.4934 -1.4735
  162SOPE  C21218160   3.877   3.869   9.343  0.2065  0.0774  0.4604
  162SOPE  H12R18161   3.966   3.804   9.333 -1.0433 -1.9240  1.7329
  162SOPE  H12S18162   3.877   3.949   9.265  0.4494 -0.7381 -0.3935
  162SOPE  C21318163   3.769   3.770   9.304 -0.1837 -1.0484  0.1904
  162SOPE  H13R18164   3.667   3.810   9.325 -0.0617 -0.6667  0.0749
  162SOPE  H13S18165   3.776   3.679   9.367 -2.2334 -1.1824  0.3171
  162SOPE  C21418166   3.787   3.722   9.159  0.4967 -0.8087 -0.2089
  162SOPE  H14R18167   3.820   3.617   9.172  0.9975 -0.5061  1.1443
  162SOPE  H14S18168   3.872   3.776   9.111 -1.3157  0.2525 -2.4303
  162SOPE  C21518169   3.668   3.752   9.076  0.4963 -0.2524  0.7128
  162SOPE  H15R18170   3.567   3.711   9.099  0.0595  0.5276  0.2383
  162SOPE  H15S18171   3.696   3.721   8.972 -0.4555  0.0542  0.3535
  162SOPE  C21618172   3.648   3.905   9.052  0.9170 -0.3640  0.2133
  162SOPE  H16R18173   3.737   3.969   9.034 -0.5656  2.3691  1.9241
  162SOPE  H16S18174   3.596   3.934   9.145 -3.0092 -2.6031 -1.0632
  162SOPE  C21718175   3.546   3.945   8.939  0.2809 -0.0162  0.4993
  162SOPE  H17R18176   3.501   4.037   8.980  1.7092  1.0292 -0.1807
  162SOPE  H17S18177   3.468   3.868   8.923 -2.5782  2.9737 -0.8690
  162SOPE  C21818178   3.624   3.980   8.811  0.4921  0.0130  0.4519
  162SOPE  H18R18179   3.555   4.012   8.730  1.9013  2.2813  0.0481
  162SOPE  H18S18180   3.681   3.894   8.769  1.3358  1.8839 -2.5203
  162SOPE  H18T18181   3.700   4.061   8.825 -0.4665  0.6866  2.0042
  162SOPE   C3318182   4.471   4.173  10.052  0.7391 -0.5875 -0.4564
  162SOPE   H3X18183   4.520   4.273  10.046 -1.3567  0.4758 -0.8554
  162SOPE   H3Y18184   4.364   4.197  10.036  0.5858 -2.0635 -1.8741
  162SOPE   C3418185   4.529   4.104   9.925  0.5839  0.1445  0.2026
  162SOPE   H4X18186   4.469   4.011   9.909  1.0462  0.1338 -1.7110
  162SOPE   H4Y18187   4.638   4.081   9.923  0.4908 -0.4100  0.8022
  162SOPE   C3518188   4.502   4.198   9.803  0.2101 -0.5834 -0.0985
  162SOPE   H5X18189   4.550   4.295   9.826 -1.1395  0.3680 -1.1621
  162SOPE   H5Y18190   4.391   4.208   9.801 -0.0415 -2.8542 -0.2404
  162SOPE   C3618191   4.531   4.139   9.660 -0.3264 -0.3586 -0.6759
  162SOPE   H6X18192   4.478   4.042   9.653 -2.8806  0.8037  0.8792
  162SOPE   H6Y18193   4.641   4.130   9.650 -0.5251 -0.7837 -2.9979
  162SOPE   C3718194   4.486   4.222   9.541 -0.5996  0.7790  0.1493
  162SOPE   H7X18195   4.550   4.312   9.549  2.4370 -1.3348  1.4524
  162SOPE   H7Y18196   4.379   4.250   9.554 -1.7934 -2.3692 -1.6024
  162SOPE   C3818197   4.496   4.154   9.408 -0.4369  0.0326  0.1187
  162SOPE   H8X18198   4.595   4.103   9.411 -0.2184  0.4866  0.8320
  162SOPE   H8Y18199   4.515   4.235   9.333  0.7299 -2.0041 -1.9282
  162SOPE   C3918200   4.366   4.070   9.371 -0.0689 -0.3563 -0.1659
  162SOPE   H9X18201   4.275   4.126   9.401  0.0922 -0.6535  0.9447
  162SOPE   H9Y18202   4.352   3.980   9.434 -0.5497 -0.4676 -0.4323
  162SOPE  C31018203   4.366   4.023   9.226 -0.2837  0.7262 -0.5462
  162SOPE  H10X18204   4.462   3.970   9.204 -1.5818 -1.2292 -1.8950
  162SOPE  H10Y18205   4.371   4.101   9.147  0.2065 -1.2197 -2.5496
  162SOPE  C31118206   4.258   3.915   9.199  1.1027 -0.1346 -0.1414
  162SOPE  H11X18207   4.160   3.962   9.225  0.6405 -0.4952 -1.2102
  162SOPE  H11Y18208   4.274   3.822   9.258 -2.3760 -0.8740 -0.1456
  162SOPE  C31218209   4.275   3.878   9.046  0.3637 -0.4380 -0.0485
  162SOPE  H12X18210   4.380   3.859   9.013  0.6357  4.1070 -2.6950
  162SOPE  H12Y18211   4.263   3.964   8.977 -0.4321 -0.1710  0.4200
  162SOPE  C31318212   4.176   3.774   8.994 -0.5967  0.4664  0.2542
  162SOPE  H13X18213   4.070   3.805   8.999 -0.9026 -0.6676  1.2921
  162SOPE  H13Y18214   4.180   3.683   9.057 -0.4185  0.1346 -0.2307
  162SOPE  C31418215   4.203   3.736   8.852  0.6459 -0.0971  0.1674
  162SOPE  H14X18216   4.306   3.696   8.839  1.2241  2.1160 -3.3805
  162SOPE  H14Y18217   4.191   3.821   8.781  0.6186 -0.9196 -0.8561
  162SOPE  C31518218   4.114   3.618   8.814 -0.1985  0.6786  0.0133
  162SOPE  H15X18219   4.120   3.537   8.889  0.9577 -0.1518 -0.9346
  162SOPE  H15Y18220   4.157   3.567   8.725 -1.8607  0.3282 -0.6415
  162SOPE  C31618221   3.967   3.657   8.782 -0.1440 -0.3527 -0.1153
  162SOPE  H16X18222   3.983   3.751   8.725  1.3306 -0.5528 -0.0721
  162SOPE  H16Y18223   3.907   3.673   8.874  3.0734  1.4135  1.9151
  162SOPE  C31718224   3.897   3.557   8.695  0.7663 -0.9845 -0.0674
  162SOPE  H17X18225   3.872   3.464   8.750 -1.3025 -1.6580 -2.0278
  162SOPE  H17Y18226   3.970   3.528   8.617 -0.1124  0.4435 -1.4765
  162SOPE  C31818227   3.766   3.613   8.648 -0.3410 -0.0157  0.0121
  162SOPE  H18X18228   3.727   3.542   8.572  1.3051 -0.1386 -0.7650
  162SOPE  H18Y18229   3.768   3.717   8.607  1.3295 -0.7611 -1.9408
  162SOPE  H18Z18230   3.694   3.619   8.733 -1.8651 -0.1507 -1.2215
  163SOPE     N18231   2.653   1.318  10.912  0.7690 -0.1165  0.2874
  163SOPE   HN118232   2.566   1.373  10.896 -0.1468 -2.1694 -2.7675
  163SOPE   HN218233   2.658   1.261  10.998 -2.0048  1.6287  1.7402
  163SOPE   HN318234   2.733   1.385  10.907 -0.4857  1.7140  2.5737
  163SOPE   C1218235   2.662   1.231  10.792  0.3929  0.1965  0.5683
  163SOPE  H12A18236   2.638   1.299  10.707  0.2592  1.1700  1.3656
  163SOPE  H12B18237   2.589   1.149  10.811 -1.0999  1.2476 -0.3672
  163SOPE   C1118238   2.803   1.178  10.771 -0.3138  0.5368  0.1594
  163SOPE  H11A18239   2.823   1.123  10.676  0.0621  0.8884  0.0354
  163SOPE  H11B18240   2.840   1.107  10.849  1.5318 -0.5603 -1.6193
  163SOPE     P18241   3.029   1.313  10.769 -0.3273  0.0916 -0.0280
  163SOPE   O1318242   3.091   1.180  10.795  0.0174  0.1181  0.2902
  163SOPE   O1418243   3.075   1.421  10.858  0.0028  0.1389 -0.7896
  163SOPE   O1218244   2.876   1.298  10.769 -0.7138 -0.1669  0.0015
  163SOPE   O1118245   3.051   1.356  10.618  0.1221 -0.1788  0.2425
  163SOPE    C118246   2.954   1.452  10.566  0.0400  0.0909  0.5062
  163SOPE    HA18247   2.950   1.538  10.637  1.8979  0.4752  0.1959
  163SOPE    HB18248   2.851   1.411  10.554  0.0818  0.5667 -1.7388
  163SOPE    C218249   2.985   1.504  10.426 -0.0810 -0.8167 -0.1496
  163SOPE    HS18250   2.892   1.547  10.384  0.9798  0.2614 -1.4893
  163SOPE   O2118251   3.047   1.407  10.339  0.0168  0.0437 -0.0323
  163SOPE   C2118252   2.979   1.300  10.316  0.1930 -0.1445  0.5110
  163SOPE   O2218253   2.870   1.269  10.365 -0.0330 -1.0063  0.3190
  163SOPE   C2218254   3.046   1.216  10.214 -0.7973  0.2942 -0.2068
  163SOPE   H2R18255   3.087   1.127  10.267 -0.9406  0.0828 -0.4469
  163SOPE   H2S18256   3.126   1.274  10.163  0.0961 -1.5004 -0.9421
  163SOPE    C318257   3.090   1.621  10.433 -0.2072  0.3246  0.6261
  163SOPE    HX18258   3.180   1.575  10.481 -1.2157  0.8958  3.2328
  163SOPE    HY18259   3.053   1.693  10.509 -0.3977 -0.5388  1.3668
  163SOPE   O3118260   3.113   1.688  10.305 -0.2404  0.1807 -0.0333
  163SOPE   C3118261   3.220   1.641  10.238 -0.4175  0.7003  0.0013
  163SOPE   O3218262   3.276   1.537  10.272 -0.2032 -0.1651  0.6158
  163SOPE   C3218263   3.244   1.712  10.100 -0.1842 -0.5353  0.2350
  163SOPE   H2X18264   3.176   1.798  10.085 -0.7329 -0.9200  0.4737
  163SOPE   H2Y18265   3.220   1.637  10.021 -0.6347 -1.2114  0.9927
  163SOPE   C2318266   2.954   1.162  10.103 -0.7766  0.0818  0.7481
  163SOPE   H3R18267   2.871   1.120  10.164 -1.1974  2.6085  2.0331
  163SOPE   H3S18268   3.005   1.081  10.046 -1.6190 -0.0354  0.1535
  163SOPE   C2418269   2.916   1.268  10.000 -0.0548 -1.1237 -0.4066
  163SOPE   H4R18270   2.841   1.336  10.047 -0.4619 -3.7670  3.2301
  163SOPE   H4S18271   3.005   1.329   9.972 -0.2007 -0.7298 -0.0263
  163SOPE   C2518272   2.846   1.218   9.878  0.3852  0.3773  0.0373
  163SOPE   H5R18273   2.803   1.304   9.822 -3.0184 -0.0769  1.6877
  163SOPE   H5S18274   2.920   1.166   9.814 -0.2011  1.2599 -1.4405
  163SOPE   C2618275   2.739   1.110   9.909 -0.6755 -0.0818 -0.4522
  163SOPE   H6R18276   2.717   1.079   9.805  0.3377  0.5556 -0.8647
  163SOPE   H6S18277   2.791   1.025   9.958  2.3909  1.6327 -0.5271
  163SOPE   C2718278   2.617   1.152   9.989  0.6129 -0.9805 -0.4115
  163SOPE   H7R18279   2.558   1.061  10.015 -0.9142 -0.4558 -1.8726
  163SOPE   H7S18280   2.643   1.194  10.089 -0.7867 -0.8223 -0.1051
  163SOPE   C2818281   2.527   1.256   9.909  0.0674  0.2800  0.0285
  163SOPE   H8R18282   2.588   1.346   9.887  0.4870 -0.1505 -0.6157
  163SOPE   H8S18283   2.498   1.201   9.816  0.5679 -2.4049  1.3495
  163SOPE   C2918284   2.394   1.300   9.980 -0.7288  0.0352 -0.4680
  163SOPE   H9118285   2.408   1.346  10.079 -1.4003 -1.7427  0.5075
  163SOPE  C21018286   2.266   1.274   9.939  0.2397 -1.3349 -0.3983
  163SOPE  H10118287   2.187   1.295  10.012 -0.1041 -1.0209 -0.8558
  163SOPE  C21118288   2.216   1.203   9.814  0.2861  0.5114 -0.5162
  163SOPE  H11R18289   2.117   1.152   9.816  0.0545  0.9559 -0.5684
  163SOPE  H11S18290   2.292   1.131   9.777 -0.2174  0.0979 -0.7641
  163SOPE  C21218291   2.200   1.298   9.695  0.6602  0.1034  0.3638
  163SOPE  H12R18292   2.297   1.314   9.643  0.2245  1.9836  0.0584
  163SOPE  H12S18293   2.146   1.390   9.728 -0.5059 -0.0560 -0.9835
  163SOPE  C21318294   2.127   1.239   9.575  0.2001 -0.0805 -1.3716
  163SOPE  H13R18295   2.024   1.221   9.613  0.1163 -0.5585 -1.8160
  163SOPE  H13S18296   2.165   1.138   9.549  0.1576 -0.2592 -0.7696
  163SOPE  C21418297   2.107   1.339   9.458  0.3997 -0.5055  0.4536
  163SOPE  H14R18298   2.208   1.370   9.421  0.0304 -0.3973 -0.4876
  163SOPE  H14S18299   2.053   1.429   9.493  1.6147  0.9315 -1.1471
  163SOPE  C21518300   2.033   1.279   9.343  0.2664  0.8361 -0.1714
  163SOPE  H15R18301   1.927   1.254   9.362  0.5568 -3.3588 -2.8901
  163SOPE  H15S18302   2.081   1.179   9.333  4.0797  2.5142 -0.4042
  163SOPE  C21618303   2.056   1.346   9.207 -0.0736 -0.2634  0.2292
  163SOPE  H16R18304   2.158   1.386   9.188 -0.6251  0.8740 -0.5144
  163SOPE  H16S18305   2.003   1.443   9.214  1.0200  0.2302  2.9524
  163SOPE  C21718306   1.998   1.257   9.097  0.4719  0.1648  0.4545
  163SOPE  H17R18307   1.999   1.316   9.003  0.4514  1.4623  1.2421
  163SOPE  H17S18308   1.890   1.236   9.111  0.1229  1.7484  0.3110
  163SOPE  C21818309   2.072   1.129   9.068 -0.5776 -0.4974  0.3272
  163SOPE  H18R18310   2.042   1.102   8.964 -2.4736 -0.1936  0.7629
  163SOPE  H18S18311   2.043   1.051   9.141  1.7849  0.3050  2.2383
  163SOPE  H18T18312   2.183   1.136   9.075 -0.7100  1.2622  1.1738
  163SOPE   C3318313   3.401   1.745  10.093 -0.2451 -0.7722 -0.3814
  163SOPE   H3X18314   3.460   1.653  10.111 -1.1992 -1.1699  0.8000
  163SOPE   H3Y18315   3.416   1.814  10.179  1.1208 -0.5099 -0.8096
  163SOPE   C3418316   3.435   1.810   9.956 -0.3005  0.1382  0.3465
  163SOPE   H4X18317   3.382   1.907   9.941  1.1328  1.2061  1.7732
  163SOPE   H4Y18318   3.402   1.738   9.878  0.2603  0.0898  0.1442
  163SOPE   C3518319   3.583   1.849   9.944  0.3257 -0.2920 -0.2180
  163SOPE   H5X18320   3.635   1.752   9.961 -1.5160 -1.2286  0.3270
  163SOPE   H5Y18321   3.609   1.910  10.034  1.3080  2.0900 -2.0063
  163SOPE   C3618322   3.629   1.931   9.822  0.0106 -0.1807 -0.2254
  163SOPE   H6X18323   3.723   1.989   9.824 -0.0776  0.4948 -5.1588
  163SOPE   H6Y18324   3.556   2.015   9.821  0.8993  0.6546  1.1701
  163SOPE   C3718325   3.615   1.843   9.699 -0.8261 -0.2231 -0.2265
  163SOPE   H7X18326   3.505   1.823   9.695 -0.4965 -1.9271 -2.3746
  163SOPE   H7Y18327   3.662   1.743   9.714 -1.9832 -0.9053 -0.9318
  163SOPE   C3818328   3.672   1.915   9.572 -0.2616 -0.6545 -0.5355
  163SOPE   H8X18329   3.777   1.941   9.597 -0.6849  0.5657  0.0713
  163SOPE   H8Y18330   3.611   2.005   9.549 -0.3472 -0.4468  0.4563
  163SOPE   C3918331   3.669   1.819   9.454 -0.0604 -0.6007  0.4093
  163SOPE   H9X18332   3.735   1.734   9.479  0.0782 -0.4324  0.6193
  163SOPE   H9Y18333   3.742   1.865   9.383 -0.2207 -1.5354 -0.3895
  163SOPE  C31018334   3.533   1.786   9.395  0.9141 -0.3602 -0.1524
  163SOPE  H10X18335   3.474   1.879   9.408  1.8970 -0.0233  2.5324
  163SOPE  H10Y18336   3.474   1.708   9.448  0.1798  1.0041  1.1060
  163SOPE  C31118337   3.531   1.757   9.244  0.0947 -0.6009  0.0131
  163SOPE  H11X18338   3.606   1.679   9.217  1.3243  0.5651 -0.0710
  163SOPE  H11Y18339   3.558   1.853   9.195  2.0691 -1.0293  0.1539
  163SOPE  C31218340   3.393   1.727   9.179 -0.2321 -0.3841  0.4620
  163SOPE  H12X18341   3.315   1.800   9.209  0.0248  0.8109 -1.6131
  163SOPE  H12Y18342   3.351   1.636   9.228 -0.9402  0.3270  1.2241
  163SOPE  C31318343   3.384   1.731   9.029 -0.6936  0.3486 -0.1647
  163SOPE  H13X18344   3.317   1.646   9.006  2.4166 -2.8039  1.5323
  163SOPE  H13Y18345   3.481   1.696   8.989  0.1498  3.0184 -0.6635
  163SOPE  C31418346   3.337   1.871   8.994 -0.2845  0.1118  0.4828
  163SOPE  H14X18347   3.415   1.939   9.034 -1.5855  1.3576  1.0240
  163SOPE  H14Y18348   3.238   1.888   9.042 -1.2201  1.2737 -1.7258
  163SOPE  C31518349   3.323   1.877   8.840  0.5898  0.5117 -0.6674
  163SOPE  H15X18350   3.246   1.803   8.807 -0.1188  2.2814 -3.2853
  163SOPE  H15Y18351   3.416   1.840   8.792  1.0084  0.2950  0.2752
  163SOPE  C31618352   3.285   2.014   8.788 -0.0920  0.5024  0.7035
  163SOPE  H16X18353   3.368   2.074   8.831 -1.2375  1.4162  1.7141
  163SOPE  H16Y18354   3.193   2.045   8.843  1.9491  2.6593  3.1552
  163SOPE  C31718355   3.244   2.024   8.635  0.4510 -0.1477 -0.5408
  163SOPE  H17X18356   3.215   2.129   8.613  0.5296  0.0458  0.2712
  163SOPE  H17Y18357   3.150   1.966   8.630 -0.3196  1.1097 -1.0892
  163SOPE  C31818358   3.351   1.972   8.538 -0.2566 -0.3629  0.6074
  163SOPE  H18X18359   3.347   1.861   8.529 -1.4407 -0.2244 -0.9197
  163SOPE  H18Y18360   3.455   1.988   8.574  1.4896 -4.7209 -1.6399
  163SOPE  H18Z18361   3.340   2.025   8.441  1.4952  0.5829  0.8760
  164SOPE     N18362   5.739   2.234  10.936 -0.1749 -0.2108  0.2192
  164SOPE   HN118363   5.692   2.235  11.030 -0.1168  1.1245  0.2554
  164SOPE   HN218364   5.740   2.330  10.896  1.2322 -0.2559  0.1072
  164SOPE   HN318365   5.694   2.172  10.866  0.2130  1.0341 -1.1746
  164SOPE   C1218366   5.883   2.198  10.957 -0.2469  0.0473  0.2133
  164SOPE  H12A18367   5.897   2.088  10.956  1.0794  0.1570  1.6981
  164SOPE  H12B18368   5.919   2.239  11.055  0.2255 -1.6115  0.7697
  164SOPE   C1118369   5.961   2.252  10.835  0.1947  0.5218  0.3789
  164SOPE  H11A18370   5.915   2.195  10.751 -1.2587  0.1015  1.4244
  164SOPE  H11B18371   6.063   2.208  10.846 -0.6794 -1.5231  0.6848
  164SOPE     P18372   6.065   2.474  10.767  0.3927 -0.1316  0.1120
  164SOPE   O1318373   6.189   2.436  10.848  0.2959  0.2160 -0.2869
  164SOPE   O1418374   6.031   2.613  10.751 -0.3276  0.0740  0.2374
  164SOPE   O1218375   5.950   2.399  10.827  0.2900  0.3352 -0.1450
  164SOPE   O1118376   6.082   2.415  10.626 -0.4155  0.0443  0.0683
  164SOPE    C118377   5.973   2.367  10.540 -0.1416  0.1568  0.4108
  164SOPE    HA18378   5.872   2.402  10.570  0.4805  1.2087  1.3466
  164SOPE    HB18379   5.971   2.256  10.539 -0.0946  0.1528  0.7723
  164SOPE    C218380   5.982   2.417  10.391 -1.1066 -0.1087  0.1139
  164SOPE    HS18381   5.907   2.361  10.333 -1.2485  0.9453 -0.7500
  164SOPE   O2118382   6.117   2.390  10.345  0.0756 -0.1214 -0.0422
  164SOPE   C2118383   6.149   2.266  10.325 -0.3978 -0.5922 -0.7051
  164SOPE   O2218384   6.072   2.170  10.332  0.6472 -0.3786  0.0111
  164SOPE   C2218385   6.295   2.258  10.289 -0.8467 -0.7279 -0.0476
  164SOPE   H2R18386   6.357   2.222  10.374 -0.0993  3.4399  1.4065
  164SOPE   H2S18387   6.335   2.359  10.267  0.6004 -0.6240  2.6443
  164SOPE    C318388   5.962   2.571  10.386  0.1897 -0.3232  0.3178
  164SOPE    HX18389   6.045   2.621  10.440 -0.4521  0.7416  0.3651
  164SOPE    HY18390   5.868   2.592  10.442  0.5955 -0.1553  0.9444
  164SOPE   O3118391   5.951   2.613  10.247  0.4885 -0.0581  0.2214
  164SOPE   C3118392   6.059   2.669  10.200 -0.1526 -0.2031  0.4115
  164SOPE   O3218393   6.165   2.677  10.255 -0.3352 -0.7632 -0.1152
  164SOPE   C3218394   6.026   2.736  10.072  0.5779  0.2374  1.3399
  164SOPE   H2X18395   6.096   2.820  10.050 -0.0422 -0.1003 -2.6992
  164SOPE   H2Y18396   5.921   2.771  10.068  0.7043  0.5402 -0.1368
  164SOPE   C2318397   6.320   2.160  10.175  0.1218 -0.1484 -0.4055
  164SOPE   H3R18398   6.265   2.063  10.176  0.4562 -0.3997 -2.2543
  164SOPE   H3S18399   6.426   2.128  10.187  0.2639 -0.0322 -1.3078
  164SOPE   C2418400   6.312   2.216  10.031 -0.3378 -0.0377 -0.4022
  164SOPE   H4R18401   6.371   2.310  10.032 -1.0574  0.4306  1.0598
  164SOPE   H4S18402   6.362   2.138   9.970 -0.9473 -0.6760 -0.1002
  164SOPE   C2518403   6.173   2.216   9.974 -0.5277  0.1634 -0.4754
  164SOPE   H5R18404   6.122   2.119   9.993 -0.7403  0.7350  2.2386
  164SOPE   H5S18405   6.136   2.302  10.034  1.8738 -0.2242  1.7172
  164SOPE   C2618406   6.164   2.265   9.830  0.2407  0.1196 -0.2633
  164SOPE   H6R18407   6.056   2.252   9.808  0.8755 -3.1956 -2.1054
  164SOPE   H6S18408   6.187   2.374   9.827  2.1427 -0.1004  2.3728
  164SOPE   C2718409   6.240   2.186   9.726  0.1327 -0.1770  0.0916
  164SOPE   H7R18410   6.348   2.203   9.749  0.3712  0.0391 -1.1083
  164SOPE   H7S18411   6.210   2.080   9.723  0.6338 -0.3123 -0.4110
  164SOPE   C2818412   6.213   2.228   9.581  0.3633 -0.4317  0.0567
  164SOPE   H8R18413   6.250   2.332   9.574  0.2199 -0.4912 -3.7557
  164SOPE   H8S18414   6.294   2.181   9.523 -0.1540 -0.8122 -0.3700
  164SOPE   C2918415   6.073   2.221   9.522  0.6336  0.3154 -0.4219
  164SOPE   H9118416   5.994   2.237   9.597  0.0421 -1.9939 -0.4671
  164SOPE  C21018417   6.045   2.179   9.401  0.5910  1.3450  0.0048
  164SOPE  H10118418   5.942   2.156   9.369  1.2770 -0.7697 -0.8616
  164SOPE  C21118419   6.143   2.135   9.294 -0.0165  0.2797  0.2006
  164SOPE  H11R18420   6.159   2.025   9.303  0.2721  0.3230  0.2205
  164SOPE  H11S18421   6.237   2.190   9.310  0.3372 -0.5364  1.0532
  164SOPE  C21218422   6.096   2.173   9.150  0.0010 -0.1261 -0.0148
  164SOPE  H12R18423   6.081   2.282   9.137 -0.0772  0.2701  2.7834
  164SOPE  H12S18424   6.010   2.108   9.121 -0.9184 -0.0268  2.2770
  164SOPE  C21318425   6.212   2.158   9.047 -0.5813 -0.4506  0.3968
  164SOPE  H13R18426   6.242   2.052   9.063 -2.5370 -1.1592 -0.3195
  164SOPE  H13S18427   6.296   2.223   9.080  0.2667 -0.5934 -1.3762
  164SOPE  C21418428   6.186   2.191   8.903 -0.0711  0.1744 -0.6435
  164SOPE  H14R18429   6.274   2.210   8.837  0.8661  0.3060  0.6053
  164SOPE  H14S18430   6.127   2.284   8.883 -0.1350 -0.0550 -1.5520
  164SOPE  C21518431   6.099   2.091   8.826  0.1094  0.0153  0.5185
  164SOPE  H15R18432   6.021   2.034   8.881 -0.5570  0.9707  0.5824
  164SOPE  H15S18433   6.175   2.018   8.790 -1.0496 -1.4569  0.9608
  164SOPE  C21618434   6.045   2.172   8.703 -0.0602 -0.0505 -0.6045
  164SOPE  H16R18435   6.140   2.220   8.670 -0.3613  0.2595 -1.0236
  164SOPE  H16S18436   5.964   2.233   8.749  1.0534  1.1542 -0.1659
  164SOPE  C21718437   5.993   2.089   8.583 -0.0902 -0.1155 -0.0034
  164SOPE  H17R18438   5.923   2.009   8.615 -0.2977  0.4266  0.9259
  164SOPE  H17S18439   6.075   2.020   8.553 -0.0296  1.0787 -2.8697
  164SOPE  C21818440   5.950   2.180   8.463 -0.0362 -0.3684  0.4209
  164SOPE  H18R18441   5.908   2.277   8.498 -0.6760 -1.0181  1.5381
  164SOPE  H18S18442   5.886   2.119   8.396 -1.1264  0.5912  0.5520
  164SOPE  H18T18443   6.041   2.217   8.411  0.4294 -0.7939  0.9284
  164SOPE   C3318444   6.041   2.636   9.955  0.2288  0.4456 -0.2198
  164SOPE   H3X18445   5.989   2.540   9.974 -0.6537  1.0991  0.7815
  164SOPE   H3Y18446   6.151   2.617   9.950  0.5805  2.0683  0.7611
  164SOPE   C3418447   5.976   2.682   9.823 -0.0113  0.0169 -0.0743
  164SOPE   H4X18448   6.030   2.773   9.790  1.7657 -0.8480  0.2584
  164SOPE   H4Y18449   5.867   2.693   9.841 -0.2297 -1.8602 -0.0629
  164SOPE   C3518450   5.985   2.585   9.707 -0.1130 -1.0103 -0.1865
  164SOPE   H5X18451   5.924   2.494   9.728  1.4228 -1.6579  1.8146
  164SOPE   H5Y18452   6.089   2.547   9.711  1.4900  2.8863 -0.7124
  164SOPE   C3618453   5.935   2.649   9.576  0.3823 -0.0778 -0.0733
  164SOPE   H6X18454   6.004   2.727   9.538 -1.6116  0.8012 -2.0815
  164SOPE   H6Y18455   5.832   2.689   9.583  0.6353  0.5244  0.2247
  164SOPE   C3718456   5.943   2.553   9.456 -0.4326 -0.0824 -0.1822
  164SOPE   H7X18457   5.852   2.489   9.459 -0.6747  0.2874  1.0028
  164SOPE   H7Y18458   6.038   2.497   9.455 -0.5622 -0.3213 -1.9464
  164SOPE   C3818459   5.942   2.635   9.330  0.1603 -0.3146  0.0417
  164SOPE   H8X18460   6.024   2.708   9.345 -0.9704  1.1643 -0.6765
  164SOPE   H8Y18461   5.846   2.690   9.313 -0.4773 -1.2800  0.4158
  164SOPE   C3918462   5.977   2.552   9.210 -0.0360 -0.0707  0.0821
  164SOPE   H9X18463   5.935   2.450   9.210 -0.2544 -0.0136 -1.4118
  164SOPE   H9Y18464   6.085   2.529   9.214 -0.5457 -2.5689  0.6790
  164SOPE  C31018465   5.966   2.629   9.077  0.1078  0.7351  0.2783
  164SOPE  H10X18466   6.002   2.734   9.085 -0.3646  0.9083  0.1910
  164SOPE  H10Y18467   5.856   2.620   9.065  0.4035 -3.7434 -0.8822
  164SOPE  C31118468   6.038   2.560   8.957  0.0205 -0.1320 -0.6226
  164SOPE  H11X18469   6.002   2.457   8.980 -2.3601  0.6555 -0.5532
  164SOPE  H11Y18470   6.149   2.552   8.968  0.2452 -3.6007 -3.4854
  164SOPE  C31218471   6.010   2.605   8.820 -0.2605  0.3579  0.3804
  164SOPE  H12X18472   6.030   2.714   8.814 -0.5044  0.4135  0.5595
  164SOPE  H12Y18473   5.904   2.590   8.790 -0.2559 -0.3135  0.6888
  164SOPE  C31318474   6.094   2.537   8.708  0.0495  0.0774  0.4958
  164SOPE  H13X18475   6.070   2.429   8.723  0.5762 -0.3439 -1.4839
  164SOPE  H13Y18476   6.202   2.547   8.732  0.9885 -0.5540 -2.9613
  164SOPE  C31418477   6.059   2.581   8.564  0.7337  0.2539  0.7998
  164SOPE  H14X18478   5.954   2.547   8.554  1.6983 -2.4258 -1.9356
  164SOPE  H14Y18479   6.121   2.530   8.487  0.7353 -0.0070  0.9718
  164SOPE  C31518480   6.060   2.737   8.543 -0.2152 -0.4601  0.5141
  164SOPE  H15X18481   5.985   2.785   8.609 -1.0553  0.8691 -1.3275
  164SOPE  H15Y18482   6.015   2.762   8.445  3.4008  0.7224 -1.0329
  164SOPE  C31618483   6.198   2.805   8.569 -0.2435  0.4637 -0.2002
  164SOPE  H16X18484   6.271   2.774   8.491  1.7335  0.3060  1.6010
  164SOPE  H16Y18485   6.226   2.777   8.673  1.9630 -0.2422 -0.9181
  164SOPE  C31718486   6.198   2.956   8.569  0.0670 -0.0093 -0.2991
  164SOPE  H17X18487   6.298   2.983   8.610 -0.4773 -2.6456  3.1794
  164SOPE  H17Y18488   6.130   2.996   8.647  0.0936 -0.5099 -0.0157
  164SOPE  C31818489   6.165   3.012   8.424 -0.3044 -0.1432  0.4486
  164SOPE  H18X18490   6.185   3.121   8.423  1.3131 -0.3943 -1.4412
  164SOPE  H18Y18491   6.066   2.980   8.385  0.3423 -1.2103 -0.3904
  164SOPE  H18Z18492   6.235   2.980   8.343  0.4723  1.4863  0.4430
  165SOPE     N18493   6.808   3.964  10.778 -0.2083 -0.0606  0.4283
  165SOPE   HN118494   6.834   4.049  10.723 -0.5412  0.3823  0.9400
  165SOPE   HN218495   6.889   3.899  10.773  0.9217  1.3746 -0.8473
  165SOPE   HN318496   6.738   3.919  10.716  0.4985 -1.7456  0.8157
  165SOPE   C1218497   6.736   4.004  10.902 -0.3101  0.7170  0.4821
  165SOPE  H12A18498   6.809   4.057  10.967  1.5297  1.2650 -1.9148
  165SOPE  H12B18499   6.706   3.907  10.948 -0.5672  0.1279 -0.8682
  165SOPE   C1118500   6.616   4.093  10.878 -0.1410 -0.9979 -0.1377
  165SOPE  H11A18501   6.650   4.168  10.804  0.9384 -4.3576 -3.3604
  165SOPE  H11B18502   6.597   4.161  10.964  1.4650  1.5640 -1.6685
  165SOPE     P18503   6.450   4.001  10.699  0.6959 -0.1357 -0.0274
  165SOPE   O1318504   6.379   4.125  10.653 -0.3318 -0.2084  0.0106
  165SOPE   O1418505   6.372   3.879  10.669 -0.0844  0.0211 -0.0569
  165SOPE   O1218506   6.496   4.016  10.851 -0.5073  0.3685  0.6062
  165SOPE   O1118507   6.593   3.982  10.621  0.0711 -0.6700  0.4725
  165SOPE    C118508   6.609   3.933  10.493 -0.8538  0.8017  0.2953
  165SOPE    HA18509   6.541   3.846  10.482  0.3968 -0.0468 -1.1509
  165SOPE    HB18510   6.714   3.900  10.480 -1.0964 -0.2483  0.8783
  165SOPE    C218511   6.584   4.032  10.375  0.0060 -0.5803 -0.4044
  165SOPE    HS18512   6.582   4.133  10.422  1.9120 -0.7056  0.0324
  165SOPE   O2118513   6.457   4.001  10.321  0.2092  0.6833 -0.2491
  165SOPE   C2118514   6.398   4.100  10.254 -0.2701  0.7402 -0.1473
  165SOPE   O2218515   6.433   4.216  10.250  0.4492  0.7740 -0.2686
  165SOPE   C2218516   6.275   4.040  10.181  0.7182 -0.0109  0.1472
  165SOPE   H2R18517   6.208   4.126  10.159  0.9368  0.5270  1.4982
  165SOPE   H2S18518   6.222   3.984  10.262 -1.6440 -1.6183 -2.3302
  165SOPE    C318519   6.695   4.040  10.275 -0.5241 -0.7547  0.5098
  165SOPE    HX18520   6.787   4.083  10.320  0.3063 -1.7951 -0.1204
  165SOPE    HY18521   6.656   4.105  10.194 -0.7024 -0.9006  0.4758
  165SOPE   O3118522   6.728   3.908  10.224 -0.0799  0.0080  0.0265
  165SOPE   C3118523   6.726   3.898  10.092  0.3890  0.0314 -0.3755
  165SOPE   O3218524   6.698   3.978  10.012  0.4984  0.3685  0.3386
  165SOPE   C3218525   6.758   3.752  10.053 -0.2094  0.1451 -0.9586
  165SOPE   H2X18526   6.673   3.686  10.080 -0.2885 -0.3757 -2.3834
  165SOPE   H2Y18527   6.839   3.716  10.120 -1.0053  0.5607  0.2490
  165SOPE   C2318528   6.309   3.953  10.055  0.2785 -0.0778  0.3142
  165SOPE   H3R18529   6.218   3.899  10.022  0.0083  1.4763 -1.6651
  165SOPE   H3S18530   6.385   3.876  10.081  1.1483  0.7263  0.2150
  165SOPE   C2418531   6.341   4.042   9.925 -0.3792  0.4214 -0.1564
  165SOPE   H4R18532   6.261   4.119   9.920  0.9312  1.8752  0.6480
  165SOPE   H4S18533   6.440   4.086   9.945 -1.6146  2.1628  2.8964
  165SOPE   C2518534   6.341   3.957   9.798  0.7179  0.5185  0.2295
  165SOPE   H5R18535   6.408   3.868   9.802 -1.0415 -0.8901 -0.0965
  165SOPE   H5S18536   6.242   3.908   9.800  1.9947 -2.4061 -1.3103
  165SOPE   C2618537   6.348   4.046   9.671 -0.5684 -0.2815 -0.5454
  165SOPE   H6R18538   6.328   3.981   9.583  1.4052  1.5512 -2.4613
  165SOPE   H6S18539   6.276   4.130   9.663 -1.0850 -0.7384 -0.8057
  165SOPE   C2718540   6.496   4.103   9.651  0.3335  0.0993 -0.0640
  165SOPE   H7R18541   6.491   4.153   9.552 -0.0413 -2.0144 -1.1883
  165SOPE   H7S18542   6.495   4.181   9.730  1.2957  0.1986 -0.1471
  165SOPE   C2818543   6.623   4.020   9.688  0.1127  0.0658 -0.0178
  165SOPE   H8R18544   6.719   4.075   9.679 -0.1362  1.4088  3.8979
  165SOPE   H8S18545   6.615   3.991   9.795  1.0261 -0.1256  0.0068
  165SOPE   C2918546   6.618   3.895   9.598  0.6606 -0.3631 -0.1411
  165SOPE   H9118547   6.530   3.834   9.621  0.1661  0.3089 -0.2128
  165SOPE  C21018548   6.721   3.850   9.530  0.3031 -0.1187  0.3731
  165SOPE  H10118549   6.691   3.765   9.469 -1.3870  0.2429  0.6625
  165SOPE  C21118550   6.857   3.911   9.514 -0.1795  0.1976 -0.5773
  165SOPE  H11R18551   6.926   3.829   9.543 -0.4500  0.2257  0.1755
  165SOPE  H11S18552   6.874   3.997   9.583  0.3466 -1.1697  1.0468
  165SOPE  C21218553   6.882   3.955   9.372  0.5134  0.3709  0.4578
  165SOPE  H12R18554   6.974   4.018   9.376  0.5392  0.2590  2.5910
  165SOPE  H12S18555   6.802   4.027   9.346  1.3744  1.2801  0.2508
  165SOPE  C21318556   6.899   3.846   9.260 -0.4879 -0.4831 -0.2545
  165SOPE  H13R18557   6.802   3.796   9.245 -0.6603 -0.0240 -0.6948
  165SOPE  H13S18558   6.970   3.772   9.304 -0.2826 -0.5587 -0.7117
  165SOPE  C21418559   6.963   3.908   9.132 -0.5457  1.0934  0.3055
  165SOPE  H14R18560   7.066   3.947   9.145 -0.4276  0.8773  0.0357
  165SOPE  H14S18561   6.891   3.992   9.122 -1.6398  0.2270  0.7757
  165SOPE  C21518562   6.950   3.816   9.006  0.1091  0.3206  0.4058
  165SOPE  H15R18563   6.865   3.744   9.007  0.0765  0.2397 -2.2615
  165SOPE  H15S18564   7.046   3.762   8.993 -0.0738  0.1895 -0.4466
  165SOPE  C21618565   6.926   3.911   8.889 -0.1439  0.1692  0.3258
  165SOPE  H16R18566   7.021   3.968   8.885 -0.8102  1.3710  1.0016
  165SOPE  H16S18567   6.850   3.983   8.925  1.3943  1.3800  1.2428
  165SOPE  C21718568   6.879   3.841   8.762  0.4466  0.1022 -0.2838
  165SOPE  H17R18569   6.790   3.785   8.797  1.4897 -1.7481 -0.4426
  165SOPE  H17S18570   6.961   3.775   8.726 -0.9652 -1.6195 -0.5064
  165SOPE  C21818571   6.838   3.932   8.643  0.0593 -0.2351 -0.0031
  165SOPE  H18R18572   6.808   3.866   8.558 -2.7720  1.2968 -0.3107
  165SOPE  H18S18573   6.920   4.002   8.616 -1.0610  1.1445  0.0531
  165SOPE  H18T18574   6.750   3.996   8.665  0.3958  0.2871 -0.1849
  165SOPE   C3318575   6.792   3.726   9.904  0.5632 -0.6093  0.3207
  165SOPE   H3X18576   6.859   3.803   9.859 -1.0235  0.2789 -0.6377
  165SOPE   H3Y18577   6.698   3.737   9.846  0.8400  2.7588  0.3076
  165SOPE   C3418578   6.841   3.590   9.866 -0.8701 -0.7062  0.4000
  165SOPE   H4X18579   6.774   3.521   9.921 -0.2733 -0.5123  1.3926
  165SOPE   H4Y18580   6.946   3.573   9.899  0.1409  1.3390 -1.4720
  165SOPE   C3518581   6.821   3.550   9.717 -0.0558 -0.1709 -0.4063
  165SOPE   H5X18582   6.872   3.627   9.656  1.4206 -0.7226  0.1035
  165SOPE   H5Y18583   6.716   3.547   9.678  0.5055  1.2055 -2.1380
  165SOPE   C3618584   6.903   3.423   9.690 -0.7552 -0.9364 -0.0370
  165SOPE   H6X18585   6.857   3.333   9.737 -0.1049 -1.0620  0.3770
  165SOPE   H6Y18586   7.004   3.439   9.735  0.2371  1.9774 -2.9012
  165SOPE   C3718587   6.935   3.396   9.541  0.2710 -0.2061 -0.0876
  165SOPE   H7X18588   6.843   3.370   9.484 -0.4989 -0.2547  1.1618
  165SOPE   H7Y18589   7.002   3.307   9.534 -1.3154 -1.4015 -0.7384
  165SOPE   C3818590   7.002   3.521   9.470  0.1587  0.2441 -0.2529
  165SOPE   H8X18591   7.088   3.555   9.531 -0.1045 -0.0165  0.2803
  165SOPE   H8Y18592   6.930   3.605   9.458 -0.1016 -0.0263 -0.5970
  165SOPE   C3918593   7.042   3.492   9.326  0.9407  0.8294  0.2792
  165SOPE   H9X18594   7.044   3.588   9.270 -1.0905  0.5555 -0.3417
  165SOPE   H9Y18595   6.972   3.423   9.274 -0.1616  1.2936  1.0974
  165SOPE  C31018596   7.180   3.438   9.315 -0.0940  0.4539 -0.0120
  165SOPE  H10X18597   7.184   3.343   9.372  0.3120 -0.2663 -1.2057
  165SOPE  H10Y18598   7.254   3.497   9.373 -1.0440  1.7788 -0.1247
  165SOPE  C31118599   7.222   3.407   9.167 -0.3567  0.8296  0.0467
  165SOPE  H11X18600   7.141   3.341   9.129 -0.4418  1.3480 -0.6809
  165SOPE  H11Y18601   7.316   3.347   9.177 -0.6266  0.2700 -0.6989
  165SOPE  C31218602   7.246   3.522   9.070  0.3305 -0.5640 -0.7088
  165SOPE  H12X18603   7.341   3.568   9.105  0.1162 -0.3897 -0.3484
  165SOPE  H12Y18604   7.166   3.599   9.075 -0.0070 -0.9426 -0.0703
  165SOPE  C31318605   7.267   3.485   8.924 -0.0733 -0.2105 -0.4948
  165SOPE  H13X18606   7.176   3.437   8.883  0.0870  0.4758 -1.6958
  165SOPE  H13Y18607   7.341   3.402   8.914 -0.0266 -0.2609  0.2394
  165SOPE  C31418608   7.304   3.596   8.829  0.0039  0.2805 -0.1208
  165SOPE  H14X18609   7.404   3.631   8.863  0.2762 -0.0250 -0.5987
  165SOPE  H14Y18610   7.228   3.677   8.829  0.0715  0.3595  0.7957
  165SOPE  C31518611   7.309   3.558   8.682  0.0732  0.1988  0.3253
  165SOPE  H15X18612   7.209   3.526   8.643  0.3499 -0.9091  0.4937
  165SOPE  H15Y18613   7.369   3.466   8.667 -2.7145 -1.4354 -2.2304
  165SOPE  C31618614   7.370   3.672   8.598 -0.7198  0.1808  0.1674
  165SOPE  H16X18615   7.478   3.674   8.627 -0.2568  0.1760 -1.4655
  165SOPE  H16Y18616   7.330   3.772   8.624 -1.3721  0.1529 -0.6860
  165SOPE  C31718617   7.385   3.641   8.444  0.3129 -0.3166 -0.0154
  165SOPE  H17X18618   7.427   3.737   8.408 -0.7147 -0.3762 -1.4738
  165SOPE  H17Y18619   7.284   3.634   8.399  0.8878 -4.8074 -1.0609
  165SOPE  C31818620   7.468   3.527   8.400  0.0032  0.1524 -0.4386
  165SOPE  H18X18621   7.425   3.431   8.436  0.4959  0.0928  0.0039
  165SOPE  H18Y18622   7.574   3.539   8.433  0.2389  1.8977 -1.6886
  165SOPE  H18Z18623   7.469   3.526   8.289 -0.2880  2.3107 -0.5048
  166SOPE     N18624   0.159   6.736  11.068 -0.5037 -0.2133 -0.3344
  166SOPE   HN118625   0.246   6.788  11.046 -0.2757 -1.2633 -2.0764
  166SOPE   HN218626   0.093   6.784  11.132 -0.5406 -0.0003 -0.5309
  166SOPE   HN318627   0.175   6.641  11.108 -1.9537 -0.1367  0.4800
  166SOPE   C1218628   0.076   6.719  10.949 -0.6936 -0.3560  0.5353
  166SOPE  H12A18629  -0.027   6.690  10.980 -0.5672 -0.3900  0.9321
  166SOPE  H12B18630   0.120   6.635  10.891  3.0063 -0.7778  3.5513
  166SOPE   C1118631   0.067   6.849  10.858  0.8541  0.8909 -0.2911
  166SOPE  H11A18632   0.168   6.869  10.817  1.2564 -1.5967 -0.6825
  166SOPE  H11B18633   0.043   6.939  10.919 -0.0962 -0.4373  1.3672
  166SOPE     P18634  -0.194   6.834  10.780 -0.1679 -0.2801 -0.0167
  166SOPE   O1318635  -0.224   6.877  10.919 -0.3478  0.3578 -0.1557
  166SOPE   O1418636  -0.236   6.695  10.744  0.1986 -0.0663  0.0652
  166SOPE   O1218637  -0.036   6.830  10.757 -0.0434 -0.1654 -0.0340
  166SOPE   O1118638  -0.238   6.943  10.675 -0.1284 -0.7342  0.3713
  166SOPE    C118639  -0.152   7.046  10.632  0.3241 -0.2751 -0.1165
  166SOPE    HA18640  -0.045   7.036  10.661  0.2999  0.2705  0.1528
  166SOPE    HB18641  -0.190   7.141  10.675  1.0978 -0.2976  0.6468
  166SOPE    C218642  -0.143   7.030  10.477  0.1923  0.0530 -0.2851
  166SOPE    HS18643  -0.087   7.115  10.433 -1.1017  0.8964 -0.3578
  166SOPE   O2118644  -0.277   7.038  10.415 -0.0328  0.1956 -0.0935
  166SOPE   C2118645  -0.337   7.152  10.419 -0.3455 -0.2005 -0.7612
  166SOPE   O2218646  -0.296   7.260  10.462 -0.2632  0.3510 -0.0101
  166SOPE   C2218647  -0.475   7.141  10.364 -0.0079  0.5925  0.1820
  166SOPE   H2R18648  -0.516   7.235  10.320 -3.2317 -1.3498 -1.2965
  166SOPE   H2S18649  -0.528   7.105  10.454 -3.5398  1.9248 -1.1972
  166SOPE    C318650  -0.072   6.905  10.432  0.4827  0.3252 -0.1487
  166SOPE    HX18651  -0.141   6.823  10.461 -1.0347  1.5054 -0.3089
  166SOPE    HY18652   0.019   6.885  10.492  0.2617  1.7045  0.6713
  166SOPE   O3118653  -0.049   6.912  10.292 -0.3011  0.4204  0.5405
  166SOPE   C3118654  -0.130   6.844  10.211  0.3762  0.5092 -0.2042
  166SOPE   O3218655  -0.220   6.759  10.235  0.1382  0.3984 -0.5550
  166SOPE   C3218656  -0.086   6.895  10.072 -0.4166  0.3299 -0.1279
  166SOPE   H2X18657   0.025   6.904  10.069 -0.1642 -2.1042 -0.1910
  166SOPE   H2Y18658  -0.122   6.999  10.053 -0.2598  0.0110 -2.5268
  166SOPE   C2318659  -0.502   7.033  10.261  0.3956 -0.0656  0.3370
  166SOPE   H3R18660  -0.607   6.998  10.262  1.0143 -2.1319  2.0518
  166SOPE   H3S18661  -0.437   6.943  10.273 -2.1863 -1.8057  2.5929
  166SOPE   C2418662  -0.480   7.086  10.121 -0.2478 -0.4230 -0.2993
  166SOPE   H4R18663  -0.554   7.167  10.109 -0.2540 -0.3741  0.0594
  166SOPE   H4S18664  -0.377   7.121  10.099 -0.6648  0.4427 -0.9149
  166SOPE   C2518665  -0.513   6.996  10.001 -0.0362 -0.1105  0.0720
  166SOPE   H5R18666  -0.434   6.918  10.001  0.6372  0.5413 -1.3519
  166SOPE   H5S18667  -0.615   6.951  10.005 -0.7411  1.4147 -0.0462
  166SOPE   C2618668  -0.512   7.071   9.866  0.0649 -1.0149  0.1644
  166SOPE   H6R18669  -0.585   7.156   9.862  1.3018  0.1072  0.6318
  166SOPE   H6S18670  -0.411   7.117   9.871  0.5751 -2.1974  1.0402
  166SOPE   C2718671  -0.540   6.985   9.742  0.1232  0.0928 -0.5193
  166SOPE   H7R18672  -0.469   6.899   9.737 -1.0776 -0.9076 -1.0744
  166SOPE   H7S18673  -0.643   6.943   9.749  0.7036 -1.3343 -0.2166
  166SOPE   C2818674  -0.547   7.073   9.614  0.1024 -0.3788 -0.2262
  166SOPE   H8R18675  -0.621   7.155   9.629 -0.4804 -0.3998 -2.6683
  166SOPE   H8S18676  -0.445   7.116   9.608 -0.9602  2.6755  1.1277
  166SOPE   C2918677  -0.598   6.998   9.499  0.0433 -0.5141 -0.8498
  166SOPE   H9118678  -0.610   6.890   9.513  1.6318 -0.5883  0.2119
  166SOPE  C21018679  -0.600   7.043   9.374 -0.5581  0.2075  0.0486
  166SOPE  H10118680  -0.642   6.977   9.297  0.9523 -0.6781 -0.0663
  166SOPE  C21118681  -0.563   7.179   9.329 -0.3838 -0.1079  0.5123
  166SOPE  H11R18682  -0.551   7.254   9.411 -1.3292  1.1861 -0.4894
  166SOPE  H11S18683  -0.642   7.232   9.272  0.1446 -0.6793 -0.7855
  166SOPE  C21218684  -0.427   7.184   9.244 -0.2042 -0.4819 -0.2075
  166SOPE  H12R18685  -0.344   7.125   9.288  0.8595  1.3024  0.2771
  166SOPE  H12S18686  -0.393   7.290   9.242  0.7182 -0.7877 -1.4704
  166SOPE  C21318687  -0.439   7.155   9.096  0.6618 -0.4068  0.9890
  166SOPE  H13R18688  -0.473   7.049   9.093  0.6034 -0.5352  3.5188
  166SOPE  H13S18689  -0.333   7.156   9.062 -0.2205 -1.0314 -2.0247
  166SOPE  C21418690  -0.532   7.240   9.007 -0.2417  0.3619  0.0459
  166SOPE  H14R18691  -0.535   7.339   9.057 -1.4596 -0.0093  0.7458
  166SOPE  H14S18692  -0.634   7.198   9.017  0.1927 -0.8882 -0.5617
  166SOPE  C21518693  -0.479   7.253   8.856 -0.4525  0.0331  0.2360
  166SOPE  H15R18694  -0.554   7.305   8.794  0.5266  1.5246  0.2593
  166SOPE  H15S18695  -0.466   7.149   8.820 -0.5153 -0.2878  1.0953
  166SOPE  C21618696  -0.341   7.315   8.835  0.5758  0.0727  0.3537
  166SOPE  H16R18697  -0.267   7.259   8.897  0.6429  0.8615  1.0031
  166SOPE  H16S18698  -0.345   7.415   8.882 -0.0193  0.9451 -1.4547
  166SOPE  C21718699  -0.302   7.313   8.689  0.3386 -0.3784 -0.3881
  166SOPE  H17R18700  -0.392   7.361   8.643  0.1795 -1.6257 -1.4346
  166SOPE  H17S18701  -0.306   7.208   8.653 -1.3657 -0.2892 -0.5703
  166SOPE  C21818702  -0.177   7.385   8.635 -0.8307  0.3041 -0.9740
  166SOPE  H18R18703  -0.176   7.493   8.661  2.3289  0.2501 -0.5675
  166SOPE  H18S18704  -0.180   7.360   8.527 -0.1068 -1.0268 -0.7054
  166SOPE  H18T18705  -0.084   7.345   8.679 -0.6197  0.8939 -0.8682
  166SOPE   C3318706  -0.148   6.811   9.953 -0.4589 -0.1405  0.2541
  166SOPE   H3X18707  -0.252   6.782   9.982 -0.9565  0.6542 -0.6612
  166SOPE   H3Y18708  -0.080   6.726   9.931 -0.6569 -0.5079  1.0258
  166SOPE   C3418709  -0.148   6.889   9.816 -0.2409 -0.2460  0.2917
  166SOPE   H4X18710  -0.047   6.927   9.791 -1.0290  0.7968 -1.4678
  166SOPE   H4Y18711  -0.229   6.965   9.822 -0.9878 -1.1244  2.3672
  166SOPE   C3518712  -0.190   6.788   9.702  0.4372  0.0530 -0.2711
  166SOPE   H5X18713  -0.291   6.752   9.729  0.6262 -0.1228  0.2124
  166SOPE   H5Y18714  -0.115   6.707   9.703  1.2725  0.7828 -1.2113
  166SOPE   C3618715  -0.191   6.860   9.560  0.2631  0.1261 -0.1937
  166SOPE   H6X18716  -0.083   6.870   9.540  0.5454 -0.4461  0.9423
  166SOPE   H6Y18717  -0.251   6.953   9.573 -2.0799 -1.2555 -0.5050
  166SOPE   C3718718  -0.254   6.769   9.456 -0.0452  0.7600  0.3867
  166SOPE   H7X18719  -0.361   6.769   9.485 -0.1587  3.1169  0.0857
  166SOPE   H7Y18720  -0.223   6.662   9.459 -1.2274  0.3994  0.2958
  166SOPE   C3818721  -0.231   6.815   9.310  0.2512  0.0420 -0.8572
  166SOPE   H8X18722  -0.123   6.794   9.290  0.2284 -0.5359 -0.4010
  166SOPE   H8Y18723  -0.231   6.926   9.313 -2.5577  0.0937  0.3575
  166SOPE   C3918724  -0.330   6.746   9.218 -0.6439  0.7166  0.0609
  166SOPE   H9X18725  -0.437   6.768   9.241 -1.0388 -1.6971  0.7857
  166SOPE   H9Y18726  -0.318   6.636   9.228  3.4092  1.1719  2.4002
  166SOPE  C31018727  -0.304   6.786   9.069 -0.1626 -0.0830 -0.2663
  166SOPE  H10X18728  -0.220   6.723   9.033 -0.5581 -0.8267  0.0718
  166SOPE  H10Y18729  -0.274   6.893   9.069  4.4812 -1.1721 -0.7783
  166SOPE  C31118730  -0.427   6.752   8.983 -0.5626  0.2640 -0.9962
  166SOPE  H11X18731  -0.519   6.791   9.031  0.4300 -0.7212  1.9545
  166SOPE  H11Y18732  -0.450   6.645   8.960  1.1245 -0.4723  0.5110
  166SOPE  C31218733  -0.420   6.824   8.850 -0.6637  0.9751 -0.6139
  166SOPE  H12X18734  -0.411   6.932   8.874 -1.2968  1.1326 -1.0737
  166SOPE  H12Y18735  -0.516   6.819   8.794  0.4338 -0.1998 -2.5374
  166SOPE  C31318736  -0.300   6.779   8.756 -0.0884 -0.4697 -0.3321
  166SOPE  H13X18737  -0.326   6.685   8.702 -0.5186 -0.4792 -0.1139
  166SOPE  H13Y18738  -0.210   6.775   8.821 -2.1995  2.1111  3.1263
  166SOPE  C31418739  -0.263   6.887   8.648 -0.2138  0.1418  0.2539
  166SOPE  H14X18740  -0.202   6.973   8.685 -0.3287  0.1760  0.3658
  166SOPE  H14Y18741  -0.355   6.935   8.609  0.8859  2.9745  0.8438
  166SOPE  C31518742  -0.193   6.821   8.530 -0.2687  0.2795 -0.3542
  166SOPE  H15X18743  -0.244   6.729   8.497  1.4152 -1.1290  0.7619
  166SOPE  H15Y18744  -0.093   6.780   8.559  0.1762  1.3980 -0.2587
  166SOPE  C31618745  -0.180   6.916   8.405 -0.1836 -0.1706  0.4177
  166SOPE  H16X18746  -0.119   7.005   8.433  1.2389 -0.6567 -1.0287
  166SOPE  H16Y18747  -0.282   6.953   8.380  0.4326  1.0434 -0.4118
  166SOPE  C31718748  -0.113   6.843   8.285 -0.5319  0.2334 -0.7505
  166SOPE  H17X18749  -0.158   6.742   8.278 -0.9605  0.4545 -1.2252
  166SOPE  H17Y18750  -0.004   6.826   8.300 -0.2539  1.9896 -0.5042
  166SOPE  C31818751  -0.139   6.915   8.153 -0.0463  0.2872  0.3628
  166SOPE  H18X18752  -0.242   6.946   8.125 -0.5694 -0.6339  1.2099
  166SOPE  H18Y18753  -0.121   6.851   8.063  0.3450  0.8054  0.0712
  166SOPE  H18Z18754  -0.066   6.996   8.130  0.3761 -0.0269  0.5837
  167SOPE     N18755   4.041   5.221   5.971  0.5815 -0.0064 -0.1432
  167SOPE   HN118756   3.973   5.297   5.946 -1.1545 -2.3482 -3.2664
  167SOPE   HN218757   4.102   5.205   5.889 -0.7777 -0.7704 -1.0454
  167SOPE   HN318758   3.971   5.144   5.974 -0.1991  0.6030 -1.4852
  167SOPE   C1218759   4.116   5.250   6.101 -0.2675  0.0040  0.0493
  167SOPE  H12A18760   4.195   5.322   6.071  1.1475 -1.0664  1.0466
  167SOPE  H12B18761   4.175   5.158   6.121  0.3508  0.0644 -1.3679
  167SOPE   C1118762   4.021   5.293   6.222 -0.3618 -0.4042  0.0212
  167SOPE  H11A18763   4.083   5.311   6.312  0.5344 -0.6485 -0.5341
  167SOPE  H11B18764   3.947   5.210   6.230 -3.4277  2.0764 -0.7538
  167SOPE     P18765   4.007   5.551   6.221 -0.0292  0.1097  0.1326
  167SOPE   O1318766   3.954   5.650   6.129 -0.0631 -1.1395  0.1519
  167SOPE   O1418767   4.153   5.535   6.236  0.4513  0.7405  0.4931
  167SOPE   O1218768   3.948   5.408   6.184  0.1439 -0.5536 -0.3096
  167SOPE   O1118769   3.952   5.568   6.361  0.7510  0.3859 -0.4214
  167SOPE    C118770   4.025   5.634   6.463  0.6340  0.2878 -0.1624
  167SOPE    HA18771   3.958   5.700   6.522  1.5537  1.1454 -0.0516
  167SOPE    HB18772   4.115   5.688   6.425  1.7197  1.3179  3.4618
  167SOPE    C218773   4.074   5.526   6.568  0.3313 -0.0592  0.4081
  167SOPE    HS18774   4.119   5.438   6.516 -2.6621 -2.6883  1.8840
  167SOPE   O2118775   3.957   5.489   6.641  0.7741  0.2426 -0.6946
  167SOPE   C2118776   3.956   5.367   6.696 -0.1880 -0.1743  0.5777
  167SOPE   O2218777   4.046   5.286   6.689 -0.6760  0.4825 -0.2367
  167SOPE   C2218778   3.830   5.380   6.793  0.3197 -0.1401  0.4750
  167SOPE   H2R18779   3.746   5.408   6.726 -0.3874  1.4179  1.9457
  167SOPE   H2S18780   3.853   5.467   6.859 -1.5211  0.9562 -0.2841
  167SOPE    C318781   4.178   5.591   6.668  0.5975 -0.0244 -0.2233
  167SOPE    HX18782   4.131   5.679   6.716 -0.9088 -0.5840 -0.6150
  167SOPE    HY18783   4.255   5.633   6.600  0.6342 -1.4367 -1.1050
  167SOPE   O3118784   4.224   5.497   6.771  0.0679 -0.2448 -0.5664
  167SOPE   C3118785   4.344   5.442   6.741  0.1135  0.1568  0.4155
  167SOPE   O3218786   4.398   5.457   6.632 -0.9469 -0.0755 -0.2311
  167SOPE   C3218787   4.400   5.357   6.861 -0.0914 -0.0309  0.8527
  167SOPE   H2X18788   4.506   5.340   6.834 -0.3008 -0.4813  0.3167
  167SOPE   H2Y18789   4.340   5.264   6.851 -0.3408  0.3890 -3.5134
  167SOPE   C2318790   3.815   5.252   6.878  0.6287  0.3591 -0.2107
  167SOPE   H3R18791   3.877   5.168   6.842  0.1684  0.5033 -1.3769
  167SOPE   H3S18792   3.708   5.220   6.873  0.5269  0.6288  0.1435
  167SOPE   C2418793   3.837   5.268   7.028  0.0070 -0.4177 -0.1274
  167SOPE   H4R18794   3.761   5.338   7.069  0.1338 -0.4087  0.0933
  167SOPE   H4S18795   3.825   5.170   7.078 -0.6359  0.3045  1.1605
  167SOPE   C2518796   3.971   5.326   7.071  0.0416 -0.1481  0.1965
  167SOPE   H5R18797   4.049   5.284   7.004  0.0107  2.4699 -1.6543
  167SOPE   H5S18798   3.966   5.436   7.057  0.3887 -0.3723 -2.0651
  167SOPE   C2618799   4.015   5.286   7.214  0.6344  0.2279  0.7287
  167SOPE   H6R18800   4.012   5.175   7.223 -2.0741  0.2176  0.4494
  167SOPE   H6S18801   4.122   5.316   7.225  0.5550  1.1073 -0.7077
  167SOPE   C2718802   3.929   5.361   7.311  0.1269 -0.8773  0.4039
  167SOPE   H7R18803   3.922   5.465   7.273 -0.7966 -0.4158  1.7532
  167SOPE   H7S18804   3.823   5.328   7.303 -1.2853  3.3500 -0.9047
  167SOPE   C2818805   3.979   5.364   7.457  0.3589  0.4192  0.0884
  167SOPE   H8R18806   3.944   5.269   7.503 -0.7709 -0.3050 -2.1229
  167SOPE   H8S18807   4.089   5.360   7.442  0.2109  2.1385 -2.0112
  167SOPE   C2918808   3.927   5.487   7.525 -0.1308 -0.0299 -0.0581
  167SOPE   H9118809   3.893   5.571   7.462 -1.3817  1.5517  2.5531
  167SOPE  C21018810   3.916   5.501   7.654  0.8755  0.3005 -1.3292
  167SOPE  H10118811   3.861   5.587   7.695  1.5731 -0.8173  2.3497
  167SOPE  C21118812   3.961   5.396   7.757  0.9503 -0.1185  0.0478
  167SOPE  H11R18813   4.039   5.333   7.709  0.0722 -0.3584 -1.1200
  167SOPE  H11S18814   3.869   5.337   7.775 -0.4338  0.7461 -3.4009
  167SOPE  C21218815   4.007   5.475   7.878 -0.1162  0.3556 -0.4988
  167SOPE  H12R18816   4.074   5.558   7.845  0.0320 -0.2996 -1.9350
  167SOPE  H12S18817   4.073   5.417   7.946 -1.0280 -0.7480 -0.5373
  167SOPE  C21318818   3.886   5.527   7.965 -0.3035  0.6765 -0.0331
  167SOPE  H13R18819   3.831   5.439   8.004 -1.0330  1.8877  1.8531
  167SOPE  H13S18820   3.816   5.584   7.900  1.6778  2.8672 -0.3926
  167SOPE  C21418821   3.949   5.620   8.068 -0.3449 -0.4639  0.0113
  167SOPE  H14R18822   3.877   5.684   8.123 -1.6217 -1.5440 -0.3557
  167SOPE  H14S18823   4.002   5.697   8.008 -0.7935 -1.0642 -1.1879
  167SOPE  C21518824   4.037   5.556   8.166  0.1154 -0.3264 -0.2512
  167SOPE  H15R18825   4.129   5.528   8.111  0.6504  1.6338 -0.4203
  167SOPE  H15S18826   3.992   5.470   8.221  0.9527  0.9481  2.5690
  167SOPE  C21618827   4.096   5.646   8.279 -0.0087 -0.2677  0.1605
  167SOPE  H16R18828   4.020   5.679   8.352 -0.7342 -0.3413 -0.5496
  167SOPE  H16S18829   4.124   5.742   8.230 -1.2167  1.1647  2.1486
  167SOPE  C21718830   4.221   5.587   8.329  0.7300  0.5112  0.6272
  167SOPE  H17R18831   4.304   5.592   8.254  0.8338  1.4231  0.7926
  167SOPE  H17S18832   4.197   5.481   8.353 -0.2195  0.7703  0.8252
  167SOPE  C21818833   4.278   5.670   8.445  0.5683 -0.1132 -0.9363
  167SOPE  H18R18834   4.343   5.607   8.510  1.0897  1.2625 -0.0854
  167SOPE  H18S18835   4.192   5.710   8.502  0.6704 -0.7110 -0.3452
  167SOPE  H18T18836   4.338   5.758   8.412 -0.7577  0.2067 -2.6327
  167SOPE   C3318837   4.390   5.426   7.000 -0.1483 -0.6550  0.5522
  167SOPE   H3X18838   4.288   5.471   6.999 -0.8726 -2.0987 -2.1390
  167SOPE   H3Y18839   4.464   5.508   6.993 -1.2137  0.3669  1.0526
  167SOPE   C3418840   4.397   5.334   7.121  0.6841  0.7632  0.2395
  167SOPE   H4X18841   4.485   5.272   7.095 -1.0838 -1.5459 -0.6107
  167SOPE   H4Y18842   4.308   5.269   7.131 -0.0904  1.5896 -0.8698
  167SOPE   C3518843   4.410   5.424   7.243 -0.3993  0.4327  0.2677
  167SOPE   H5X18844   4.335   5.506   7.237  0.2607  1.0486  0.2110
  167SOPE   H5Y18845   4.509   5.474   7.232 -0.3473  0.0357 -1.1837
  167SOPE   C3618846   4.403   5.351   7.375  0.3001  0.1625  0.3693
  167SOPE   H6X18847   4.472   5.265   7.360  1.6724  0.7586  2.7066
  167SOPE   H6Y18848   4.303   5.311   7.401  0.1972 -1.2857 -1.9919
  167SOPE   C3718849   4.443   5.443   7.483  0.4033 -0.9207  0.0289
  167SOPE   H7X18850   4.403   5.545   7.463  0.0369 -0.9470  0.5962
  167SOPE   H7Y18851   4.552   5.459   7.483  0.2625  0.2250 -1.1312
  167SOPE   C3818852   4.385   5.381   7.615  0.1158 -0.1948 -0.7015
  167SOPE   H8X18853   4.420   5.276   7.609 -0.3557 -0.2845 -2.3467
  167SOPE   H8Y18854   4.274   5.385   7.619  0.0362 -1.7906 -0.8949
  167SOPE   C3918855   4.437   5.448   7.736  0.1448 -0.2064 -0.6891
  167SOPE   H9X18856   4.390   5.549   7.734  2.4848  0.9685 -0.0701
  167SOPE   H9Y18857   4.547   5.459   7.730  0.2473 -0.8624 -0.1454
  167SOPE  C31018858   4.421   5.370   7.864 -0.8278 -0.3554 -0.0451
  167SOPE  H10X18859   4.455   5.265   7.856  0.1807 -0.1183  0.8531
  167SOPE  H10Y18860   4.315   5.368   7.895 -0.4951  0.7924  1.2537
  167SOPE  C31118861   4.490   5.429   7.988  0.0892 -0.6605 -0.3502
  167SOPE  H11X18862   4.472   5.539   7.987 -1.1301 -0.8300  0.4125
  167SOPE  H11Y18863   4.599   5.416   7.973  0.4107  0.4598  0.8556
  167SOPE  C31218864   4.449   5.375   8.130 -0.2316  0.2401 -0.8399
  167SOPE  H12X18865   4.436   5.265   8.122 -2.1597  0.5835 -5.3758
  167SOPE  H12Y18866   4.346   5.417   8.140  0.4830  1.4112  3.7620
  167SOPE  C31318867   4.544   5.421   8.250 -0.0058  0.1481 -0.2591
  167SOPE  H13X18868   4.508   5.390   8.350  0.8761 -0.6993 -0.1961
  167SOPE  H13Y18869   4.552   5.532   8.252 -1.5719  0.3779 -2.4649
  167SOPE  C31418870   4.682   5.358   8.230 -0.4110  0.7504  0.1840
  167SOPE  H14X18871   4.722   5.401   8.136 -0.4328 -0.9295 -0.6171
  167SOPE  H14Y18872   4.675   5.247   8.230 -2.5393  0.8374  1.3880
  167SOPE  C31518873   4.782   5.380   8.347 -0.0162  0.0712  0.3071
  167SOPE  H15X18874   4.750   5.345   8.447 -1.1284 -1.6138 -0.5808
  167SOPE  H15Y18875   4.804   5.488   8.356 -1.6547  0.4069  0.5928
  167SOPE  C31618876   4.917   5.306   8.312 -0.5152 -0.1626 -0.4826
  167SOPE  H16X18877   4.966   5.363   8.230 -2.2173  1.6686 -0.3127
  167SOPE  H16Y18878   4.908   5.200   8.279 -1.3467  0.5418 -2.7767
  167SOPE  C31718879   5.003   5.315   8.441 -0.6262 -1.0386  0.4318
  167SOPE  H17X18880   4.965   5.241   8.515 -1.7085 -1.2831 -0.3406
  167SOPE  H17Y18881   4.990   5.416   8.485 -0.9559  0.1746 -2.2704
  167SOPE  C31818882   5.152   5.287   8.420 -0.1049 -0.1642  0.2599
  167SOPE  H18X18883   5.159   5.179   8.396 -1.1486 -0.5840  1.7278
  167SOPE  H18Y18884   5.210   5.311   8.512 -0.3683 -0.0175  0.3891
  167SOPE  H18Z18885   5.205   5.340   8.337  1.1774 -2.4942 -0.4867
  168SOPE     N18886   4.726   6.793   6.412  0.1101  0.2130  0.5068
  168SOPE   HN118887   4.680   6.863   6.473 -0.6847  0.0605  0.0923
  168SOPE   HN218888   4.675   6.702   6.411  1.8029 -0.7846 -0.4658
  168SOPE   HN318889   4.826   6.776   6.436  0.3619  1.1737  0.1825
  168SOPE   C1218890   4.726   6.850   6.268  0.2103 -0.4598  0.4662
  168SOPE  H12A18891   4.739   6.959   6.283 -0.1258 -0.5523  1.4986
  168SOPE  H12B18892   4.626   6.834   6.222  0.8282 -1.0467 -0.7304
  168SOPE   C1118893   4.848   6.795   6.183 -0.4266  0.1634 -0.4950
  168SOPE  H11A18894   4.939   6.842   6.227 -2.2112  1.4937  2.0442
  168SOPE  H11B18895   4.843   6.827   6.077  1.1340 -2.3117 -1.3970
  168SOPE     P18896   4.976   6.577   6.215 -0.1057 -0.1400  0.1353
  168SOPE   O1318897   5.091   6.635   6.144 -0.0491 -0.1526  0.0533
  168SOPE   O1418898   4.955   6.437   6.184 -0.4086 -1.0506 -0.1456
  168SOPE   O1218899   4.844   6.656   6.177  0.1303  0.9711  0.7130
  168SOPE   O1118900   4.985   6.600   6.369 -0.2533  0.2045 -0.2208
  168SOPE    C118901   5.118   6.607   6.425 -0.0305 -0.4914 -0.5220
  168SOPE    HA18902   5.105   6.633   6.532 -1.6301  1.7627 -1.1897
  168SOPE    HB18903   5.187   6.687   6.390  1.9606 -0.8228  2.3656
  168SOPE    C218904   5.200   6.478   6.442  0.4623 -0.0113 -0.0861
  168SOPE    HS18905   5.234   6.444   6.342  3.4360 -2.0489  1.4434
  168SOPE   O2118906   5.110   6.379   6.495  0.0847 -0.0318  0.2811
  168SOPE   C2118907   5.172   6.262   6.496  0.4221  0.0628  0.3141
  168SOPE   O2218908   5.278   6.241   6.442  0.6246 -0.0108  0.4568
  168SOPE   C2218909   5.071   6.165   6.558 -0.3879 -0.1681  0.7757
  168SOPE   H2R18910   5.028   6.111   6.471 -0.0050 -0.3495  0.6968
  168SOPE   H2S18911   4.979   6.209   6.602 -0.4765  1.2450 -0.7189
  168SOPE    C318912   5.329   6.506   6.531 -0.5617 -0.5851  0.1955
  168SOPE    HX18913   5.366   6.610   6.521 -0.0947 -0.6845  0.8595
  168SOPE    HY18914   5.412   6.446   6.487  1.7934  0.5397  2.8294
  168SOPE   O3118915   5.309   6.464   6.674  0.0443 -0.1359  0.7824
  168SOPE   C3118916   5.334   6.555   6.770 -0.1589 -0.2725 -0.2259
  168SOPE   O3218917   5.391   6.657   6.751 -0.8892 -0.4987 -0.1257
  168SOPE   C3218918   5.252   6.512   6.893  0.0502  1.0562 -0.0014
  168SOPE   H2X18919   5.281   6.406   6.910 -0.2679  0.7663 -1.1603
  168SOPE   H2Y18920   5.144   6.514   6.871  0.1215 -0.3366 -0.6021
  168SOPE   C2318921   5.134   6.062   6.660 -0.1389 -1.4177 -0.3012
  168SOPE   H3R18922   5.207   5.998   6.606  0.7461 -2.1218  1.6384
  168SOPE   H3S18923   5.054   5.992   6.694 -0.4837 -0.1242  1.6939
  168SOPE   C2418924   5.184   6.137   6.784 -0.5993  0.1899  0.5465
  168SOPE   H4R18925   5.266   6.206   6.755  0.4532 -0.6680  1.4020
  168SOPE   H4S18926   5.098   6.199   6.820 -0.7793  0.4713 -0.3386
  168SOPE   C2518927   5.225   6.031   6.889  0.2454  0.0468  0.2988
  168SOPE   H5R18928   5.128   5.983   6.915 -0.1682  1.2753  1.1228
  168SOPE   H5S18929   5.282   5.947   6.844 -0.3746 -0.8813  1.1773
  168SOPE   C2618930   5.298   6.108   6.999 -0.0894 -0.6887 -0.2946
  168SOPE   H6R18931   5.375   6.175   6.955  0.3384 -1.2771 -0.4479
  168SOPE   H6S18932   5.217   6.160   7.054  1.4269  0.5540  0.8921
  168SOPE   C2718933   5.377   6.030   7.115  0.0422  0.5966 -0.3175
  168SOPE   H7R18934   5.296   5.964   7.152 -1.9387  0.6585 -4.0497
  168SOPE   H7S18935   5.442   5.982   7.038 -0.1995  1.0615 -0.8204
  168SOPE   C2818936   5.453   6.130   7.196  0.5339 -0.0086 -0.3483
  168SOPE   H8R18937   5.479   6.216   7.130 -3.5128  0.7326 -1.2478
  168SOPE   H8S18938   5.406   6.174   7.286  0.6005 -1.7535  0.5721
  168SOPE   C2918939   5.579   6.072   7.247 -0.2916 -0.1640  0.0034
  168SOPE   H9118940   5.655   6.075   7.167 -0.2059  0.9325  0.1034
  168SOPE  C21018941   5.594   6.004   7.360  0.5717  0.0655 -0.5848
  168SOPE  H10118942   5.692   5.956   7.376  0.7325  0.6689  0.3104
  168SOPE  C21118943   5.501   5.974   7.475 -0.0334  0.0384  0.4546
  168SOPE  H11R18944   5.431   6.059   7.492  1.1045  1.0106  0.4228
  168SOPE  H11S18945   5.561   5.968   7.568  0.6495  0.9701  0.0933
  168SOPE  C21218946   5.412   5.852   7.453 -0.1013  0.2026 -0.6143
  168SOPE  H12R18947   5.375   5.873   7.351  1.1904  2.3462 -0.7001
  168SOPE  H12S18948   5.326   5.871   7.520  0.4933  0.5519  0.0721
  168SOPE  C21318949   5.467   5.709   7.462 -0.2117  0.5535 -0.1551
  168SOPE  H13R18950   5.488   5.685   7.568 -0.3095 -0.6491 -0.3953
  168SOPE  H13S18951   5.555   5.684   7.399 -1.2057 -1.8392 -0.7230
  168SOPE  C21418952   5.361   5.617   7.405 -0.6423  0.1450  0.1431
  168SOPE  H14R18953   5.367   5.617   7.294  1.9520  2.7993  0.1637
  168SOPE  H14S18954   5.261   5.635   7.449 -1.3306  0.3202 -1.4290
  168SOPE  C21518955   5.380   5.468   7.462  0.9759  0.0333  0.4143
  168SOPE  H15R18956   5.362   5.472   7.571  0.1761  0.1008  0.2850
  168SOPE  H15S18957   5.477   5.419   7.439  1.0660  0.7527 -0.8630
  168SOPE  C21618958   5.270   5.371   7.417  0.3972 -0.2413  0.9083
  168SOPE  H16R18959   5.306   5.334   7.319 -0.8242  3.9256 -1.3505
  168SOPE  H16S18960   5.168   5.414   7.421  0.0665 -0.9184  0.0316
  168SOPE  C21718961   5.266   5.244   7.508 -0.3353 -0.3616  0.4860
  168SOPE  H17R18962   5.365   5.216   7.550  0.5204  0.1804 -1.1132
  168SOPE  H17S18963   5.225   5.157   7.452 -1.6788  0.0700  0.7462
  168SOPE  C21818964   5.178   5.264   7.636  0.6539 -0.2631  0.1991
  168SOPE  H18R18965   5.236   5.318   7.714 -0.4665  0.0899  0.8068
  168SOPE  H18S18966   5.131   5.171   7.673  1.9163 -0.4857  1.3036
  168SOPE  H18T18967   5.099   5.335   7.600  2.2890  0.2427 -2.7585
  168SOPE   C3318968   5.290   6.594   7.012  0.2651 -0.1794 -0.5279
  168SOPE   H3X18969   5.250   6.698   7.005 -0.1679 -0.3488 -0.6319
  168SOPE   H3Y18970   5.399   6.610   7.020  0.4008 -1.3727  0.1003
  168SOPE   C3418971   5.234   6.525   7.148 -0.0133  0.0736  0.5435
  168SOPE   H4X18972   5.281   6.424   7.140 -1.1488 -0.3462 -1.9644
  168SOPE   H4Y18973   5.125   6.503   7.148  0.0434 -0.2204  1.3788
  168SOPE   C3518974   5.284   6.605   7.270  0.0305 -1.0857 -0.1599
  168SOPE   H5X18975   5.225   6.698   7.280 -0.3121 -1.4971  2.4481
  168SOPE   H5Y18976   5.392   6.629   7.260 -0.3782  0.3363 -1.3505
  168SOPE   C3618977   5.260   6.526   7.398  0.0460  0.9788 -0.5879
  168SOPE   H6X18978   5.320   6.433   7.398 -0.8002  0.3380  2.0812
  168SOPE   H6Y18979   5.158   6.482   7.395 -0.2162  1.5926 -1.0152
  168SOPE   C3718980   5.288   6.586   7.530  0.8828 -0.0712 -0.7439
  168SOPE   H7X18981   5.215   6.669   7.530  1.3581  0.4458  1.8919
  168SOPE   H7Y18982   5.395   6.610   7.546  0.8470 -1.0643  1.4251
  168SOPE   C3818983   5.237   6.497   7.649 -0.2069 -0.3113 -0.7847
  168SOPE   H8X18984   5.252   6.389   7.630  2.1421  0.1252 -1.7470
  168SOPE   H8Y18985   5.128   6.510   7.666  0.2844  0.5432  2.3040
  168SOPE   C3918986   5.302   6.542   7.778  0.4662  0.3708  0.1851
  168SOPE   H9X18987   5.262   6.643   7.801  0.0628  0.7300 -1.9393
  168SOPE   H9Y18988   5.413   6.542   7.776  0.5860 -1.2883  2.2015
  168SOPE  C31018989   5.256   6.450   7.897 -0.3753  0.3596  0.3794
  168SOPE  H10X18990   5.260   6.344   7.866  1.5669  0.7849 -1.0690
  168SOPE  H10Y18991   5.148   6.465   7.914  0.0371  0.6094  3.3855
  168SOPE  C31118992   5.329   6.477   8.029  0.4882  0.1751 -0.5416
  168SOPE  H11X18993   5.439   6.486   8.014  0.0612  0.2174 -4.4235
  168SOPE  H11Y18994   5.314   6.391   8.098 -0.1928  1.7831  1.4073
  168SOPE  C31218995   5.281   6.605   8.096  0.3793 -0.1778  0.0118
  168SOPE  H12X18996   5.190   6.581   8.155  0.7224  0.7967  0.9787
  168SOPE  H12Y18997   5.253   6.687   8.025  2.0472  3.7331  3.4774
  168SOPE  C31318998   5.381   6.668   8.193  0.7360 -0.3435  0.0821
  168SOPE  H13X18999   5.482   6.685   8.150  0.2250 -0.5211 -1.2309
  168SOPE  H13Y19000   5.383   6.586   8.269  0.3266  0.7628  1.3212
  168SOPE  C31419001   5.318   6.791   8.258  0.4375  0.1049  0.2896
  168SOPE  H14X19002   5.209   6.781   8.276 -0.1480 -1.8652 -3.3930
  168SOPE  H14Y19003   5.333   6.882   8.195 -3.2441  2.1763  2.0464
  168SOPE  C31519004   5.387   6.827   8.391  0.0442 -0.4131  1.1436
  168SOPE  H15X19005   5.495   6.840   8.369 -0.6307  2.5665 -0.9763
  168SOPE  H15Y19006   5.377   6.741   8.460  1.6757 -2.3255 -0.8497
  168SOPE  C31619007   5.325   6.945   8.469  0.0205 -0.1581  0.7251
  168SOPE  H16X19008   5.215   6.933   8.458 -0.1674  2.1778 -0.6972
  168SOPE  H16Y19009   5.361   7.038   8.420 -0.0341 -0.6355 -0.2661
  168SOPE  C31719010   5.354   6.943   8.617  0.3149  0.2167  0.1591
  168SOPE  H17X19011   5.448   6.887   8.635 -0.4203 -1.6139 -1.3882
  168SOPE  H17Y19012   5.278   6.876   8.662  0.5958 -1.7872 -2.0954
  168SOPE  C31819013   5.352   7.081   8.682 -0.7135  0.1895 -0.1357
  168SOPE  H18X19014   5.413   7.151   8.621  0.1776  1.4185  2.0598
  168SOPE  H18Y19015   5.404   7.087   8.779 -0.6346  2.2389 -0.2477
  168SOPE  H18Z19016   5.247   7.114   8.700 -1.1140 -0.2078 -1.5388
  169SOPE     N19017   0.741   3.675   6.163  0.2703  0.6722 -0.2951
  169SOPE   HN119018   0.796   3.598   6.120  1.2279  0.7583  0.7431
  169SOPE   HN219019   0.645   3.656   6.128  0.5858 -0.0838 -0.7962
  169SOPE   HN319020   0.772   3.766   6.125  0.4029  0.1466 -1.5236
  169SOPE   C1219021   0.743   3.673   6.322 -0.2729 -0.3611  0.6200
  169SOPE  H12A19022   0.689   3.582   6.356 -0.9268  0.1850  1.0701
  169SOPE  H12B19023   0.682   3.760   6.358 -1.1263 -1.3270  1.5799
  169SOPE   C1119024   0.886   3.687   6.366 -0.5592 -0.0286  0.2075
  169SOPE  H11A19025   0.895   3.686   6.477  1.8048 -2.9062  0.1007
  169SOPE  H11B19026   0.929   3.784   6.335  1.7823 -1.3174 -0.8173
  169SOPE     P19027   0.979   3.447   6.371  0.2750 -0.1013 -0.1770
  169SOPE   O1319028   1.118   3.402   6.346 -0.0632  0.9109  0.4046
  169SOPE   O1419029   0.862   3.379   6.315 -0.0306 -0.7529  0.1957
  169SOPE   O1219030   0.973   3.594   6.311  0.1542 -0.0171  0.7084
  169SOPE   O1119031   0.971   3.467   6.530  0.3185 -0.4338  0.2542
  169SOPE    C119032   0.848   3.436   6.600 -0.2352  0.2632 -1.0953
  169SOPE    HA19033   0.824   3.327   6.598  1.4318 -0.1459 -0.3981
  169SOPE    HB19034   0.762   3.494   6.559 -1.4613 -1.0857 -0.5455
  169SOPE    C219035   0.866   3.470   6.756 -0.3487  0.2815  0.8554
  169SOPE    HS19036   0.772   3.448   6.811  0.6570  0.2211  2.6179
  169SOPE   O2119037   0.886   3.612   6.765 -0.4357  0.3200 -0.7363
  169SOPE   C2119038   0.785   3.691   6.737  0.2198 -0.5612 -0.1749
  169SOPE   O2219039   0.671   3.656   6.702 -0.5735  0.3341 -0.4783
  169SOPE   C2219040   0.827   3.832   6.752  0.0701 -0.3259  0.2538
  169SOPE   H2R19041   0.862   3.863   6.652  1.4908 -0.0358  0.8167
  169SOPE   H2S19042   0.910   3.846   6.825  0.9961  0.5094 -0.9323
  169SOPE    C319043   0.990   3.398   6.823 -0.4754 -0.1525 -0.1761
  169SOPE    HX19044   1.087   3.415   6.773 -0.6658  1.3366 -0.0825
  169SOPE    HY19045   0.973   3.289   6.812  1.1985 -0.4638  0.0870
  169SOPE   O3119046   0.988   3.434   6.965  0.3969 -0.2906 -0.4683
  169SOPE   C3119047   1.064   3.525   7.017 -0.6009 -0.3052  0.3812
  169SOPE   O3219048   1.154   3.580   6.956 -0.0957  0.3251  0.3470
  169SOPE   C3219049   1.029   3.558   7.157 -0.0561  0.4506  0.3268
  169SOPE   H2X19050   0.962   3.480   7.200 -0.4204  1.4204  1.5956
  169SOPE   H2Y19051   0.958   3.643   7.159 -1.1376 -0.3607 -1.2763
  169SOPE   C2319052   0.709   3.920   6.791  0.2113 -0.3578 -0.5235
  169SOPE   H3R19053   0.634   3.910   6.710 -0.0336 -2.2933 -0.0933
  169SOPE   H3S19054   0.737   4.028   6.795 -1.8235  0.2599 -1.6105
  169SOPE   C2419055   0.641   3.885   6.918  0.4878 -0.1703 -0.6476
  169SOPE   H4R19056   0.550   3.949   6.918  1.3650  1.1203 -1.9950
  169SOPE   H4S19057   0.596   3.783   6.913  1.4475 -0.6724  0.4110
  169SOPE   C2519058   0.722   3.899   7.052 -0.6035  0.1596  0.3710
  169SOPE   H5R19059   0.819   3.845   7.048 -0.3809  0.6163 -0.6296
  169SOPE   H5S19060   0.741   4.008   7.056  3.0053 -0.3617  0.4194
  169SOPE   C2619061   0.652   3.841   7.172  0.1258 -0.3680 -0.3294
  169SOPE   H6R19062   0.552   3.888   7.189  0.3232  0.2290 -0.7701
  169SOPE   H6S19063   0.638   3.735   7.142  0.8710 -0.2745 -1.0531
  169SOPE   C2719064   0.747   3.833   7.293 -0.0631 -0.0156 -0.0521
  169SOPE   H7R19065   0.843   3.790   7.260  0.9708  0.6097  1.9604
  169SOPE   H7S19066   0.764   3.929   7.347  1.0792  0.3387 -1.0127
  169SOPE   C2819067   0.683   3.750   7.414  0.1715  0.5774  0.2786
  169SOPE   H8R19068   0.586   3.797   7.441 -0.4494  0.8499 -2.1504
  169SOPE   H8S19069   0.654   3.650   7.377 -0.2403  0.5590  0.6445
  169SOPE   C2919070   0.771   3.744   7.542  0.4675 -0.1646 -0.4153
  169SOPE   H9119071   0.802   3.845   7.571 -0.5168  0.0081  0.0800
  169SOPE  C21019072   0.817   3.640   7.604 -0.1021 -0.0403  0.5398
  169SOPE  H10119073   0.866   3.662   7.700  1.2305  3.5957 -0.8159
  169SOPE  C21119074   0.792   3.499   7.549  0.2887 -0.4600 -0.2992
  169SOPE  H11R19075   0.870   3.427   7.582  0.6714 -0.7879 -1.8357
  169SOPE  H11S19076   0.799   3.502   7.438 -0.6780  2.7161 -0.3826
  169SOPE  C21219077   0.652   3.444   7.581  0.1710 -0.6112 -0.2497
  169SOPE  H12R19078   0.570   3.508   7.543 -0.7566 -0.7994  1.3323
  169SOPE  H12S19079   0.627   3.462   7.688 -1.1536 -1.4309 -0.3976
  169SOPE  C21319080   0.636   3.303   7.533  0.1380 -0.2573 -0.4413
  169SOPE  H13R19081   0.546   3.263   7.584 -0.9167  0.3300 -1.7812
  169SOPE  H13S19082   0.718   3.237   7.568  1.8812  0.3212 -3.1775
  169SOPE  C21419083   0.628   3.295   7.384 -0.0209  0.2079 -0.7375
  169SOPE  H14R19084   0.726   3.305   7.334  0.9168 -0.8378  0.8127
  169SOPE  H14S19085   0.562   3.374   7.341 -1.4979 -0.7943 -0.4009
  169SOPE  C21519086   0.567   3.160   7.329 -0.0008 -0.4923  0.4129
  169SOPE  H15R19087   0.459   3.147   7.350 -0.0299  0.1564  0.6946
  169SOPE  H15S19088   0.633   3.088   7.380  0.5621 -0.3861 -0.1540
  169SOPE  C21619089   0.582   3.157   7.176  0.1709 -0.4461  0.0331
  169SOPE  H16R19090   0.679   3.198   7.139  0.5035 -1.0471  0.2324
  169SOPE  H16S19091   0.497   3.220   7.143 -0.9824 -0.9657  1.8734
  169SOPE  C21719092   0.561   3.019   7.125 -0.5349  0.2508 -0.7086
  169SOPE  H17R19093   0.639   2.951   7.166  0.5937  1.2273 -1.1787
  169SOPE  H17S19094   0.588   3.013   7.017  1.6661 -3.0539 -0.1410
  169SOPE  C21819095   0.423   2.964   7.158 -0.0438  0.2821  0.7797
  169SOPE  H18R19096   0.337   3.023   7.119 -0.4145 -0.2792  0.7329
  169SOPE  H18S19097   0.410   2.956   7.268  1.2506  1.4317  1.0337
  169SOPE  H18T19098   0.404   2.864   7.114  1.1257  0.3842 -0.0019
  169SOPE   C3319099   1.154   3.579   7.248  0.3934 -0.3051  0.2626
  169SOPE   H3X19100   1.216   3.667   7.221  0.8591 -0.5939  0.3849
  169SOPE   H3Y19101   1.220   3.491   7.230  0.5363 -0.1996  0.2724
  169SOPE   C3419102   1.131   3.578   7.393  0.0276 -0.8980  0.3106
  169SOPE   H4X19103   1.112   3.474   7.424 -0.1367 -1.3974 -1.3411
  169SOPE   H4Y19104   1.043   3.640   7.422  0.9214  0.7184 -0.2574
  169SOPE   C3519105   1.254   3.630   7.467  0.2964 -0.7816  0.2398
  169SOPE   H5X19106   1.305   3.723   7.434 -0.8866 -0.0101  0.5292
  169SOPE   H5Y19107   1.329   3.547   7.460 -0.6680 -1.5671 -1.1435
  169SOPE   C3619108   1.212   3.648   7.618  0.0428 -0.5279 -0.1892
  169SOPE   H6X19109   1.125   3.714   7.637  1.4498  0.7787  2.1134
  169SOPE   H6Y19110   1.304   3.697   7.654  1.1156 -0.7241 -2.4617
  169SOPE   C3719111   1.205   3.513   7.693 -0.4819  0.6567 -0.6232
  169SOPE   H7X19112   1.304   3.463   7.684  0.1465  2.0544 -1.8833
  169SOPE   H7Y19113   1.136   3.451   7.632 -0.3086  1.6373 -1.8549
  169SOPE   C3819114   1.149   3.520   7.827 -0.2885  0.4830  0.5808
  169SOPE   H8X19115   1.046   3.561   7.824 -0.9560 -1.1411  0.6976
  169SOPE   H8Y19116   1.134   3.416   7.861 -2.2187  1.0334  1.5488
  169SOPE   C3919117   1.231   3.586   7.940  0.3990  0.8604 -0.2831
  169SOPE   H9X19118   1.259   3.690   7.910  2.4507  0.0914 -1.1787
  169SOPE   H9Y19119   1.324   3.526   7.935  0.0891  0.4343 -0.9791
  169SOPE  C31019120   1.185   3.574   8.088 -0.2000  0.8172  0.2645
  169SOPE  H10X19121   1.187   3.473   8.133  0.1484  0.5191 -0.4199
  169SOPE  H10Y19122   1.079   3.607   8.085  0.3554  2.8718  1.4070
  169SOPE  C31119123   1.259   3.669   8.184  0.2781 -0.1143  0.2435
  169SOPE  H11X19124   1.267   3.772   8.144 -2.0807 -0.2259 -0.6184
  169SOPE  H11Y19125   1.364   3.641   8.207  0.2241  1.2326  2.4606
  169SOPE  C31219126   1.181   3.672   8.326  0.0865 -0.1331  0.6065
  169SOPE  H12X19127   1.246   3.704   8.410 -3.4407  1.7203  2.8458
  169SOPE  H12Y19128   1.145   3.568   8.345  1.2644 -0.3810  1.6364
  169SOPE  C31319129   1.062   3.763   8.309  0.5118 -0.1020  0.3059
  169SOPE  H13X19130   0.988   3.718   8.379 -1.0779  1.9054  0.0180
  169SOPE  H13Y19131   1.020   3.758   8.206 -0.4158 -2.5624  0.7346
  169SOPE  C31419132   1.078   3.915   8.340 -0.5610  0.6020 -0.9412
  169SOPE  H14X19133   1.156   3.958   8.273  0.5201  3.1222  1.7370
  169SOPE  H14Y19134   1.122   3.943   8.438 -0.0080  0.2060 -1.0633
  169SOPE  C31519135   0.952   4.002   8.320  0.0456 -0.3800  0.1329
  169SOPE  H15X19136   0.903   3.981   8.222 -1.8952 -1.0529  1.1865
  169SOPE  H15Y19137   0.984   4.109   8.319  1.1669 -0.6795  1.3160
  169SOPE  C31619138   0.845   3.993   8.423 -0.2453 -0.1404  0.6813
  169SOPE  H16X19139   0.895   3.994   8.521  0.3913  0.2139  0.3574
  169SOPE  H16Y19140   0.794   3.894   8.418 -0.1898 -0.1235 -1.1337
  169SOPE  C31719141   0.747   4.111   8.413 -0.7586  0.3753 -0.1810
  169SOPE  H17X19142   0.701   4.107   8.312  1.1844  0.7412 -1.1343
  169SOPE  H17Y19143   0.787   4.211   8.441 -0.4049 -0.5525  3.1421
  169SOPE  C31819144   0.637   4.083   8.520 -0.2657 -0.0985  0.4812
  169SOPE  H18X19145   0.680   4.069   8.621 -1.9103 -2.5970  0.9342
  169SOPE  H18Y19146   0.578   3.991   8.499 -0.8697  0.8441 -2.3816
  169SOPE  H18Z19147   0.567   4.169   8.524 -1.9090 -1.3778  0.4015
  170SOPE     N19148   1.719   3.700   6.228 -0.4204 -0.0417 -0.0031
  170SOPE   HN119149   1.722   3.625   6.300 -0.3341  1.7588  1.9478
  170SOPE   HN219150   1.628   3.749   6.222  1.0189  2.9396  0.7629
  170SOPE   HN319151   1.731   3.657   6.134  2.4041 -0.7728  0.6078
  170SOPE   C1219152   1.831   3.797   6.264  0.2273  0.1314  0.1825
  170SOPE  H12A19153   1.844   3.856   6.171 -3.5200  0.5942 -0.1789
  170SOPE  H12B19154   1.914   3.729   6.292  0.7133 -0.0569 -1.5852
  170SOPE   C1119155   1.798   3.892   6.382 -0.9800  0.6831 -0.4470
  170SOPE  H11A19156   1.892   3.937   6.420 -1.4463  1.0276  0.3213
  170SOPE  H11B19157   1.755   3.841   6.471 -0.2337  0.0180 -0.4598
  170SOPE     P19158   1.550   3.982   6.343  0.1868  0.6030  0.1554
  170SOPE   O1319159   1.500   3.863   6.268 -0.4271  0.6780 -0.1214
  170SOPE   O1419160   1.497   4.111   6.301 -0.0522 -0.4110  0.4172
  170SOPE   O1219161   1.708   3.989   6.327 -0.0729  0.3668  0.0518
  170SOPE   O1119162   1.529   3.956   6.497  0.1455 -0.6840 -0.0017
  170SOPE    C119163   1.585   4.052   6.588  0.2902 -0.6719  0.3142
  170SOPE    HA19164   1.527   4.146   6.575 -1.0924 -1.6861 -1.2819
  170SOPE    HB19165   1.694   4.059   6.571  0.3853 -1.1919  0.6809
  170SOPE    C219166   1.569   4.020   6.737 -0.0039 -0.3544  0.3435
  170SOPE    HS19167   1.606   3.917   6.753 -0.2198 -0.2583  1.5961
  170SOPE   O2119168   1.422   4.045   6.765 -0.1737 -0.0986 -0.4127
  170SOPE   C2119169   1.360   3.964   6.845  0.1500 -0.3649  0.4634
  170SOPE   O2219170   1.405   3.862   6.892 -0.2748  0.3110  0.0514
  170SOPE   C2219171   1.230   4.027   6.879 -0.3022 -0.9052 -0.2058
  170SOPE   H2R19172   1.180   4.065   6.787  1.1503  1.9939  0.1093
  170SOPE   H2S19173   1.263   4.118   6.932  1.0239 -0.5353 -1.6188
  170SOPE    C319174   1.653   4.110   6.827 -0.0875  0.1596 -0.0260
  170SOPE    HX19175   1.647   4.219   6.806 -0.8998  0.0725 -0.2816
  170SOPE    HY19176   1.760   4.092   6.806  0.3383  0.6103  1.6118
  170SOPE   O3119177   1.639   4.094   6.972  0.0389  0.1305 -0.1742
  170SOPE   C3119178   1.556   4.168   7.029  0.4767 -0.6246  0.3338
  170SOPE   O3219179   1.472   4.246   6.986  0.0325  0.0197  0.3740
  170SOPE   C3219180   1.573   4.161   7.181  0.0442 -0.3054  0.0483
  170SOPE   H2X19181   1.681   4.138   7.190  0.2836  0.7578 -0.0511
  170SOPE   H2Y19182   1.507   4.084   7.227 -0.6450  1.0103  1.3361
  170SOPE   C2319183   1.129   3.941   6.957  0.4027  0.0558 -0.1436
  170SOPE   H3R19184   1.108   3.854   6.890  0.9791  1.7717 -2.7035
  170SOPE   H3S19185   1.032   3.995   6.953 -0.6943 -1.8112 -0.2860
  170SOPE   C2419186   1.171   3.908   7.099 -0.2341  0.8980 -0.9127
  170SOPE   H4R19187   1.102   3.828   7.131 -1.4912  2.2392 -0.1861
  170SOPE   H4S19188   1.273   3.863   7.098 -0.4397  0.4179 -2.2249
  170SOPE   C2519189   1.164   4.029   7.190  1.1193  0.2459 -0.7741
  170SOPE   H5R19190   1.222   4.111   7.143  1.0062  0.6568 -0.2130
  170SOPE   H5S19191   1.058   4.061   7.196  0.5753 -1.5763 -0.1312
  170SOPE   C2619192   1.221   4.008   7.336 -0.4902 -0.2483 -0.0441
  170SOPE   H6R19193   1.194   3.917   7.395 -0.2713  0.6387  1.4731
  170SOPE   H6S19194   1.331   4.018   7.322 -0.4149  0.3374  0.8600
  170SOPE   C2719195   1.177   4.129   7.420  0.6237  0.5395 -0.5348
  170SOPE   H7R19196   1.170   4.225   7.363  1.9906  0.6244 -0.5992
  170SOPE   H7S19197   1.070   4.107   7.439  0.6395  1.0926  0.2359
  170SOPE   C2819198   1.251   4.140   7.556 -0.2218  0.4233 -0.7618
  170SOPE   H8R19199   1.358   4.157   7.534 -0.2759 -0.0406 -1.4152
  170SOPE   H8S19200   1.218   4.235   7.603 -0.6832 -1.0294  2.0643
  170SOPE   C2919201   1.230   4.022   7.651 -0.0376 -0.3180  0.1578
  170SOPE   H9119202   1.302   3.941   7.631  1.9262  1.7262 -1.5816
  170SOPE  C21019203   1.126   4.011   7.737 -0.0224 -0.8256  0.2297
  170SOPE  H10119204   1.122   3.922   7.801  0.7082  0.2145  1.7705
  170SOPE  C21119205   1.012   4.108   7.762  0.1390  0.0064  0.2785
  170SOPE  H11R19206   0.918   4.052   7.744  0.6711 -0.5560 -0.8784
  170SOPE  H11S19207   1.012   4.190   7.687  0.9523 -1.7515 -1.7588
  170SOPE  C21219208   0.988   4.153   7.906 -0.0887  0.1894 -1.0003
  170SOPE  H12R19209   1.077   4.202   7.951  0.9510 -2.0738 -0.4590
  170SOPE  H12S19210   0.965   4.064   7.968  0.8373  1.2320  0.9427
  170SOPE  C21319211   0.875   4.253   7.909 -0.0997 -0.1613 -0.1154
  170SOPE  H13R19212   0.794   4.243   7.834  0.3848  0.8876 -0.7914
  170SOPE  H13S19213   0.928   4.347   7.886  0.7297 -0.7104 -0.4846
  170SOPE  C21419214   0.815   4.266   8.047  0.4186 -0.3036 -0.1795
  170SOPE  H14R19215   0.894   4.257   8.125  1.4105  2.2758 -0.8055
  170SOPE  H14S19216   0.748   4.179   8.066 -1.9787  1.7813  1.4756
  170SOPE  C21519217   0.734   4.396   8.063 -0.4211 -0.2316 -0.3232
  170SOPE  H15R19218   0.645   4.388   7.998 -1.3299  0.1114  0.8310
  170SOPE  H15S19219   0.794   4.486   8.036 -2.3927  0.7837 -1.5272
  170SOPE  C21619220   0.678   4.416   8.203  0.6593  0.2173  0.0065
  170SOPE  H16R19221   0.642   4.324   8.254 -0.5128 -0.6077 -2.1497
  170SOPE  H16S19222   0.591   4.484   8.205  1.2542  1.0658  3.3610
  170SOPE  C21719223   0.785   4.476   8.292  0.5229  0.0212  0.2790
  170SOPE  H17R19224   0.826   4.567   8.244  2.2768 -0.3335  1.0481
  170SOPE  H17S19225   0.871   4.406   8.295  1.1341  0.4313 -3.3275
  170SOPE  C21819226   0.739   4.484   8.442 -0.2641  0.8085 -0.3474
  170SOPE  H18R19227   0.714   4.383   8.481  2.1905  0.1708 -0.2675
  170SOPE  H18S19228   0.647   4.546   8.455 -0.6846  0.3613 -1.0924
  170SOPE  H18T19229   0.818   4.530   8.505 -0.2333 -1.6116  1.5274
  170SOPE   C3319230   1.535   4.295   7.251  0.1841 -0.3077 -0.3611
  170SOPE   H3X19231   1.425   4.298   7.262  0.3793  0.1181  1.8344
  170SOPE   H3Y19232   1.584   4.380   7.199  0.8291  1.6226  3.1433
  170SOPE   C3419233   1.590   4.288   7.393 -0.2268  0.1766  0.3106
  170SOPE   H4X19234   1.700   4.280   7.379 -0.1097  1.2006  0.5509
  170SOPE   H4Y19235   1.557   4.200   7.452 -1.1459 -1.9542 -3.1162
  170SOPE   C3519236   1.566   4.420   7.481 -0.5060  0.2045 -0.4827
  170SOPE   H5X19237   1.457   4.437   7.490 -0.2019  1.8153  0.4263
  170SOPE   H5Y19238   1.600   4.508   7.423 -1.0371  2.6941  2.7272
  170SOPE   C3619239   1.639   4.394   7.620  0.4074 -0.7032  1.1161
  170SOPE   H6X19240   1.749   4.390   7.602  0.6559  2.0231  1.5765
  170SOPE   H6Y19241   1.598   4.296   7.652  1.4196 -1.0486  1.4117
  170SOPE   C3719242   1.607   4.496   7.726  0.4420  0.4843  0.3097
  170SOPE   H7X19243   1.504   4.534   7.742  0.6205  0.5234  1.4617
  170SOPE   H7Y19244   1.671   4.585   7.704 -1.2621  1.7555  0.2687
  170SOPE   C3819245   1.659   4.463   7.866  0.6206 -0.2176 -0.3006
  170SOPE   H8X19246   1.645   4.550   7.934  1.0766 -0.1044 -0.3499
  170SOPE   H8Y19247   1.769   4.454   7.854  0.8979  3.2180 -1.5780
  170SOPE   C3919248   1.589   4.349   7.946 -1.2253  0.6704  0.4870
  170SOPE   H9X19249   1.654   4.313   8.029  0.0921  0.8076 -0.4599
  170SOPE   H9Y19250   1.592   4.266   7.872  0.7373  1.7214 -0.6740
  170SOPE  C31019251   1.454   4.378   7.999  0.7043 -0.1987 -0.2698
  170SOPE  H10X19252   1.385   4.353   7.916 -0.1886 -2.5703  1.0681
  170SOPE  H10Y19253   1.456   4.486   8.022  0.5481  0.2177 -2.0525
  170SOPE  C31119254   1.406   4.286   8.116  0.2653  0.0581 -0.5141
  170SOPE  H11X19255   1.431   4.179   8.097 -2.3742 -0.2593 -2.9065
  170SOPE  H11Y19256   1.295   4.290   8.115  0.2022 -1.2828 -0.3270
  170SOPE  C31219257   1.459   4.329   8.254  0.2095 -0.2767  0.0897
  170SOPE  H12X19258   1.465   4.440   8.262  3.6368 -0.3794  0.5305
  170SOPE  H12Y19259   1.564   4.295   8.270  0.5535  0.1601 -1.1185
  170SOPE  C31319260   1.366   4.265   8.355 -0.2863 -0.6366 -0.4482
  170SOPE  H13X19261   1.418   4.269   8.453 -0.0368 -0.6518 -0.5785
  170SOPE  H13Y19262   1.348   4.158   8.330  0.7189 -0.5299 -1.7634
  170SOPE  C31419263   1.238   4.342   8.367 -0.0381 -0.6441 -0.2448
  170SOPE  H14X19264   1.196   4.299   8.460 -1.7178 -0.5618 -0.9234
  170SOPE  H14Y19265   1.168   4.315   8.285  0.7106 -1.0123 -0.7772
  170SOPE  C31519266   1.242   4.497   8.396 -0.4048 -0.0283 -0.7063
  170SOPE  H15X19267   1.275   4.545   8.301  0.5993  0.9653  0.1209
  170SOPE  H15Y19268   1.318   4.525   8.472 -0.1936 -1.0334 -0.5290
  170SOPE  C31619269   1.106   4.538   8.442 -0.3542 -0.6249  0.4420
  170SOPE  H16X19270   1.103   4.527   8.552  2.6124 -1.1404  0.5709
  170SOPE  H16Y19271   1.027   4.478   8.392 -2.0772  1.1344  0.9360
  170SOPE  C31719272   1.073   4.687   8.412 -0.5257  0.8467 -0.0574
  170SOPE  H17X19273   0.966   4.703   8.438 -0.6445  1.2135 -0.7549
  170SOPE  H17Y19274   1.064   4.712   8.304 -3.3343  3.6702  0.6760
  170SOPE  C31819275   1.176   4.784   8.480 -0.2278  0.5744  0.2162
  170SOPE  H18X19276   1.137   4.885   8.509 -0.2546  0.2100  1.5200
  170SOPE  H18Y19277   1.257   4.795   8.405 -0.0512 -0.3658  0.2662
  170SOPE  H18Z19278   1.216   4.730   8.568 -0.5121 -1.6547 -0.9659
  171SOPE     N19279   0.484   6.469   6.196  0.0613  0.0922 -0.0326
  171SOPE   HN119280   0.492   6.376   6.150 -2.7751 -1.7590  2.8262
  171SOPE   HN219281   0.381   6.473   6.209  0.0530  0.7447 -0.2608
  171SOPE   HN319282   0.503   6.543   6.126 -0.9477  0.9321  0.5630
  171SOPE   C1219283   0.578   6.476   6.314 -0.6668 -0.3734 -0.1772
  171SOPE  H12A19284   0.538   6.555   6.381 -3.3949 -2.4466  0.8376
  171SOPE  H12B19285   0.673   6.504   6.264  0.2530  0.2584  1.8171
  171SOPE   C1119286   0.606   6.341   6.385  0.2903 -0.5930 -0.9164
  171SOPE  H11A19287   0.520   6.312   6.450  1.0755  0.4645  0.6435
  171SOPE  H11B19288   0.689   6.358   6.457  0.3201 -0.7599 -0.9113
  171SOPE     P19289   0.744   6.141   6.285  0.1363  0.1185  0.4256
  171SOPE   O1319290   0.792   6.129   6.145  0.1778  0.0345  0.7903
  171SOPE   O1419291   0.694   6.012   6.348  0.0161  0.2095  0.3636
  171SOPE   O1219292   0.626   6.242   6.288  0.1170 -0.2702  0.1068
  171SOPE   O1119293   0.856   6.197   6.381  0.2979 -0.7596 -0.2111
  171SOPE    C119294   0.968   6.125   6.433  0.2601 -0.5503  0.0818
  171SOPE    HA19295   1.061   6.182   6.412 -0.1860  0.0628 -0.2757
  171SOPE    HB19296   0.989   6.030   6.379  0.6339 -0.3127 -0.1961
  171SOPE    C219297   0.968   6.109   6.591 -0.6282  0.2020  0.2487
  171SOPE    HS19298   1.046   6.032   6.608  1.0125  1.7578  0.0424
  171SOPE   O2119299   0.842   6.067   6.645 -0.2324  0.5332 -0.0713
  171SOPE   C2119300   0.809   5.943   6.621  1.2413  0.4278  0.8494
  171SOPE   O2219301   0.887   5.855   6.584 -0.0289 -0.1377  0.7827
  171SOPE   C2219302   0.658   5.933   6.662  0.0636  0.0806 -0.0681
  171SOPE   H2R19303   0.607   5.984   6.577 -0.0284 -0.1060 -0.1235
  171SOPE   H2S19304   0.652   5.987   6.759 -0.3346 -0.9554  0.4977
  171SOPE    C319305   1.015   6.242   6.654  0.2118  0.4723  0.8425
  171SOPE    HX19306   0.950   6.323   6.615 -0.9081 -0.6501  0.2901
  171SOPE    HY19307   1.117   6.270   6.619  1.2067  0.1885  3.2990
  171SOPE   O3119308   1.012   6.236   6.800  0.4473  0.2617 -0.1128
  171SOPE   C3119309   0.919   6.306   6.862 -0.0685 -0.2701 -0.0680
  171SOPE   O3219310   0.823   6.360   6.814 -0.1075  0.2450 -0.4086
  171SOPE   C3219311   0.947   6.289   7.015  0.3450  0.2666  0.1949
  171SOPE   H2X19312   0.850   6.302   7.067  0.3864 -0.5038  0.4805
  171SOPE   H2Y19313   1.008   6.378   7.040  0.0643  1.0239 -1.6329
  171SOPE   C2319314   0.609   5.790   6.681 -0.3222  0.0457 -0.1063
  171SOPE   H3R19315   0.631   5.734   6.588  0.7602 -0.2424  0.3127
  171SOPE   H3S19316   0.499   5.794   6.696 -0.3652 -2.2393  0.5484
  171SOPE   C2419317   0.674   5.709   6.795  0.3948  0.0896 -0.1485
  171SOPE   H4R19318   0.654   5.605   6.762  2.7130 -0.0631 -1.2458
  171SOPE   H4S19319   0.784   5.707   6.803  0.3872 -3.2475  0.8289
  171SOPE   C2519320   0.618   5.743   6.939  0.3104  0.5743  0.0290
  171SOPE   H5R19321   0.632   5.849   6.969  1.0107  0.2377  0.9407
  171SOPE   H5S19322   0.508   5.728   6.927  0.5930 -0.4008 -1.6194
  171SOPE   C2619323   0.668   5.644   7.044  0.5861  0.9827 -0.6229
  171SOPE   H6R19324   0.620   5.678   7.138 -1.6544 -1.9488 -0.5714
  171SOPE   H6S19325   0.642   5.538   7.020  0.0817  1.2065 -1.0653
  171SOPE   C2719326   0.815   5.662   7.068 -0.1374  0.3131  0.1651
  171SOPE   H7R19327   0.854   5.594   7.147 -0.2473 -0.9219 -0.8155
  171SOPE   H7S19328   0.871   5.621   6.981 -1.5670 -2.5918  0.4805
  171SOPE   C2819329   0.860   5.804   7.102 -0.2072 -0.0262  0.1778
  171SOPE   H8R19330   0.967   5.806   7.129  0.0730  1.4998 -0.8811
  171SOPE   H8S19331   0.857   5.876   7.016 -0.6192  0.4224  0.5588
  171SOPE   C2919332   0.782   5.846   7.220  0.6418  0.1522  0.6091
  171SOPE   H9119333   0.685   5.896   7.207 -0.0995 -0.7141  2.3311
  171SOPE  C21019334   0.825   5.837   7.353  0.6267 -0.3197 -0.3260
  171SOPE  H10119335   0.757   5.870   7.432  2.9587 -0.3410  1.7844
  171SOPE  C21119336   0.952   5.772   7.406  0.2488  0.2344  0.0917
  171SOPE  H11R19337   1.030   5.850   7.420  1.4143 -0.8846  0.0454
  171SOPE  H11S19338   0.997   5.706   7.329  1.0751  0.5732  0.2683
  171SOPE  C21219339   0.950   5.688   7.540  0.4635 -0.1473  0.9750
  171SOPE  H12R19340   0.884   5.599   7.528  1.7249 -1.2177  1.5488
  171SOPE  H12S19341   0.893   5.746   7.616  0.3840  0.3557  0.5324
  171SOPE  C21319342   1.079   5.653   7.601 -0.0140  0.9262  0.6160
  171SOPE  H13R19343   1.139   5.744   7.619 -0.4366  1.2570  0.3726
  171SOPE  H13S19344   1.131   5.589   7.525  0.0746  0.7200  0.8489
  171SOPE  C21419345   1.059   5.578   7.728 -0.0034  0.2929 -0.1487
  171SOPE  H14R19346   1.158   5.542   7.764 -0.9353 -1.8532  0.4292
  171SOPE  H14S19347   1.002   5.483   7.721  1.8557 -0.8420 -0.7426
  171SOPE  C21519348   1.007   5.665   7.839 -0.7774 -0.3379  0.2212
  171SOPE  H15R19349   0.896   5.667   7.840 -0.7731  0.7868  0.7666
  171SOPE  H15S19350   1.048   5.768   7.838 -0.2566 -0.5396 -1.4089
  171SOPE  C21619351   1.046   5.600   7.976  0.8396 -0.1240 -0.2322
  171SOPE  H16R19352   1.156   5.599   7.992  0.9583  0.0680 -1.0363
  171SOPE  H16S19353   1.006   5.497   7.987  0.8403  0.1117  3.4747
  171SOPE  C21719354   0.978   5.664   8.103  0.4066  0.2397 -0.7105
  171SOPE  H17R19355   0.868   5.673   8.093  0.3508 -0.0252 -0.3406
  171SOPE  H17S19356   1.024   5.764   8.118 -1.6420  1.3424 -1.3957
  171SOPE  C21819357   1.001   5.570   8.226  0.3344 -0.0404  0.0733
  171SOPE  H18R19358   0.925   5.489   8.224 -0.4172  0.6711 -0.4808
  171SOPE  H18S19359   0.986   5.621   8.323 -4.4376 -0.2404 -0.3217
  171SOPE  H18T19360   1.106   5.533   8.217  0.3002  0.0533 -0.7980
  171SOPE   C3319361   1.003   6.155   7.064 -0.4082 -0.4244  0.1840
  171SOPE   H3X19362   1.106   6.134   7.030 -0.0587 -0.9173  1.4926
  171SOPE   H3Y19363   0.934   6.075   7.028 -1.0378  0.5361 -0.7990
  171SOPE   C3419364   0.991   6.147   7.221 -0.0597 -0.2916  0.0301
  171SOPE   H4X19365   1.003   6.039   7.241  1.0241 -0.0066  1.0893
  171SOPE   H4Y19366   0.894   6.187   7.257  0.3792  0.8694 -0.0299
  171SOPE   C3519367   1.102   6.236   7.293 -0.0467  0.0654  0.3271
  171SOPE   H5X19368   1.084   6.341   7.262  0.1596 -0.0824 -0.2994
  171SOPE   H5Y19369   1.188   6.186   7.244  0.3340 -0.3565  1.3985
  171SOPE   C3619370   1.108   6.244   7.450  0.1511 -0.1137 -0.4386
  171SOPE   H6X19371   1.063   6.336   7.493 -3.0724 -1.7203 -0.0728
  171SOPE   H6Y19372   1.218   6.248   7.462 -0.0495  0.2407  1.4871
  171SOPE   C3719373   1.058   6.123   7.530 -0.3480 -0.2376 -0.3308
  171SOPE   H7X19374   1.097   6.027   7.490 -2.3792 -0.7125 -1.3186
  171SOPE   H7Y19375   0.948   6.116   7.519 -0.9219  1.2538  3.2235
  171SOPE   C3819376   1.095   6.120   7.680 -0.2825  0.1894 -0.1767
  171SOPE   H8X19377   1.028   6.045   7.726  0.4925 -0.4549 -0.0859
  171SOPE   H8Y19378   1.058   6.215   7.724  0.5917 -0.2054  1.4961
  171SOPE   C3919379   1.239   6.086   7.707  0.6417 -0.3041 -1.0473
  171SOPE   H9X19380   1.308   6.171   7.687  0.9076  0.3316  2.0722
  171SOPE   H9Y19381   1.265   6.004   7.637  0.7472 -1.2148  0.0403
  171SOPE  C31019382   1.271   6.024   7.848 -0.6633  0.0385 -0.1938
  171SOPE  H10X19383   1.204   5.936   7.865 -0.6844  0.3278  1.3344
  171SOPE  H10Y19384   1.250   6.100   7.925  0.2969  1.4163 -1.2514
  171SOPE  C31119385   1.415   5.974   7.860 -0.0616  0.2334  0.1272
  171SOPE  H11X19386   1.454   6.029   7.949 -1.0875  2.2855 -0.6338
  171SOPE  H11Y19387   1.467   5.995   7.764 -1.1408 -3.9421 -1.5644
  171SOPE  C31219388   1.425   5.821   7.890  0.5380 -0.2629 -0.4134
  171SOPE  H12X19389   1.529   5.783   7.886  0.2920 -1.7920  3.2623
  171SOPE  H12Y19390   1.372   5.765   7.810 -1.5949  1.1514 -0.0665
  171SOPE  C31319391   1.367   5.770   8.015  0.4554  0.2139  0.0477
  171SOPE  H13X19392   1.358   5.659   8.018  0.7625  0.1935  0.3300
  171SOPE  H13Y19393   1.267   5.817   8.025  0.4268  0.4986 -1.4353
  171SOPE  C31419394   1.443   5.808   8.142  0.0201 -0.0464  0.6779
  171SOPE  H14X19395   1.477   5.912   8.124 -0.1384 -0.2700 -1.1351
  171SOPE  H14Y19396   1.535   5.746   8.138  1.0940  1.5614 -1.1592
  171SOPE  C31519397   1.373   5.795   8.273 -0.1493 -0.3878 -0.2263
  171SOPE  H15X19398   1.376   5.686   8.295  1.0538 -0.3263 -0.0028
  171SOPE  H15Y19399   1.269   5.832   8.286  0.3844  1.5776 -1.1488
  171SOPE  C31619400   1.445   5.859   8.391 -0.1156  0.8701  0.0000
  171SOPE  H16X19401   1.547   5.817   8.382 -1.0773 -1.7837  0.5106
  171SOPE  H16Y19402   1.405   5.809   8.482 -1.2106  0.2808 -0.7665
  171SOPE  C31719403   1.432   6.010   8.402  0.2044  0.0361  0.2797
  171SOPE  H17X19404   1.332   6.053   8.379  0.1682 -0.0218  0.3276
  171SOPE  H17Y19405   1.502   6.063   8.335  1.1929  0.4580  1.6001
  171SOPE  C31819406   1.464   6.061   8.547  0.0758  0.5952  0.0206
  171SOPE  H18X19407   1.436   6.168   8.559  0.8340  0.6692  1.3299
  171SOPE  H18Y19408   1.575   6.064   8.550  0.1318  0.1407 -1.0574
  171SOPE  H18Z19409   1.411   6.008   8.629 -4.3259 -0.4266 -3.1266
  172SOPE     N19410   6.655   0.029   6.175  0.5937  0.5607 -0.5491
  172SOPE   HN119411   6.671   0.052   6.075  2.4933  0.1487 -0.3696
  172SOPE   HN219412   6.736  -0.023   6.214  0.5935 -1.1556 -2.7032
  172SOPE   HN319413   6.570  -0.030   6.187 -0.5628  2.4585  1.5446
  172SOPE   C1219414   6.620   0.149   6.252  0.2517 -0.3246  0.0818
  172SOPE  H12A19415   6.518   0.181   6.222 -0.5304 -1.4353  1.4383
  172SOPE  H12B19416   6.686   0.233   6.218  0.7151 -0.5895  0.3124
  172SOPE   C1119417   6.630   0.137   6.404 -0.5831  0.3173  0.5100
  172SOPE  H11A19418   6.562   0.054   6.434 -0.1957  0.6168  2.3690
  172SOPE  H11B19419   6.599   0.236   6.443 -0.4214  0.8921 -0.7872
  172SOPE     P19420   6.875   0.197   6.442 -0.0541 -0.0799 -0.3715
  172SOPE   O1319421   6.814   0.339   6.437  0.3161  0.0291 -0.4675
  172SOPE   O1419422   6.977   0.157   6.350 -0.2470  1.3397  0.3275
  172SOPE   O1219423   6.760   0.089   6.433 -0.5697  0.1484 -0.4012
  172SOPE   O1119424   6.927   0.171   6.589  0.5491  0.3227  0.1384
  172SOPE    C119425   6.862   0.239   6.691 -0.0810 -0.5639 -0.1400
  172SOPE    HA19426   6.753   0.218   6.686 -0.4767  1.5314 -1.2946
  172SOPE    HB19427   6.898   0.343   6.682  1.4714 -0.9554  1.0974
  172SOPE    C219428   6.897   0.192   6.835 -0.3240  0.1765 -0.2575
  172SOPE    HS19429   7.004   0.215   6.855 -0.0497 -1.2544 -0.0025
  172SOPE   O2119430   6.877   0.051   6.823  0.4451 -0.0548 -0.0671
  172SOPE   C2119431   6.945  -0.021   6.899 -0.7938 -0.0623 -0.8521
  172SOPE   O2219432   7.022   0.017   6.987  0.6510  0.2710 -0.2558
  172SOPE   C2219433   6.913  -0.165   6.863  0.2447 -0.4658 -0.0046
  172SOPE   H2R19434   6.967  -0.192   6.770  1.1658 -3.1725  1.2077
  172SOPE   H2S19435   6.805  -0.172   6.840  0.3026  2.9499 -1.9341
  172SOPE    C319436   6.803   0.259   6.942  0.0232 -0.5450  0.2984
  172SOPE    HX19437   6.696   0.239   6.919 -0.9785  4.7259 -1.0287
  172SOPE    HY19438   6.795   0.367   6.918 -2.2895 -0.3088  1.7726
  172SOPE   O3119439   6.822   0.233   7.085  0.8773  0.0824 -0.5125
  172SOPE   C3119440   6.933   0.300   7.143 -0.3767 -0.7225  0.8518
  172SOPE   O3219441   7.009   0.376   7.080 -0.6500  0.7508  0.0620
  172SOPE   C3219442   6.952   0.267   7.286  1.2784 -0.0116  0.2070
  172SOPE   H2X19443   7.023   0.183   7.298  1.2213  0.0735  1.2561
  172SOPE   H2Y19444   6.853   0.232   7.322  0.6693  1.0017 -0.4330
  172SOPE   C2319445   6.950  -0.277   6.975 -0.6140 -0.4480 -0.0344
  172SOPE   H3R19446   7.060  -0.271   6.981 -0.6031  0.8148 -1.0321
  172SOPE   H3S19447   6.918  -0.367   6.918  1.0506 -0.8690 -0.3433
  172SOPE   C2419448   6.909  -0.263   7.122 -0.0095  0.0089  0.3638
  172SOPE   H4R19449   6.926  -0.161   7.160 -0.4895 -0.6240  2.3760
  172SOPE   H4S19450   6.798  -0.266   7.126 -0.2038  2.9131 -0.3846
  172SOPE   C2519451   6.971  -0.362   7.219  0.8870  0.0156 -0.1450
  172SOPE   H5R19452   6.936  -0.460   7.179 -0.7185  0.5379 -0.0703
  172SOPE   H5S19453   7.081  -0.364   7.205  0.7437  0.1612 -1.3838
  172SOPE   C2619454   6.929  -0.355   7.365 -0.6289  0.0734 -0.0413
  172SOPE   H6R19455   6.953  -0.249   7.388  1.0035 -0.7224  2.2616
  172SOPE   H6S19456   6.824  -0.387   7.378 -0.4020 -0.4589  0.5124
  172SOPE   C2719457   7.016  -0.445   7.445 -0.3835  1.3748  0.5604
  172SOPE   H7R19458   6.976  -0.545   7.417  0.7895  1.0741 -0.1065
  172SOPE   H7S19459   7.123  -0.448   7.414 -0.3515 -0.9480  0.7137
  172SOPE   C2819460   7.011  -0.428   7.595  0.1047 -0.2558 -0.4464
  172SOPE   H8R19461   7.054  -0.327   7.614  1.3657 -0.5164 -1.7418
  172SOPE   H8S19462   6.907  -0.437   7.633 -0.3213 -0.6107 -1.6407
  172SOPE   C2919463   7.090  -0.537   7.667  0.3330  0.1519  0.6236
  172SOPE   H9119464   7.199  -0.535   7.650  0.0026  2.3982 -1.9752
  172SOPE  C21019465   7.048  -0.639   7.739  0.3459 -0.1605 -0.0723
  172SOPE  H10119466   7.128  -0.705   7.775  1.1824  0.6365 -0.4153
  172SOPE  C21119467   6.906  -0.673   7.796 -0.7103 -0.1299 -0.1667
  172SOPE  H11R19468   6.827  -0.635   7.728  0.2213  1.3415 -0.4681
  172SOPE  H11S19469   6.907  -0.626   7.897 -1.3535  0.5660 -0.4755
  172SOPE  C21219470   6.900  -0.824   7.822  0.1385 -0.1965  0.0531
  172SOPE  H12R19471   6.791  -0.842   7.836  0.0308 -0.1274 -0.6483
  172SOPE  H12S19472   6.947  -0.853   7.919 -0.7733 -0.2673  0.4861
  172SOPE  C21319473   6.943  -0.918   7.709  0.2890  0.3069  0.3621
  172SOPE  H13R19474   6.953  -1.026   7.734  2.2148  0.0419 -1.2953
  172SOPE  H13S19475   7.041  -0.883   7.672 -0.5209  1.5958 -0.6853
  172SOPE  C21419476   6.836  -0.922   7.592 -0.0265 -0.7718 -0.5658
  172SOPE  H14R19477   6.811  -0.822   7.548 -3.5317 -0.1594  2.3419
  172SOPE  H14S19478   6.741  -0.951   7.641  0.4997 -0.7562  0.4896
  172SOPE  C21519479   6.875  -1.026   7.492 -0.2585  0.0269  0.5791
  172SOPE  H15R19480   6.786  -1.057   7.433 -0.3961  0.6107  0.4707
  172SOPE  H15S19481   6.918  -1.120   7.532  1.1730 -0.4477 -1.8092
  172SOPE  C21619482   6.991  -0.971   7.396 -0.2244  0.5677  0.0476
  172SOPE  H16R19483   7.063  -0.921   7.463 -0.3741  0.4175  0.3211
  172SOPE  H16S19484   6.963  -0.896   7.319 -0.4847 -0.8519 -1.3105
  172SOPE  C21719485   7.041  -1.090   7.312 -0.0702 -0.4646 -0.4517
  172SOPE  H17R19486   6.957  -1.127   7.250 -1.6246 -0.0731  1.3223
  172SOPE  H17S19487   7.088  -1.178   7.360  0.9441  1.3256  2.0805
  172SOPE  C21819488   7.154  -1.048   7.213 -0.3021  1.0820 -0.0779
  172SOPE  H18R19489   7.242  -0.999   7.261  1.1532 -0.9389 -0.5526
  172SOPE  H18S19490   7.116  -0.988   7.128  0.6090 -1.8939 -2.8076
  172SOPE  H18T19491   7.189  -1.143   7.166  0.9848  1.5538 -0.1315
  172SOPE   C3319492   6.990   0.396   7.360 -0.1080  0.5403 -0.3142
  172SOPE   H3X19493   6.913   0.476   7.353 -0.0480  0.7536  1.2638
  172SOPE   H3Y19494   7.086   0.425   7.312  1.5288 -0.5039  2.1010
  172SOPE   C3419495   7.025   0.373   7.510  0.7242 -0.8494  0.3116
  172SOPE   H4X19496   7.060   0.468   7.556 -0.1092  0.3588 -1.4148
  172SOPE   H4Y19497   7.112   0.304   7.510 -0.2626 -2.1334  0.0082
  172SOPE   C3519498   6.911   0.307   7.591  0.3761 -0.8086 -0.2688
  172SOPE   H5X19499   6.885   0.213   7.537 -1.2033 -2.3614  2.9496
  172SOPE   H5Y19500   6.822   0.374   7.585  0.6075 -0.0608  3.0009
  172SOPE   C3619501   6.940   0.275   7.739 -0.4229  0.4113 -0.4753
  172SOPE   H6X19502   6.866   0.209   7.789  0.9115  0.7632  2.0874
  172SOPE   H6Y19503   6.945   0.374   7.788  2.7153 -0.4969  1.2937
  172SOPE   C3719504   7.074   0.216   7.772 -0.3851 -0.4667 -0.0329
  172SOPE   H7X19505   7.151   0.268   7.710 -2.3609 -0.0040 -2.2186
  172SOPE   H7Y19506   7.082   0.110   7.740  1.0168 -0.1959 -0.6879
  172SOPE   C3819507   7.116   0.234   7.924 -0.3114  0.0170 -0.3770
  172SOPE   H8X19508   7.076   0.329   7.965 -0.7389 -0.5951  0.6599
  172SOPE   H8Y19509   7.225   0.215   7.927 -0.5685 -1.5370 -0.1709
  172SOPE   C3919510   7.068   0.115   8.012 -0.7786 -0.4918  0.1700
  172SOPE   H9X19511   7.098   0.019   7.964  0.1429 -0.9425  1.5652
  172SOPE   H9Y19512   6.957   0.125   8.018 -0.7800 -0.1613 -0.3794
  172SOPE  C31019513   7.116   0.136   8.155  0.8099 -0.9210  0.6233
  172SOPE  H10X19514   7.060   0.078   8.231  0.8472  0.4122  1.7107
  172SOPE  H10Y19515   7.094   0.243   8.176 -3.4148 -1.6057  0.4976
  172SOPE  C31119516   7.263   0.109   8.181 -0.1287 -0.0497 -0.6997
  172SOPE  H11X19517   7.329   0.179   8.125  0.3105 -1.4841 -2.0500
  172SOPE  H11Y19518   7.292   0.007   8.147  2.6019 -0.1532  1.5471
  172SOPE  C31219519   7.293   0.111   8.336  0.3644 -0.7251  0.7313
  172SOPE  H12X19520   7.200   0.077   8.387 -0.6303 -0.7372 -1.0200
  172SOPE  H12Y19521   7.293   0.220   8.357 -0.7608 -1.0314  2.4860
  172SOPE  C31319522   7.422   0.035   8.371  0.4024  0.2293  0.1804
  172SOPE  H13X19523   7.494   0.076   8.296 -1.9710 -0.5079 -2.7214
  172SOPE  H13Y19524   7.424  -0.075   8.356 -0.1645  0.0344  1.4288
  172SOPE  C31419525   7.471   0.065   8.514 -0.8660 -0.3749 -0.1580
  172SOPE  H14X19526   7.438  -0.008   8.590  2.2199 -0.1259  1.5903
  172SOPE  H14Y19527   7.427   0.165   8.536  0.3271  0.1209  0.0776
  172SOPE  C31519528   7.620   0.093   8.522  0.4104 -0.1743  0.2800
  172SOPE  H15X19529   7.645   0.167   8.443 -0.7446  1.4909  1.3943
  172SOPE  H15Y19530   7.683   0.010   8.484  2.2755  1.3818 -0.1837
  172SOPE  C31619531   7.667   0.127   8.662  0.2973  0.3291 -0.5586
  172SOPE  H16X19532   7.638   0.049   8.736  0.3354 -0.9124 -1.8066
  172SOPE  H16Y19533   7.634   0.226   8.701 -1.1534 -1.2616  2.6238
  172SOPE  C31719534   7.820   0.126   8.665 -0.2870 -0.5816 -0.6690
  172SOPE  H17X19535   7.851   0.022   8.688 -1.2586 -0.6416  0.4887
  172SOPE  H17Y19536   7.844   0.195   8.750  0.1666 -1.0246 -0.4346
  172SOPE  C31819537   7.882   0.182   8.544 -0.0582  0.4090  0.5790
  172SOPE  H18X19538   7.854   0.125   8.453  0.0149  0.5663  0.4573
  172SOPE  H18Y19539   7.991   0.161   8.554 -0.5127 -1.9073  1.1198
  172SOPE  H18Z19540   7.866   0.291   8.527 -0.5273  0.2178 -0.2642
  173SAPI   C1219541   3.592   3.907  10.945  0.6027  0.6696  0.2889
  173SAPI    H219542   3.604   3.954  11.045 -0.5815 -0.4860  1.0079
  173SAPI    O219543   3.725   3.896  10.889  0.0318 -0.2439  0.0144
  173SAPI   HO219544   3.727   3.975  10.834  0.3352 -1.9276 -2.5838
  173SAPI   C1319545   3.526   3.769  10.970  0.0603  0.3047 -0.4787
  173SAPI    H319546   3.431   3.791  11.023 -0.6329 -0.0298 -1.5419
  173SAPI    O319547   3.608   3.688  11.057  0.5600  0.7820  0.9247
  173SAPI   HO319548   3.699   3.691  11.025  0.0928  0.0087 -0.5970
  173SAPI   C1419549   3.492   3.698  10.836  0.2905  0.1758  0.3903
  173SAPI    H419550   3.587   3.673  10.782  0.9092  3.2250 -0.1193
  173SAPI    O419551   3.429   3.574  10.870  0.2445 -0.7706  0.1770
  173SAPI   HO419552   3.342   3.605  10.896  0.0643 -1.1353  0.0159
  173SAPI   C1519553   3.407   3.772  10.741 -0.2254 -0.4781 -0.0065
  173SAPI    H519554   3.304   3.788  10.780 -1.1836 -0.0353 -2.5750
  173SAPI    O519555   3.396   3.718  10.606  0.2447 -0.0237 -0.5915
  173SAPI   HO519556   3.353   3.792  10.562  0.0911  1.3056  1.6195
  173SAPI   C1619557   3.466   3.917  10.731 -0.3535  0.1834  0.5625
  173SAPI    H619558   3.566   3.910  10.682 -0.8073  0.3018 -0.4109
  173SAPI    O619559   3.374   3.992  10.646  0.0612 -0.4658 -0.2725
  173SAPI   HO619560   3.427   4.044  10.586  0.5484 -0.0246  0.5289
  173SAPI   C1119561   3.492   3.988  10.861  0.0051  0.1394  0.1112
  173SAPI    H119562   3.395   3.987  10.916  0.4064 -1.9527  0.8622
  173SAPI     P19563   3.425   4.250  10.875  0.3693 -0.0205 -0.6011
  173SAPI   O1319564   3.494   4.351  10.957 -0.1516 -0.0093 -0.5719
  173SAPI   O1419565   3.296   4.210  10.932  0.0159  0.2367  0.1598
  173SAPI   O1219566   3.530   4.127  10.856  0.1740  0.3422 -0.1639
  173SAPI   O1119567   3.406   4.306  10.726  0.6121  0.9361 -0.0304
  173SAPI    C119568   3.355   4.442  10.719 -0.2194  0.5214  0.2732
  173SAPI    HA19569   3.253   4.442  10.763  0.1236 -1.7971  1.2001
  173SAPI    HB19570   3.415   4.508  10.786  0.2561  1.8057 -1.3590
  173SAPI    C219571   3.334   4.516  10.580 -0.0800 -0.1517 -0.9299
  173SAPI    HS19572   3.294   4.619  10.599  2.9870  1.2116 -1.2633
  173SAPI   O2119573   3.244   4.448  10.495 -0.8441  0.6785  0.1433
  173SAPI   C2119574   3.116   4.437  10.524 -0.7711  0.2834 -0.0677
  173SAPI   O2219575   3.048   4.482  10.616  0.6713 -0.9622 -0.0721
  173SAPI   C2219576   3.067   4.338  10.423  0.0208  0.2856  0.6665
  173SAPI   H2R19577   3.076   4.392  10.326 -0.2301  1.9746  1.5435
  173SAPI   H2S19578   3.113   4.237  10.426 -0.9483 -0.2508 -1.0817
  173SAPI    C319579   3.475   4.542  10.508  0.5267 -0.2081  0.7992
  173SAPI    HX19580   3.551   4.467  10.538  2.2382  1.4436  0.7460
  173SAPI    HY19581   3.515   4.636  10.552 -0.1280 -0.2618  1.5194
  173SAPI   O3119582   3.478   4.553  10.363 -0.0675  0.3045 -0.4008
  173SAPI   C3119583   3.507   4.454  10.284 -0.7034 -0.2792 -0.5257
  173SAPI   O3219584   3.542   4.341  10.316 -0.2350  0.5880 -0.2862
  173SAPI   C3219585   3.505   4.514  10.146 -0.8845 -0.2908 -0.4519
  173SAPI   H2X19586   3.492   4.624  10.155  2.1613  0.0916  0.3306
  173SAPI   H2Y19587   3.420   4.467  10.092 -1.9096 -0.8546  1.5614
  173SAPI   C2319588   2.923   4.307  10.443 -0.1819  0.6962  0.5554
  173SAPI   H3R19589   2.855   4.394  10.453 -2.0406 -0.4863 -1.0195
  173SAPI   H3S19590   2.903   4.231  10.521 -1.0446 -1.3231 -1.5010
  173SAPI   C2419591   2.872   4.229  10.311  0.1828 -0.2656 -0.0612
  173SAPI   H4R19592   2.794   4.165  10.357 -1.3175  1.9004  0.5757
  173SAPI   H4S19593   2.955   4.172  10.265  1.5518  0.4944  1.3791
  173SAPI   C2519594   2.800   4.323  10.209  0.2397 -0.2678 -0.2118
  173SAPI   H5R19595   2.710   4.359  10.262  1.2411  0.9521  0.7384
  173SAPI   C2619596   2.851   4.367  10.084  0.0565 -0.1260 -0.0943
  173SAPI   H6R19597   2.785   4.440  10.033 -1.1576 -0.0922  1.4578
  173SAPI   C2719598   2.980   4.316  10.024 -0.3263  0.3687 -0.5145
  173SAPI   H7R19599   2.985   4.205  10.033  0.3009  0.3874 -0.5751
  173SAPI   H7S19600   3.067   4.352  10.083  0.1304 -0.4408 -0.6796
  173SAPI   C2819601   3.002   4.367   9.885  0.4121  0.9117  1.0192
  173SAPI   H8R19602   3.021   4.474   9.873 -1.4187  1.2308  0.6998
  173SAPI   C2919603   2.987   4.292   9.775 -0.6351 -0.2505  0.5318
  173SAPI   H9R19604   3.013   4.331   9.675  0.3774 -2.5840 -0.2028
  173SAPI  C21019605   2.948   4.148   9.762  0.1223 -0.7278  0.0567
  173SAPI  H10R19606   2.842   4.139   9.793 -0.5733  0.3154 -1.8962
  173SAPI  H10S19607   2.997   4.093   9.846 -1.5475  0.8048  2.1652
  173SAPI  C21119608   2.971   4.096   9.621 -0.5132 -0.3235 -0.2383
  173SAPI  H11R19609   3.074   4.100   9.583 -0.2885  1.5212  0.4876
  173SAPI  C21219610   2.868   4.058   9.543 -0.3405  0.0824  0.5639
  173SAPI  H12R19611   2.896   4.024   9.442  0.6696  1.4969  0.3320
  173SAPI  C21319612   2.717   4.048   9.569  0.3474 -0.3386 -0.2634
  173SAPI  H13R19613   2.667   4.145   9.553 -0.8536 -1.1605 -1.6553
  173SAPI  H13S19614   2.699   4.024   9.676  1.8054 -1.3147 -0.1957
  173SAPI  C21419615   2.651   3.946   9.477  0.2271 -0.0624 -0.3074
  173SAPI  H14R19616   2.632   3.848   9.523 -1.6444  0.9970  1.3332
  173SAPI  C21519617   2.598   3.966   9.359 -0.2054  0.5189  0.5342
  173SAPI  H15R19618   2.559   3.881   9.302  0.4811  0.4798  0.1174
  173SAPI  C21619619   2.590   4.099   9.281 -0.2138  0.1410  0.0321
  173SAPI  H16R19620   2.671   4.164   9.319 -0.7133 -0.0891  1.5569
  173SAPI  H16S19621   2.498   4.159   9.294 -0.6182 -0.1822 -1.1582
  173SAPI  C21719622   2.610   4.079   9.124  0.7408 -0.3754 -0.5003
  173SAPI  H17R19623   2.514   4.038   9.086  0.2155 -0.3334  0.7485
  173SAPI  H17S19624   2.687   4.005   9.095  0.4418 -0.6574 -0.5835
  173SAPI  C21819625   2.633   4.204   9.042 -0.7758  0.0591 -0.6989
  173SAPI  H18R19626   2.550   4.278   9.041 -0.5554  0.5263  2.8906
  173SAPI  H18S19627   2.649   4.178   8.935  0.0662  0.3399 -0.6467
  173SAPI  C21919628   2.761   4.272   9.088 -0.2635 -0.4781  0.3794
  173SAPI  H19R19629   2.851   4.208   9.073 -0.7265 -1.1387  0.3649
  173SAPI  H19S19630   2.749   4.304   9.193  2.5037 -0.9788  0.9289
  173SAPI  C22019631   2.793   4.409   9.015 -1.0819  0.1522  0.1667
  173SAPI  H20R19632   2.878   4.460   9.066  0.2489 -0.2150 -1.5899
  173SAPI  H20S19633   2.699   4.467   9.005 -1.7120 -1.0391 -1.1635
  173SAPI  H20T19634   2.825   4.399   8.909 -2.8066 -2.5128 -0.1939
  173SAPI   C3319635   3.637   4.494  10.069 -0.5597  0.1723  0.5363
  173SAPI   H3X19636   3.642   4.387  10.043 -0.2990  0.0598  1.0291
  173SAPI   H3Y19637   3.719   4.514  10.141 -0.8983  1.4204  0.6080
  173SAPI   C3419638   3.638   4.598   9.951  0.2481  0.4666  0.0372
  173SAPI   H4X19639   3.665   4.699   9.989  0.4086  1.2880 -2.0970
  173SAPI   H4Y19640   3.531   4.589   9.922  0.1802 -1.9428  0.7708
  173SAPI   C3519641   3.733   4.564   9.836 -0.1198  0.0697  0.4085
  173SAPI   H5X19642   3.831   4.527   9.874  0.7162  0.2314 -1.4685
  173SAPI   H5Y19643   3.757   4.653   9.774 -3.0875  0.6361 -0.0563
  173SAPI   C3619644   3.677   4.459   9.745  0.0032 -0.3361  0.4089
  173SAPI   H6X19645   3.585   4.506   9.705 -0.2460 -0.5253  0.7563
  173SAPI   H6Y19646   3.647   4.369   9.803  2.0867 -1.2776  0.1285
  173SAPI   C3719647   3.769   4.417   9.628  0.8122 -0.1641  0.3427
  173SAPI   H7X19648   3.870   4.387   9.661  1.5602 -0.0803 -1.7260
  173SAPI   H7Y19649   3.789   4.510   9.570 -2.8127 -0.3362 -1.4902
  173SAPI   C3819650   3.709   4.315   9.543  0.1901  0.6651  0.3122
  173SAPI   H8X19651   3.601   4.328   9.520  1.0102  1.4639 -4.0224
  173SAPI   H8Y19652   3.714   4.215   9.591  0.9606  0.7369  0.3846
  173SAPI   C3919653   3.784   4.305   9.411  0.2217  0.0697  0.8270
  173SAPI   H9X19654   3.769   4.200   9.377 -0.8925  0.5387 -0.2193
  173SAPI   H9Y19655   3.892   4.317   9.431  0.6282 -2.9919  0.9102
  173SAPI  C31019656   3.743   4.399   9.303 -0.8400 -0.5921 -0.4923
  173SAPI  H10X19657   3.781   4.500   9.330 -0.0923 -0.7407 -0.9765
  173SAPI  H10Y19658   3.632   4.402   9.302 -0.8722 -0.4139  0.9879
  173SAPI  C31119659   3.797   4.358   9.165  0.2204  0.3502 -0.7139
  173SAPI  H11X19660   3.755   4.255   9.157 -0.5545  0.5796  0.2614
  173SAPI  H11Y19661   3.907   4.346   9.172  0.2031 -0.5290 -1.6704
  173SAPI  C31219662   3.754   4.450   9.048 -0.7798 -0.0578  0.0151
  173SAPI  H12X19663   3.786   4.556   9.059  1.8050 -0.9134  1.3604
  173SAPI  H12Y19664   3.643   4.448   9.057 -1.1353 -3.2322 -2.8963
  173SAPI  C31319665   3.776   4.390   8.910  0.8764 -0.6196  0.4383
  173SAPI  H13X19666   3.720   4.295   8.916 -0.0375 -0.0052  2.1206
  173SAPI  H13Y19667   3.883   4.365   8.894  1.0015  1.3932 -2.7534
  173SAPI  C31419668   3.721   4.475   8.793 -0.0909  0.2221 -0.1994
  173SAPI  H14X19669   3.638   4.542   8.824  1.0780  1.8345 -0.4018
  173SAPI  H14Y19670   3.678   4.407   8.716  1.0202  1.5181 -2.0462
  173SAPI  C31519671   3.834   4.557   8.724  0.3345 -0.0681  0.1300
  173SAPI  H15X19672   3.912   4.481   8.700 -0.0683 -1.1150  1.9645
  173SAPI  H15Y19673   3.880   4.635   8.789  1.9799 -0.4309 -0.5524
  173SAPI  C31619674   3.793   4.609   8.584 -0.0795  0.3310 -0.0990
  173SAPI  H16X19675   3.717   4.690   8.585 -1.9903 -1.3718  1.5112
  173SAPI  H16Y19676   3.779   4.516   8.526  0.8244 -0.1307  0.4044
  173SAPI  C31719677   3.913   4.678   8.510  0.1974  0.1885 -0.0459
  173SAPI  H17X19678   4.006   4.618   8.522 -0.0430 -0.3152 -0.6056
  173SAPI  H17Y19679   3.929   4.770   8.570 -1.4223 -0.0432  0.8016
  173SAPI  C31819680   3.879   4.707   8.364  0.1232 -0.4129 -0.4491
  173SAPI  H18X19681   3.899   4.612   8.311  2.2005 -0.5366  0.4505
  173SAPI  H18Y19682   3.942   4.787   8.319 -0.9916  0.5407 -0.3794
  173SAPI  H18Z19683   3.779   4.754   8.353  1.2932  2.4063 -0.0679
  174SAPI   C1219684   5.614   0.824  10.790  0.1038  0.2417  0.2713
  174SAPI    H219685   5.519   0.769  10.771  0.4523 -0.5366  0.7213
  174SAPI    O219686   5.602   0.885  10.917 -0.5667 -0.4331 -0.5143
  174SAPI   HO219687   5.543   0.960  10.906 -1.1109 -0.7688  0.0489
  174SAPI   C1319688   5.733   0.731  10.775  0.2002 -0.1237  0.4541
  174SAPI    H319689   5.736   0.698  10.669 -0.9536 -2.1414  0.9977
  174SAPI    O319690   5.710   0.605  10.844 -0.0786 -0.3430 -0.4372
  174SAPI   HO319691   5.660   0.622  10.924 -0.6567  1.3922 -1.1144
  174SAPI   C1419692   5.864   0.798  10.814 -0.0149  0.1447 -0.2403
  174SAPI    H419693   5.857   0.835  10.918 -1.6189 -0.5214 -0.0830
  174SAPI    O419694   5.974   0.708  10.806  0.3574  0.2432 -0.0905
  174SAPI   HO419695   6.001   0.672  10.721 -0.0936  3.6517 -1.8878
  174SAPI   C1519696   5.894   0.920  10.726  0.2410  0.2380  0.5082
  174SAPI    H519697   5.917   0.884  10.623 -0.2703 -0.3226  0.5809
  174SAPI    O519698   6.019   0.991  10.755  0.3515  0.1677  0.3037
  174SAPI   HO519699   6.061   0.997  10.669 -1.0622 -3.3673 -0.8248
  174SAPI   C1619700   5.768   1.009  10.710  0.1860  0.1171 -0.4990
  174SAPI    H619701   5.764   1.062  10.808 -0.0600  0.0024 -0.4473
  174SAPI    O619702   5.788   1.114  10.615 -0.2773 -0.0640 -0.2227
  174SAPI   HO619703   5.704   1.139  10.575  0.4846  2.1330 -0.5572
  174SAPI   C1119704   5.633   0.930  10.682  0.1548 -0.1236  0.1098
  174SAPI    H119705   5.651   0.888  10.581  1.4026 -1.7061  0.9422
  174SAPI     P19706   5.385   0.994  10.620  0.3362  0.0970  0.2194
  174SAPI   O1319707   5.272   1.070  10.676  0.5283  0.3095  0.0726
  174SAPI   O1419708   5.362   0.851  10.590  0.3426 -0.4264 -0.0719
  174SAPI   O1219709   5.525   1.022  10.691  0.3637 -0.0012  0.9137
  174SAPI   O1119710   5.428   1.069  10.494  0.3635  0.6490  0.0610
  174SAPI    C119711   5.394   1.027  10.361  0.4980  0.0033  0.3300
  174SAPI    HA19712   5.316   0.949  10.352  0.6349 -0.2036  0.9044
  174SAPI    HB19713   5.354   1.120  10.315 -1.1531 -1.1374 -0.6746
  174SAPI    C219714   5.524   0.972  10.292  0.0104 -0.2500  0.0615
  174SAPI    HS19715   5.559   0.890  10.358 -1.7658 -0.9135  0.2270
  174SAPI   O2119716   5.614   1.082  10.278  0.3535 -0.4973  0.3505
  174SAPI   C2119717   5.740   1.046  10.270  0.0980  0.0474 -0.1198
  174SAPI   O2219718   5.786   0.935  10.280  0.1055  0.0298 -0.0806
  174SAPI   C2219719   5.815   1.170  10.231 -0.0972 -0.2049  0.1946
  174SAPI   H2R19720   5.775   1.220  10.141  0.4393 -0.8865 -0.4277
  174SAPI   H2S19721   5.799   1.237  10.319 -1.3219  0.8599 -0.7935
  174SAPI    C319722   5.484   0.916  10.152 -0.2121  0.0671 -0.2280
  174SAPI    HX19723   5.424   0.824  10.170 -0.2532  0.5557  2.6716
  174SAPI    HY19724   5.577   0.885  10.100 -0.4241 -0.7281 -0.1405
  174SAPI   O3119725   5.403   1.009  10.081  0.3436  0.0503 -0.1903
  174SAPI   C3119726   5.396   0.987   9.944 -0.2610  0.6873  0.3990
  174SAPI   O3219727   5.450   0.894   9.883 -0.1972 -0.1033 -0.0079
  174SAPI   C3219728   5.292   1.076   9.877 -0.1761  0.2333 -0.7029
  174SAPI   H2X19729   5.265   1.158   9.948  0.0256  1.0881 -1.5831
  174SAPI   H2Y19730   5.202   1.011   9.871 -1.0666  1.4193 -0.5799
  174SAPI   C2319731   5.965   1.151  10.217  0.1496  0.1371  0.4008
  174SAPI   H3R19732   6.017   1.084  10.289  0.1018  0.1185  0.4178
  174SAPI   H3S19733   6.016   1.249  10.233  1.8949 -0.8423  1.0271
  174SAPI   C2419734   6.003   1.120  10.070 -0.8948  0.1247 -0.1275
  174SAPI   H4R19735   6.111   1.130  10.048 -1.4128 -0.1225 -3.3354
  174SAPI   H4S19736   5.972   1.202  10.002  0.2726 -1.5010 -2.8162
  174SAPI   C2519737   5.937   0.990  10.016 -0.2603 -0.1013 -0.0233
  174SAPI   H5R19738   5.925   0.905  10.085  2.4436  0.0188  0.7094
  174SAPI   C2619739   5.887   0.978   9.894 -0.5252  0.9984 -0.1464
  174SAPI   H6R19740   5.849   0.878   9.866 -1.1941  1.1622  0.1732
  174SAPI   C2719741   5.884   1.097   9.788  0.5835  0.4992  0.0547
  174SAPI   H7R19742   5.970   1.167   9.795 -1.9407  3.6323  2.2767
  174SAPI   H7S19743   5.795   1.151   9.824 -0.2351 -0.9470  0.2979
  174SAPI   C2819744   5.859   1.057   9.643  0.3002  0.1156  0.0566
  174SAPI   H8R19745   5.775   0.991   9.617 -1.3811  2.5532 -1.1029
  174SAPI   C2919746   5.936   1.092   9.537  0.8120  0.2639 -0.1319
  174SAPI   H9R19747   5.898   1.072   9.436  2.9341 -0.9899 -0.7353
  174SAPI  C21019748   6.054   1.191   9.534  0.6809  0.2911 -0.6972
  174SAPI  H10R19749   6.136   1.151   9.470  0.1381  0.6317 -1.6117
  174SAPI  H10S19750   6.094   1.185   9.638 -0.9947  0.9754  0.0153
  174SAPI  C21119751   6.024   1.333   9.498 -0.0253 -0.5073 -0.7865
  174SAPI  H11R19752   6.008   1.414   9.571 -0.2217 -1.0290 -0.2467
  174SAPI  C21219753   6.018   1.380   9.372  0.1116 -0.2669 -0.9134
  174SAPI  H12R19754   6.000   1.487   9.355  0.6726 -0.3256 -1.9764
  174SAPI  C21319755   6.041   1.304   9.245  0.3759  0.4594 -0.2664
  174SAPI  H13R19756   5.949   1.247   9.219  0.5351  0.0460  0.0648
  174SAPI  H13S19757   6.116   1.224   9.261 -1.2728 -1.0640  0.1691
  174SAPI  C21419758   6.102   1.394   9.136  0.3553 -0.6427  0.1602
  174SAPI  H14R19759   6.154   1.487   9.162 -1.1636  0.5217 -0.7678
  174SAPI  C21519760   6.086   1.374   9.006  0.3592  0.3673 -0.3843
  174SAPI  H15R19761   6.140   1.436   8.933 -1.1024  0.6633 -1.2664
  174SAPI  C21619762   6.012   1.262   8.933 -0.6699  0.2566  0.2634
  174SAPI  H16R19763   5.982   1.289   8.830 -0.5913 -2.4852 -0.5552
  174SAPI  H16S19764   5.918   1.240   8.987 -0.2688 -0.4421  0.6938
  174SAPI  C21719765   6.091   1.130   8.930 -0.4644  0.4914  0.1074
  174SAPI  H17R19766   6.120   1.103   9.034 -1.9404  2.0067  0.9654
  174SAPI  H17S19767   6.192   1.152   8.890  0.6461  2.7380  3.6367
  174SAPI  C21819768   6.031   1.002   8.871 -0.4978 -0.1381 -0.3830
  174SAPI  H18R19769   5.981   1.024   8.775 -2.2560 -1.5562  0.1632
  174SAPI  H18S19770   5.947   0.978   8.940  0.0598 -1.2629 -0.0785
  174SAPI  C21919771   6.139   0.890   8.858  0.7291  0.4822 -0.2124
  174SAPI  H19R19772   6.087   0.795   8.834  1.6144 -0.6724  2.0652
  174SAPI  H19S19773   6.177   0.868   8.960  0.1462 -1.6352 -0.3870
  174SAPI  C22019774   6.255   0.913   8.752 -0.2250 -0.0138 -0.4109
  174SAPI  H20R19775   6.314   1.003   8.780  1.7651 -1.4453  0.2031
  174SAPI  H20S19776   6.213   0.919   8.649  0.0910  1.3759 -0.4773
  174SAPI  H20T19777   6.329   0.831   8.760 -0.9856 -0.5976  1.2263
  174SAPI   C3319778   5.322   1.126   9.737 -0.5161 -0.2404  0.6112
  174SAPI   H3X19779   5.428   1.161   9.739 -1.3597  2.4556  2.1336
  174SAPI   H3Y19780   5.262   1.212   9.703  1.5862  0.4610 -1.6086
  174SAPI   C3419781   5.307   1.010   9.637  0.3690  0.9899 -0.4271
  174SAPI   H4X19782   5.200   0.978   9.643  1.0498 -1.7289 -1.5154
  174SAPI   H4Y19783   5.371   0.921   9.655  0.8567  0.5952 -3.5759
  174SAPI   C3519784   5.326   1.044   9.487 -0.3665  0.0444 -0.0341
  174SAPI   H5X19785   5.433   1.058   9.460 -0.6352  0.6959 -0.7938
  174SAPI   H5Y19786   5.266   1.135   9.467 -1.9201 -1.2593 -1.5829
  174SAPI   C3619787   5.267   0.934   9.394  0.2909 -0.3085  0.4300
  174SAPI   H6X19788   5.157   0.948   9.390  0.4831  0.9841 -1.4297
  174SAPI   H6Y19789   5.295   0.831   9.426 -0.9970 -0.7437  0.2117
  174SAPI   C3719790   5.304   0.959   9.246 -0.1536  0.3836  0.5058
  174SAPI   H7X19791   5.415   0.968   9.253  0.0763 -0.0925 -1.8350
  174SAPI   H7Y19792   5.264   1.057   9.211  0.9968  0.3051 -1.1477
  174SAPI   C3819793   5.272   0.848   9.145 -0.3406 -0.3905  0.2737
  174SAPI   H8X19794   5.169   0.865   9.106 -0.8462 -0.3775  1.5419
  174SAPI   H8Y19795   5.264   0.752   9.200  1.6692 -0.3641  0.7076
  174SAPI   C3919796   5.379   0.824   9.031 -0.3361 -0.3381 -0.3863
  174SAPI   H9X19797   5.480   0.832   9.076 -0.1511 -0.2812 -0.8074
  174SAPI   H9Y19798   5.372   0.909   8.959 -0.0837  0.9472  1.0637
  174SAPI  C31019799   5.347   0.695   8.956  0.0244 -0.6229  1.1587
  174SAPI  H10X19800   5.273   0.633   9.012 -0.4546 -1.4395 -0.3257
  174SAPI  H10Y19801   5.442   0.638   8.959 -1.2525 -2.8401  2.6205
  174SAPI  C31119802   5.305   0.720   8.809  0.3512 -0.3271  0.9429
  174SAPI  H11X19803   5.289   0.623   8.757  0.7925 -0.6844  1.4585
  174SAPI  H11Y19804   5.392   0.775   8.766  1.2999 -1.8727  0.7910
  174SAPI  C31219805   5.188   0.816   8.785 -0.2765  0.6749 -0.4724
  174SAPI  H12X19806   5.215   0.921   8.805 -2.2436  0.9888  0.7820
  174SAPI  H12Y19807   5.112   0.793   8.863 -0.9450 -0.8593 -1.5197
  174SAPI  C31319808   5.130   0.801   8.642 -0.1192  0.5139 -0.7004
  174SAPI  H13X19809   5.078   0.703   8.646 -1.0820  0.9884  3.7187
  174SAPI  H13Y19810   5.216   0.807   8.573 -0.5583 -0.9189 -1.4002
  174SAPI  C31419811   5.022   0.908   8.610 -0.5702 -0.0947 -0.3150
  174SAPI  H14X19812   4.986   0.882   8.508 -3.9715 -0.1287  0.7780
  174SAPI  H14Y19813   5.060   1.013   8.613  0.8066 -0.5816 -0.1064
  174SAPI  C31519814   4.893   0.900   8.699 -0.5778 -0.2495  0.5680
  174SAPI  H15X19815   4.914   0.929   8.804 -0.0656 -2.0103  0.9846
  174SAPI  H15Y19816   4.861   0.794   8.702 -2.6449  0.3481  1.0158
  174SAPI  C31619817   4.768   0.965   8.643 -0.1670 -0.1294 -1.0500
  174SAPI  H16X19818   4.731   0.925   8.546  2.4145  0.1679 -2.2302
  174SAPI  H16Y19819   4.797   1.071   8.627  0.6253 -0.4923 -2.1746
  174SAPI  C31719820   4.654   0.957   8.754  0.8506  0.6297 -0.2208
  174SAPI  H17X19821   4.695   0.992   8.851  1.1101  1.4744 -0.6326
  174SAPI  H17Y19822   4.645   0.848   8.776  0.5530  1.2469  3.2919
  174SAPI  C31819823   4.524   1.029   8.710 -0.8337  0.1245 -0.1348
  174SAPI  H18X19824   4.444   1.033   8.787 -0.9079  0.5601 -0.2270
  174SAPI  H18Y19825   4.482   0.986   8.617  0.4239 -0.1187 -0.6170
  174SAPI  H18Z19826   4.544   1.139   8.703  2.1822  0.0606  3.7513
  175SAPI   C1219827   2.301   0.782   6.038  0.4746  0.3555  0.0473
  175SAPI    H219828   2.321   0.789   6.147 -0.2248 -0.9493  0.2743
  175SAPI    O219829   2.425   0.789   5.964 -0.1100 -0.6976  0.4144
  175SAPI   HO219830   2.450   0.882   5.961  1.2375 -1.0538 -0.4407
  175SAPI   C1319831   2.221   0.654   6.002 -0.1196 -0.2509 -0.3831
  175SAPI    H319832   2.128   0.661   6.062 -0.0096 -0.9902 -0.1225
  175SAPI    O319833   2.290   0.546   6.044  0.1495 -0.5275 -0.4497
  175SAPI   HO319834   2.382   0.563   6.024  0.4835  1.4046  2.2595
  175SAPI   C1419835   2.185   0.654   5.854 -0.1514 -0.4215  0.3995
  175SAPI    H419836   2.282   0.656   5.801 -1.5485 -0.0570 -2.2951
  175SAPI    O419837   2.116   0.532   5.814  0.3101 -0.8688 -0.0333
  175SAPI   HO419838   2.131   0.525   5.719 -1.2074 -2.5130 -0.2200
  175SAPI   C1519839   2.100   0.773   5.811  0.0713  0.0484  0.2268
  175SAPI    H519840   2.006   0.762   5.870  0.6530 -1.4890  0.9270
  175SAPI    O519841   2.055   0.774   5.671  0.1863  0.4168 -0.3108
  175SAPI   HO519842   2.068   0.867   5.650  1.3280  0.4643  0.4858
  175SAPI   C1619843   2.181   0.901   5.846  0.0454  0.5753  0.8720
  175SAPI    H619844   2.276   0.907   5.787 -0.3338  1.1925  0.3111
  175SAPI    O619845   2.100   1.014   5.812 -0.1600  0.0531  0.5594
  175SAPI   HO619846   2.096   1.070   5.890  1.2069  1.5645 -0.4175
  175SAPI   C1119847   2.221   0.905   5.996  0.4274 -0.6948 -0.8717
  175SAPI    H119848   2.126   0.896   6.052  0.5236 -1.9470 -0.8694
  175SAPI     P19849   2.212   1.157   6.094  0.0947 -0.1990 -0.3479
  175SAPI   O1319850   2.084   1.152   6.033 -0.7531  0.3693 -0.0037
  175SAPI   O1419851   2.289   1.281   6.073 -0.3379 -0.8785 -0.0316
  175SAPI   O1219852   2.299   1.027   6.031  0.3895  0.2342 -0.1077
  175SAPI   O1119853   2.196   1.135   6.244 -0.3640  0.1724 -0.2378
  175SAPI    C119854   2.307   1.135   6.333  0.1709 -0.2178 -0.9295
  175SAPI    HA19855   2.378   1.061   6.292 -1.1372 -1.8261 -0.4051
  175SAPI    HB19856   2.353   1.236   6.347  1.8599 -1.2603  2.1019
  175SAPI    C219857   2.262   1.097   6.483  0.1559 -0.1854  0.5447
  175SAPI    HS19858   2.348   1.108   6.552 -0.9278  3.5045  1.5720
  175SAPI   O2119859   2.221   0.958   6.486 -0.3870 -0.5850  0.0472
  175SAPI   C2119860   2.315   0.872   6.472  0.4975  0.3686  0.2045
  175SAPI   O2219861   2.430   0.896   6.442 -0.5949  0.4219  0.0757
  175SAPI   C2219862   2.260   0.735   6.504 -0.0069 -0.0440  0.3388
  175SAPI   H2R19863   2.178   0.702   6.436  0.6946 -4.1632  1.2696
  175SAPI   H2S19864   2.344   0.663   6.496 -0.4383 -0.3715 -3.1511
  175SAPI    C319865   2.146   1.184   6.534  0.2728  0.7350 -1.1723
  175SAPI    HX19866   2.060   1.160   6.468 -0.8858 -0.0994  0.5640
  175SAPI    HY19867   2.166   1.293   6.526 -0.4074  1.0630  0.8736
  175SAPI   O3119868   2.130   1.156   6.677 -0.6313  0.4824  0.0892
  175SAPI   C3119869   2.007   1.104   6.704 -0.6770  0.2547 -0.2370
  175SAPI   O3219870   1.915   1.109   6.625  0.1612 -0.0017 -0.8182
  175SAPI   C3219871   1.993   1.057   6.849 -0.4070  0.1700 -0.1686
  175SAPI   H2X19872   2.042   1.137   6.909 -1.2965  0.4190  0.2378
  175SAPI   H2Y19873   2.050   0.963   6.862 -0.9502  0.2407  3.7692
  175SAPI   C2319874   2.191   0.738   6.645  0.6631  0.0626  0.0497
  175SAPI   H3R19875   2.156   0.632   6.646 -2.2831  0.9563  0.6763
  175SAPI   H3S19876   2.098   0.797   6.648  0.2873 -0.3488 -2.2320
  175SAPI   C2419877   2.279   0.778   6.758 -0.6808 -0.3471  0.1554
  175SAPI   H4R19878   2.217   0.789   6.850  0.9132  0.9090  1.1419
  175SAPI   H4S19879   2.323   0.877   6.734 -0.5794 -0.3877  0.1737
  175SAPI   C2519880   2.389   0.672   6.766  0.0992 -0.2937 -0.0479
  175SAPI   H5R19881   2.457   0.655   6.681 -1.4722 -1.5394 -1.1136
  175SAPI   C2619882   2.407   0.589   6.875  0.1435  0.6748  0.9621
  175SAPI   H6R19883   2.499   0.529   6.879 -0.7453 -0.6643  1.9045
  175SAPI   C2719884   2.331   0.590   7.006  0.7236  0.1483  0.6387
  175SAPI   H7R19885   2.353   0.491   7.051  0.3464 -0.4229 -0.3943
  175SAPI   H7S19886   2.222   0.603   6.991  0.3582 -0.8462  2.1894
  175SAPI   C2819887   2.376   0.695   7.103 -0.8193  0.0095 -0.4190
  175SAPI   H8R19888   2.368   0.801   7.074  3.5788  2.0035  4.1147
  175SAPI   C2919889   2.425   0.678   7.233 -1.6540  0.1652  0.4873
  175SAPI   H9R19890   2.461   0.770   7.283  0.0530 -2.0321  3.6585
  175SAPI  C21019891   2.450   0.543   7.304  0.3188  0.2818 -0.1239
  175SAPI  H10R19892   2.462   0.462   7.229  2.2382  0.7094 -0.3281
  175SAPI  H10S19893   2.355   0.521   7.358 -0.0952 -0.9631 -1.2928
  175SAPI  C21119894   2.576   0.545   7.386 -0.3056  1.4698 -0.5016
  175SAPI  H11R19895   2.671   0.511   7.343  0.1909  0.0743  1.5474
  175SAPI  C21219896   2.582   0.579   7.515  1.2794  0.4152 -0.2453
  175SAPI  H12R19897   2.677   0.594   7.568  0.5449  0.8238  1.0071
  175SAPI  C21319898   2.460   0.622   7.600 -0.6849  0.4115  0.4422
  175SAPI  H13R19899   2.367   0.631   7.539 -1.3554  1.4790  1.5600
  175SAPI  H13S19900   2.489   0.727   7.626  1.5999 -0.3777  1.3188
  175SAPI  C21419901   2.435   0.542   7.719  0.0797  0.3394 -0.4974
  175SAPI  H14R19902   2.335   0.500   7.706  0.5455 -0.7877 -0.4982
  175SAPI  C21519903   2.522   0.504   7.817  0.0227 -0.2159 -0.3490
  175SAPI  H15R19904   2.492   0.428   7.890 -1.3270 -0.9930 -1.6503
  175SAPI  C21619905   2.672   0.535   7.830  0.2131 -0.2233  0.5246
  175SAPI  H16R19906   2.690   0.635   7.783  1.8926 -0.4584  0.6053
  175SAPI  H16S19907   2.717   0.453   7.770 -2.1167 -0.1983 -1.4228
  175SAPI  C21719908   2.732   0.528   7.972 -0.5028 -0.2854 -0.2309
  175SAPI  H17R19909   2.680   0.456   8.038 -0.6374  0.4936  0.5378
  175SAPI  H17S19910   2.732   0.630   8.017  1.2738 -0.7225  0.8824
  175SAPI  C21819911   2.878   0.485   7.973  0.1346  0.0187  0.1975
  175SAPI  H18R19912   2.934   0.545   7.898 -1.6402  2.4750  0.6894
  175SAPI  H18S19913   2.893   0.377   7.954 -2.2295 -0.4993  0.9176
  175SAPI  C21919914   2.932   0.495   8.113 -1.0402  0.3864 -0.1541
  175SAPI  H19R19915   2.877   0.430   8.184 -0.7364  0.7635  0.4300
  175SAPI  H19S19916   2.928   0.600   8.148  0.3329  1.0096 -1.7058
  175SAPI  C22019917   3.081   0.449   8.127 -0.5108 -0.1447 -0.2241
  175SAPI  H20R19918   3.098   0.386   8.217  2.8367 -2.6723 -2.4107
  175SAPI  H20S19919   3.154   0.533   8.134  0.4628 -0.5516 -3.6774
  175SAPI  H20T19920   3.116   0.383   8.045  0.7328  1.2237 -0.8553
  175SAPI   C3319921   1.843   1.037   6.886  0.6018  0.2024  1.6014
  175SAPI   H3X19922   1.777   0.978   6.819 -0.6044  3.1305  0.0548
  175SAPI   H3Y19923   1.794   1.134   6.866 -0.4025 -0.7892 -1.2176
  175SAPI   C3419924   1.825   0.998   7.036 -0.2050 -0.3088 -1.1373
  175SAPI   H4X19925   1.738   1.048   7.084  1.1796 -0.4051  1.6663
  175SAPI   H4Y19926   1.918   1.027   7.088 -0.9408 -1.7635  1.1041
  175SAPI   C3519927   1.803   0.847   7.060 -0.0574 -0.6974  0.2879
  175SAPI   H5X19928   1.706   0.815   7.016 -0.3559  0.0405  0.3844
  175SAPI   H5Y19929   1.801   0.832   7.170 -1.9764 -0.6656  0.2909
  175SAPI   C3619930   1.910   0.760   6.991  0.9631 -0.0176  0.5020
  175SAPI   H6X19931   2.015   0.795   7.007  0.5013  1.6118  0.0896
  175SAPI   H6Y19932   1.886   0.767   6.883 -0.7156  0.1603  0.8594
  175SAPI   C3719933   1.926   0.614   7.033  0.2986  0.2249 -0.1638
  175SAPI   H7X19934   2.010   0.576   6.971 -1.1429  1.9026 -3.3879
  175SAPI   H7Y19935   1.828   0.575   6.999  1.5784 -1.3913 -2.2698
  175SAPI   C3819936   1.933   0.586   7.182 -0.8348 -0.1175 -1.1044
  175SAPI   H8X19937   1.903   0.482   7.206 -3.5482  1.0689  1.1378
  175SAPI   H8Y19938   1.847   0.647   7.215 -0.6167  0.6054 -1.8317
  175SAPI   C3919939   2.063   0.635   7.262 -0.0266  0.7190  0.6580
  175SAPI   H9X19940   2.091   0.741   7.248 -1.7814  1.2061  0.6567
  175SAPI   H9Y19941   2.152   0.575   7.231 -0.7879  0.9539 -2.2506
  175SAPI  C31019942   2.046   0.607   7.416  0.0573 -0.2622 -0.7843
  175SAPI  H10X19943   2.111   0.688   7.457 -3.1344  0.8319  2.6692
  175SAPI  H10Y19944   2.082   0.503   7.430  3.5519  0.7191 -1.4823
  175SAPI  C31119945   1.912   0.630   7.486 -0.1511 -1.0668  0.3108
  175SAPI  H11X19946   1.846   0.551   7.445  2.1091 -2.0899 -1.5688
  175SAPI  H11Y19947   1.875   0.730   7.452  1.1418 -0.4426  0.6787
  175SAPI  C31219948   1.913   0.643   7.635 -0.0106 -0.8365  0.2831
  175SAPI  H12X19949   1.811   0.673   7.664 -0.0952  1.0379 -1.6410
  175SAPI  H12Y19950   1.977   0.732   7.657  2.1720 -1.8482 -1.5653
  175SAPI  C31319951   1.956   0.517   7.714 -0.4646  0.9137  0.5665
  175SAPI  H13X19952   2.062   0.497   7.687 -0.8374  1.4940 -1.4714
  175SAPI  H13Y19953   1.881   0.439   7.688 -0.4845  1.0596  0.1798
  175SAPI  C31419954   1.952   0.542   7.867  0.4531  0.4296  0.9107
  175SAPI  H14X19955   1.927   0.449   7.922  0.2621  1.4313  2.5828
  175SAPI  H14Y19956   1.866   0.607   7.891 -0.8512 -1.2314  0.8939
  175SAPI  C31519957   2.081   0.600   7.922 -0.3869  1.0054 -0.3766
  175SAPI  H15X19958   2.098   0.701   7.880 -0.6719  1.5603  0.7977
  175SAPI  H15Y19959   2.165   0.535   7.889 -1.7539 -0.4652 -1.0991
  175SAPI  C31619960   2.081   0.593   8.079  0.8399  0.1412  0.2600
  175SAPI  H16X19961   2.101   0.489   8.111 -0.3098 -0.0556  0.3963
  175SAPI  H16Y19962   1.977   0.610   8.114  0.7245  0.0269 -0.0269
  175SAPI  C31719963   2.193   0.666   8.153  0.0490 -0.3273  0.6211
  175SAPI  H17X19964   2.178   0.676   8.262 -2.1109  1.0949  0.2538
  175SAPI  H17Y19965   2.197   0.771   8.118 -3.0898  0.0143  1.0037
  175SAPI  C31819966   2.328   0.604   8.118  0.3244  0.1641  0.6335
  175SAPI  H18X19967   2.328   0.495   8.101  1.4307  0.2274  0.1159
  175SAPI  H18Y19968   2.398   0.632   8.200 -2.6506 -0.8861  3.7648
  175SAPI  H18Z19969   2.368   0.650   8.025 -1.3862  1.2547  0.4017
  176SAPI   C1219970   2.409   3.888   6.469  0.3004 -0.4809 -0.1825
  176SAPI    H219971   2.435   3.896   6.577 -0.6484  2.3899 -0.0520
  176SAPI    O219972   2.531   3.896   6.403  0.5005 -0.2860 -0.3259
  176SAPI   HO219973   2.598   3.949   6.445  1.1452 -0.0474 -1.6042
  176SAPI   C1319974   2.340   3.753   6.462 -0.0436 -0.2494 -0.2552
  176SAPI    H319975   2.255   3.758   6.533  0.1273  1.4651 -0.1272
  176SAPI    O319976   2.426   3.653   6.515 -0.4315 -0.5637 -0.1542
  176SAPI   HO319977   2.479   3.620   6.441  0.7820 -0.3384  0.5749
  176SAPI   C1419978   2.287   3.725   6.323  0.3933  0.5502  0.1220
  176SAPI    H419979   2.369   3.731   6.247  1.0274 -0.2731  0.7242
  176SAPI    O419980   2.241   3.593   6.302 -0.0162 -0.0595 -0.3748
  176SAPI   HO419981   2.168   3.589   6.364  1.2506  0.0107  1.1653
  176SAPI   C1519982   2.185   3.834   6.273 -0.1483 -0.2354  0.0873
  176SAPI    H519983   2.109   3.812   6.350  1.5020 -3.0682  1.0605
  176SAPI    O519984   2.127   3.809   6.144  0.4884 -0.2052  0.3315
  176SAPI   HO519985   2.190   3.821   6.073  1.1814  1.8909  1.2103
  176SAPI   C1619986   2.250   3.967   6.289  0.0843 -0.7693 -0.0104
  176SAPI    H619987   2.347   3.976   6.234  0.6154 -0.3054  0.9642
  176SAPI    O619988   2.153   4.066   6.256  0.2744  0.3708  0.0716
  176SAPI   HO619989   2.153   4.127   6.330 -0.1101  2.8486 -1.8384
  176SAPI   C1119990   2.305   3.995   6.433  0.0866 -0.7612 -0.2985
  176SAPI    H119991   2.219   3.987   6.503  0.8611  2.2394  1.1694
  176SAPI     P19992   2.341   4.199   6.610  0.3028 -0.0626 -0.0687
  176SAPI   O1319993   2.465   4.276   6.630  0.0841  0.2016  0.1282
  176SAPI   O1419994   2.308   4.108   6.719 -0.7457 -0.3012  0.3727
  176SAPI   O1219995   2.357   4.131   6.460  0.4540  1.0469  0.3749
  176SAPI   O1119996   2.214   4.299   6.576  0.4725  0.2289 -0.5276
  176SAPI    C119997   2.083   4.244   6.566  0.2910  0.0711 -0.6496
  176SAPI    HA19998   2.051   4.255   6.460 -1.5781 -0.6738 -0.1882
  176SAPI    HB19999   2.063   4.139   6.597  1.5770 -0.2282 -0.7681
  176SAPI    C220000   1.986   4.331   6.646  0.2499  0.7490  0.2475
  176SAPI    HS20001   2.025   4.434   6.632  1.0390  0.6922  1.7519
  176SAPI   O2120002   1.981   4.296   6.782  0.2547  0.0412 -0.2069
  176SAPI   C2120003   2.086   4.341   6.858  0.1993  0.1696 -0.0415
  176SAPI   O2220004   2.145   4.441   6.833 -0.1560  0.3414 -0.6505
  176SAPI   C2220005   2.088   4.252   6.986 -0.5668 -0.3552 -0.0244
  176SAPI   H2R20006   2.009   4.295   7.051 -1.0816 -0.7660 -0.3761
  176SAPI   H2S20007   2.064   4.150   6.949 -0.6379  0.0650 -1.1791
  176SAPI    C320008   1.846   4.317   6.582 -0.3177  0.2287  0.2644
  176SAPI    HX20009   1.832   4.207   6.575 -1.4972  0.4159 -0.6427
  176SAPI    HY20010   1.845   4.353   6.477  0.1393 -1.2807 -0.2722
  176SAPI   O3120011   1.749   4.388   6.664  0.7597  0.6340  0.3512
  176SAPI   C3120012   1.751   4.522   6.659 -0.4263  1.1006 -0.0217
  176SAPI   O3220013   1.826   4.581   6.586 -0.4845 -0.4406  0.1206
  176SAPI   C3220014   1.644   4.580   6.750  0.3035 -0.2757  0.1889
  176SAPI   H2X20015   1.599   4.498   6.810  2.1493 -0.4886  1.3450
  176SAPI   H2Y20016   1.570   4.632   6.684  1.1127 -0.6296 -1.0395
  176SAPI   C2320017   2.231   4.244   7.046 -0.1320 -0.0982 -0.5980
  176SAPI   H3R20018   2.276   4.344   7.063  0.6628 -0.8106  1.8308
  176SAPI   H3S20019   2.292   4.185   6.975  0.8123  1.2745 -0.9832
  176SAPI   C2420020   2.240   4.191   7.189  0.4948  0.5934  0.2763
  176SAPI   H4R20021   2.200   4.274   7.251  1.3638  1.5010 -0.3420
  176SAPI   H4S20022   2.338   4.164   7.234 -0.5240 -2.0304  1.1405
  176SAPI   C2520023   2.147   4.069   7.205  0.3395 -0.0855  0.1647
  176SAPI   H5R20024   2.180   3.988   7.139  0.2544  0.6817 -0.8374
  176SAPI   C2620025   2.049   4.058   7.298  0.1122 -0.0810  0.1840
  176SAPI   H6R20026   2.006   3.957   7.303  1.3274 -0.7314 -1.5681
  176SAPI   C2720027   1.999   4.166   7.390 -0.4497 -0.1093 -0.1299
  176SAPI   H7R20028   1.900   4.132   7.425 -0.8717  0.0577 -1.1213
  176SAPI   H7S20029   1.974   4.260   7.336 -2.6653 -1.0909 -0.9188
  176SAPI   C2820030   2.097   4.187   7.511  0.2983  0.2354  0.1675
  176SAPI   H8R20031   2.189   4.243   7.490  1.8690 -1.4369  2.1059
  176SAPI   C2920032   2.075   4.154   7.639  0.2234  0.6194 -0.0461
  176SAPI   H9R20033   2.147   4.187   7.715  0.3368 -0.3533  0.2729
  176SAPI  C21020034   1.958   4.088   7.704 -0.0883 -0.7006  0.4205
  176SAPI  H10R20035   1.987   3.986   7.735  1.9635  0.2661  1.8938
  176SAPI  H10S20036   1.869   4.079   7.638 -2.1442 -1.6111  3.1122
  176SAPI  C21120037   1.895   4.164   7.822 -0.0133  0.3357 -0.1399
  176SAPI  H11R20038   1.796   4.208   7.805 -0.0313  0.0637 -0.7769
  176SAPI  C21220039   1.941   4.165   7.943 -0.0269  0.9644  0.3739
  176SAPI  H12R20040   1.874   4.213   8.016 -0.0221 -0.6686  1.5031
  176SAPI  C21320041   2.057   4.086   7.998 -0.0843  0.2341 -0.0862
  176SAPI  H13R20042   2.098   4.142   8.084  1.7453 -1.0595 -0.0401
  176SAPI  H13S20043   2.141   4.086   7.925  1.0828 -1.2338  1.1774
  176SAPI  C21420044   2.023   3.947   8.044  1.1116 -0.2757  0.4114
  176SAPI  H14R20045   1.999   3.871   7.968  1.0515  0.1308  0.0156
  176SAPI  C21520046   2.055   3.897   8.164 -0.1247 -0.1211  0.1566
  176SAPI  H15R20047   2.033   3.790   8.177 -0.7880 -0.2355 -1.5796
  176SAPI  C21620048   2.119   3.970   8.276  0.4594 -0.6761  0.0562
  176SAPI  H16R20049   2.202   4.029   8.232  0.9670 -1.3015  0.1572
  176SAPI  H16S20050   2.166   3.894   8.343  1.2674 -2.3507 -2.2923
  176SAPI  C21720051   2.028   4.068   8.351 -0.5168 -0.5395 -0.3985
  176SAPI  H17R20052   1.973   4.008   8.428  0.2574  1.3507  1.7651
  176SAPI  H17S20053   1.954   4.124   8.289 -0.2827  2.0213  1.4658
  176SAPI  C21820054   2.103   4.179   8.431  0.6514  0.3181  0.5683
  176SAPI  H18R20055   2.162   4.235   8.356  1.0413  0.0986  0.7099
  176SAPI  H18S20056   2.180   4.133   8.496  2.8302  2.2318 -0.5041
  176SAPI  C21920057   2.008   4.273   8.505 -0.0344  0.1283  0.2581
  176SAPI  H19R20058   2.063   4.360   8.547 -1.3957  1.5440 -0.7727
  176SAPI  H19S20059   1.965   4.231   8.598 -2.9171 -0.2706 -1.1399
  176SAPI  C22020060   1.896   4.331   8.408  0.0450 -0.1591  0.0189
  176SAPI  H20R20061   1.840   4.404   8.471  0.1999 -1.0304  1.1928
  176SAPI  H20S20062   1.824   4.257   8.366 -1.5185  0.7801  0.9472
  176SAPI  H20T20063   1.946   4.387   8.326 -1.5233  1.0238 -0.1878
  176SAPI   C3320064   1.697   4.701   6.833 -0.2610  0.2439 -0.1559
  176SAPI   H3X20065   1.610   4.747   6.884 -1.3154 -1.1923 -0.5903
  176SAPI   H3Y20066   1.741   4.779   6.768  1.1166 -0.6770 -0.3858
  176SAPI   C3420067   1.805   4.659   6.937  0.4284 -0.0208  0.4936
  176SAPI   H4X20068   1.845   4.754   6.977 -0.7855 -0.1551  2.0813
  176SAPI   H4Y20069   1.895   4.613   6.890 -0.1463 -0.6299 -0.0277
  176SAPI   C3520070   1.756   4.568   7.045 -0.0017  0.2176 -0.2725
  176SAPI   H5X20071   1.763   4.466   7.002  1.5961  0.6328 -1.0638
  176SAPI   H5Y20072   1.648   4.594   7.060  0.5629  2.4727  0.3290
  176SAPI   C3620073   1.816   4.585   7.180  0.0006  0.6925  0.1183
  176SAPI   H6X20074   1.754   4.547   7.263  0.4094  1.3426  0.7310
  176SAPI   H6Y20075   1.820   4.693   7.202  0.2410  0.5906  0.5808
  176SAPI   C3720076   1.965   4.538   7.191  0.4432 -0.8060  0.1091
  176SAPI   H7X20077   2.011   4.575   7.097 -0.5076  1.5299  0.4943
  176SAPI   H7Y20078   1.960   4.428   7.198  1.0354 -1.0039 -1.8576
  176SAPI   C3820079   2.038   4.611   7.311 -0.0848 -0.7679 -0.4924
  176SAPI   H8X20080   2.025   4.721   7.304 -1.8515 -0.8262  1.1395
  176SAPI   H8Y20081   2.146   4.585   7.301 -0.1518 -0.8347 -1.1312
  176SAPI   C3920082   1.981   4.572   7.445  0.1353  0.0408  0.4533
  176SAPI   H9X20083   1.974   4.461   7.453 -0.3012  0.1832  2.5176
  176SAPI   H9Y20084   1.878   4.611   7.449  0.4512  0.8592  0.6986
  176SAPI  C31020085   2.063   4.624   7.566  0.8424  0.8051  1.0260
  176SAPI  H10X20086   2.069   4.735   7.564  1.1493  0.7846  0.6166
  176SAPI  H10Y20087   2.165   4.579   7.556 -0.3929 -1.9300 -0.6743
  176SAPI  C31120088   1.994   4.581   7.699 -0.1874 -0.2434  0.0936
  176SAPI  H11X20089   1.959   4.477   7.683 -1.9935  0.3759 -0.1711
  176SAPI  H11Y20090   1.913   4.650   7.732  2.0320  1.7364  1.7700
  176SAPI  C31220091   2.098   4.589   7.809  0.3142 -0.3624 -0.1490
  176SAPI  H12X20092   2.136   4.693   7.815 -0.1406 -0.1785 -0.4577
  176SAPI  H12Y20093   2.178   4.517   7.781  0.3025 -0.4190 -0.0362
  176SAPI  C31320094   2.029   4.563   7.943 -0.2998 -0.2963  0.1505
  176SAPI  H13X20095   1.973   4.469   7.955  0.0055 -0.5775 -0.5730
  176SAPI  H13Y20096   1.947   4.638   7.951 -1.2178 -1.0764 -1.5712
  176SAPI  C31420097   2.129   4.587   8.062 -0.1174  0.3664 -0.4107
  176SAPI  H14X20098   2.075   4.607   8.157 -0.2619  1.5179 -0.7156
  176SAPI  H14Y20099   2.196   4.674   8.047 -2.4071  2.5212  0.9143
  176SAPI  C31520100   2.215   4.466   8.079  1.2226  0.0670 -0.5043
  176SAPI  H15X20101   2.284   4.456   7.993  2.5298 -2.7799  0.7112
  176SAPI  H15Y20102   2.146   4.379   8.072 -0.1045  1.0718 -0.2392
  176SAPI  C31620103   2.292   4.454   8.211 -0.1987 -0.6485  0.3767
  176SAPI  H16X20104   2.345   4.356   8.213  1.8652  0.4299  0.7439
  176SAPI  H16Y20105   2.215   4.452   8.291 -1.6280 -5.7370 -0.7256
  176SAPI  C31720106   2.392   4.571   8.240  0.4874  0.0009 -0.3053
  176SAPI  H17X20107   2.329   4.661   8.255 -2.8318 -2.0828 -0.8238
  176SAPI  H17Y20108   2.459   4.593   8.154  0.3764  0.8683 -0.1713
  176SAPI  C31820109   2.482   4.542   8.354 -0.7366  0.2339  0.1470
  176SAPI  H18X20110   2.435   4.544   8.455  1.3270  1.1865  1.1620
  176SAPI  H18Y20111   2.565   4.617   8.363 -0.7198  0.1834  0.4381
  176SAPI  H18Z20112   2.521   4.442   8.329 -0.7955  0.9148 -3.0590
  177SLPC     N20113   6.107   0.869  11.152 -0.4479 -0.6351 -0.0435
  177SLPC   C1320114   6.004   0.771  11.202 -0.1204  0.5160  0.0058
  177SLPC  H13A20115   6.033   0.668  11.191  0.8391  0.8266 -0.6247
  177SLPC  H13B20116   5.971   0.804  11.299  0.0710  0.6864  0.0157
  177SLPC  H13C20117   5.923   0.776  11.131  1.6180 -0.2518 -2.1858
  177SLPC   C1420118   6.225   0.879  11.238  0.1520  0.4815  0.5127
  177SLPC  H14A20119   6.277   0.786  11.259  0.7099  0.9956  1.5096
  177SLPC  H14B20120   6.308   0.930  11.191  0.3903  0.3908  0.8251
  177SLPC  H14C20121   6.204   0.932  11.330 -0.6247  2.9104 -0.9707
  177SLPC   C1520122   6.035   1.000  11.146 -0.3283  0.7558  0.4349
  177SLPC  H15A20123   5.937   0.994  11.101 -0.3503  0.3335  0.5338
  177SLPC  H15B20124   6.012   1.039  11.244 -0.2348  1.2274  0.2726
  177SLPC  H15C20125   6.098   1.071  11.094  1.1584  0.3523  1.6446
  177SLPC   C1220126   6.163   0.827  11.011  0.0898  0.2274 -0.2148
  177SLPC  H12A20127   6.227   0.910  10.985  1.3700 -1.1185 -1.5570
  177SLPC  H12B20128   6.085   0.817  10.938 -0.1765 -0.3118  0.1426
  177SLPC   C1120129   6.248   0.694  11.005  0.3125 -0.0314 -0.2166
  177SLPC  H11A20130   6.267   0.670  10.898 -0.6784 -2.0516  0.0178
  177SLPC  H11B20131   6.180   0.619  11.048 -1.9718  0.8988 -1.9851
  177SLPC     P20132   6.508   0.765  11.037 -0.0235 -0.2579  0.1501
  177SLPC   O1320133   6.515   0.889  11.106 -0.2319 -0.5265 -0.3483
  177SLPC   O1420134   6.621   0.670  11.068 -0.4185 -0.2232  0.0776
  177SLPC   O1220135   6.369   0.703  11.080  0.0616 -0.0180  0.2382
  177SLPC   O1120136   6.488   0.793  10.886 -0.2873  0.1006 -0.1799
  177SLPC    C120137   6.528   0.707  10.779  0.1695  0.9977 -0.2259
  177SLPC    HA20138   6.638   0.697  10.775  0.1894  1.5986 -2.0689
  177SLPC    HB20139   6.486   0.604  10.785  2.5023 -0.0110  0.0633
  177SLPC    C220140   6.473   0.745  10.638 -0.3231  0.5074  0.3110
  177SLPC    HS20141   6.525   0.685  10.560 -2.2706 -0.0072 -0.6714
  177SLPC   O2120142   6.485   0.886  10.621  0.6710  0.0700  0.1377
  177SLPC   C2120143   6.600   0.936  10.584 -0.6108 -0.1239 -0.3736
  177SLPC   O2220144   6.703   0.869  10.581  0.2303  0.6872 -0.8258
  177SLPC   C2220145   6.593   1.083  10.552 -0.3382 -0.4272 -0.3965
  177SLPC   H2R20146   6.570   1.136  10.647 -0.4231  1.5054 -1.4331
  177SLPC   H2S20147   6.685   1.126  10.508 -1.3332  2.0017 -0.2624
  177SLPC    C320148   6.320   0.714  10.620  0.5217  0.3564 -0.1993
  177SLPC    HX20149   6.258   0.775  10.689 -1.7343 -1.2773 -0.6904
  177SLPC    HY20150   6.294   0.613  10.657 -0.1371  0.5622 -0.0904
  177SLPC   O3120151   6.291   0.727  10.477 -0.0761 -0.3179  0.6494
  177SLPC   C3120152   6.205   0.822  10.445  0.8202  0.5702 -0.1879
  177SLPC   O3220153   6.160   0.912  10.515 -0.6614 -0.0967 -0.2288
  177SLPC   C3220154   6.167   0.796  10.302  0.3353 -0.9480  0.1879
  177SLPC   H2X20155   6.064   0.835  10.285  1.1815  0.5476 -1.8162
  177SLPC   H2Y20156   6.173   0.691  10.265  1.8778 -0.5250 -0.8324
  177SLPC   C2320157   6.476   1.117  10.458  0.1387  0.0497  0.6336
  177SLPC   H3R20158   6.388   1.052  10.473  1.7254 -2.4753 -0.3491
  177SLPC   H3S20159   6.509   1.098  10.354  1.6632  0.5227  0.9979
  177SLPC   C2420160   6.438   1.269  10.466  0.6786  0.7992 -0.0608
  177SLPC   H4R20161   6.528   1.333  10.457  0.1328  1.7152  0.7308
  177SLPC   H4S20162   6.385   1.287  10.562 -0.8071 -0.8344 -0.5278
  177SLPC   C2520163   6.346   1.315  10.352 -0.3483  0.1854 -0.7079
  177SLPC   H5R20164   6.301   1.415  10.371  1.6183  1.2176 -1.2111
  177SLPC   H5S20165   6.263   1.242  10.338 -0.7395  0.3615  0.5978
  177SLPC   C2620166   6.414   1.335  10.213  0.0763  0.8273 -0.5167
  177SLPC   H6R20167   6.464   1.238  10.190 -1.0818 -0.1101  0.7613
  177SLPC   H6S20168   6.485   1.421  10.211  0.1511  0.8297  1.1788
  177SLPC   C2720169   6.313   1.368  10.102  0.2944 -0.4069  0.2530
  177SLPC   H7R20170   6.261   1.462  10.129  1.4526  0.0479  0.9678
  177SLPC   H7S20171   6.233   1.293  10.087 -1.3613  1.2301  0.5485
  177SLPC   C2820172   6.390   1.394   9.969  0.1601 -0.0027  0.2274
  177SLPC   H8R20173   6.485   1.447   9.994 -0.6388  1.4349  0.3093
  177SLPC   H8S20174   6.322   1.461   9.913  0.4884 -1.4659 -2.0352
  177SLPC   C2920175   6.427   1.270   9.891  0.5066  0.1474  0.3922
  177SLPC   H9R20176   6.409   1.169   9.930  0.9379  0.6843  2.0674
  177SLPC  C21020177   6.464   1.279   9.763  0.3428 -0.1120  0.5068
  177SLPC  H10R20178   6.490   1.181   9.719 -0.6685 -0.0831 -0.1899
  177SLPC  C21120179   6.482   1.392   9.667 -0.3434 -0.2555 -0.7881
  177SLPC  H11R20180   6.473   1.491   9.717  0.5406 -1.0462  1.0373
  177SLPC  H11S20181   6.590   1.382   9.643 -0.0006  0.2407  0.4410
  177SLPC  C21220182   6.392   1.369   9.548 -0.4493 -0.5449 -0.2577
  177SLPC  H12R20183   6.285   1.353   9.567 -0.3340 -1.1791 -0.0925
  177SLPC  C21320184   6.439   1.348   9.419  0.3437 -0.1690 -0.2029
  177SLPC  H13R20185   6.359   1.335   9.344  0.7379 -0.5834 -0.5535
  177SLPC  C21420186   6.580   1.348   9.368  0.2699  0.0870 -0.5002
  177SLPC  H14R20187   6.612   1.242   9.358  2.9701  0.8717 -1.0986
  177SLPC  H14S20188   6.643   1.409   9.436  0.3399  1.5530 -1.8340
  177SLPC  C21520189   6.585   1.412   9.225  0.1491  0.3158  0.2509
  177SLPC  H15R20190   6.696   1.411   9.217  0.5643 -2.1365  3.8196
  177SLPC  H15S20191   6.548   1.516   9.216  1.2939  0.7137 -0.0994
  177SLPC  C21620192   6.527   1.327   9.113 -0.7414  0.1897 -0.5258
  177SLPC  H16R20193   6.422   1.301   9.139 -0.3310 -1.1254 -0.0895
  177SLPC  H16S20194   6.572   1.226   9.115  0.5349  0.7591  0.1502
  177SLPC  C21720195   6.537   1.395   8.979 -0.2475 -0.1362  0.2400
  177SLPC  H17R20196   6.639   1.436   8.966 -0.8873  1.7284  0.7860
  177SLPC  H17S20197   6.474   1.487   8.977  0.1774  0.2264  1.7940
  177SLPC  C21820198   6.501   1.298   8.860  0.6252  0.1629  0.6422
  177SLPC  H18R20199   6.527   1.344   8.763 -0.2190 -0.5404  0.0646
  177SLPC  H18S20200   6.393   1.272   8.857  0.9340 -1.1113 -0.1188
  177SLPC  H18T20201   6.549   1.200   8.881  1.1680  0.5208  1.1256
  177SLPC   C3320202   6.249   0.884  10.214 -0.3327  0.3060 -0.1786
  177SLPC   H3X20203   6.228   0.991  10.233 -1.2335 -0.0997  1.2330
  177SLPC   H3Y20204   6.214   0.866  10.110  0.0295  1.8564 -0.5913
  177SLPC   C3420205   6.399   0.864  10.227 -0.1490  0.4594  0.4780
  177SLPC   H4X20206   6.450   0.867  10.325 -1.6570  2.0636  1.2687
  177SLPC   H4Y20207   6.446   0.943  10.164  1.2514  0.6656  1.7275
  177SLPC   C3520208   6.446   0.717  10.180 -0.0706 -0.0413  0.0434
  177SLPC   H5X20209   6.414   0.640  10.254  0.0903 -0.9004 -0.7598
  177SLPC   H5Y20210   6.556   0.717  10.163  0.3032 -4.0012  1.3815
  177SLPC   C3620211   6.394   0.658  10.044 -1.0614  0.3219 -0.3209
  177SLPC   H6X20212   6.288   0.626  10.050 -0.4912 -1.4441  2.1616
  177SLPC   H6Y20213   6.454   0.566  10.033 -2.5701 -0.8807  1.0030
  177SLPC   C3720214   6.424   0.739   9.921 -0.2866 -0.3196 -0.3810
  177SLPC   H7X20215   6.534   0.756   9.917 -0.3079 -0.3811 -1.5169
  177SLPC   H7Y20216   6.374   0.838   9.924  3.9975  2.0631 -0.1046
  177SLPC   C3820217   6.389   0.658   9.797 -0.0026  0.3848 -0.3327
  177SLPC   H8X20218   6.279   0.642   9.807 -0.0046  0.4239 -0.2933
  177SLPC   H8Y20219   6.435   0.557   9.793 -0.6323  0.1164 -1.4388
  177SLPC   C3920220   6.432   0.721   9.671 -0.8356  0.1401  0.0961
  177SLPC   H9X20221   6.431   0.649   9.586  1.0463  1.3216 -1.0036
  177SLPC   H9Y20222   6.541   0.741   9.670 -0.8640  0.3322  0.5799
  177SLPC  C31020223   6.372   0.852   9.620  0.0234  0.1248  0.2242
  177SLPC  H10X20224   6.375   0.923   9.706 -0.2641  0.9940 -0.4642
  177SLPC  H10Y20225   6.268   0.830   9.590  0.4961  0.5102 -1.8835
  177SLPC  C31120226   6.448   0.901   9.504 -0.3297 -0.1456 -0.3450
  177SLPC  H11X20227   6.532   0.829   9.496 -0.2373 -0.1439  0.5125
  177SLPC  H11Y20228   6.475   1.008   9.516 -1.9081  0.2755 -0.2438
  177SLPC  C31220229   6.365   0.885   9.386  0.1842 -0.2491  0.0282
  177SLPC  H12X20230   6.268   0.935   9.403  0.9527  2.4408 -2.6302
  177SLPC  H12Y20231   6.336   0.779   9.365 -1.9485  0.2816  0.0618
  177SLPC  C31320232   6.426   0.953   9.261  0.2725  0.7007  0.1455
  177SLPC  H13X20233   6.509   1.014   9.302  2.4075 -0.6482 -1.8993
  177SLPC  H13Y20234   6.346   1.019   9.221 -1.7421 -1.0588  1.0728
  177SLPC  C31420235   6.479   0.851   9.157 -0.3182 -0.1046  0.2144
  177SLPC  H14X20236   6.400   0.775   9.140  0.9402 -1.8023  1.5874
  177SLPC  H14Y20237   6.556   0.797   9.216  0.2494  1.6993  1.1996
  177SLPC  C31520238   6.540   0.914   9.028  0.1540  0.1480  0.0947
  177SLPC  H15X20239   6.553   1.019   9.061 -2.1957  1.1426 -1.8236
  177SLPC  H15Y20240   6.458   0.931   8.955 -0.2573  1.2414  0.7794
  177SLPC  C31620241   6.663   0.851   8.975  0.2943 -0.2647  0.7787
  177SLPC  H16X20242   6.621   0.750   8.953 -1.8958  0.8735 -0.5908
  177SLPC  H16Y20243   6.741   0.839   9.053  0.0951  0.3477  1.0782
  177SLPC  C31720244   6.725   0.921   8.857 -0.0210 -0.5116  0.1808
  177SLPC  H17X20245   6.756   1.018   8.901  0.1006 -0.6328  0.3636
  177SLPC  H17Y20246   6.648   0.927   8.777 -1.7322  2.3723  1.8991
  177SLPC  C31820247   6.852   0.851   8.799 -0.4494 -0.3050 -0.3058
  177SLPC  H18X20248   6.929   0.861   8.878  0.3587 -0.0762 -1.0906
  177SLPC  H18Y20249   6.901   0.911   8.719  0.1031  1.3015  1.1815
  177SLPC  H18Z20250   6.835   0.745   8.771 -0.6384 -0.0280 -1.3050
  178SLPC     N20251   2.506   1.623  11.195  0.2242  0.3195  0.3116
  178SLPC   C1320252   2.462   1.737  11.282 -0.3535 -0.2281  0.0687
  178SLPC  H13A20253   2.423   1.702  11.377 -0.2515 -1.1717 -0.2232
  178SLPC  H13B20254   2.543   1.804  11.305 -1.1064  0.6967  0.0669
  178SLPC  H13C20255   2.399   1.807  11.231  3.4082  2.2812 -1.5876
  178SLPC   C1420256   2.393   1.525  11.189 -0.0263  0.2609  0.3300
  178SLPC  H14A20257   2.307   1.559  11.134 -0.3215 -0.8959  0.0431
  178SLPC  H14B20258   2.429   1.435  11.141  0.1169  1.4473 -1.8951
  178SLPC  H14C20259   2.360   1.495  11.287  0.9264  0.2943  0.6762
  178SLPC   C1520260   2.614   1.546  11.260 -0.4210  0.3610  0.4551
  178SLPC  H15A20261   2.658   1.471  11.196  1.2981  1.3538  0.4396
  178SLPC  H15B20262   2.691   1.601  11.311 -0.2662  0.8755 -0.3181
  178SLPC  H15C20263   2.568   1.495  11.344 -0.0618 -2.6345 -1.0228
  178SLPC   C1220264   2.543   1.670  11.057 -0.3782 -0.2580 -0.8863
  178SLPC  H12A20265   2.453   1.705  11.008  0.2840 -1.3108 -2.9914
  178SLPC  H12B20266   2.579   1.586  10.999 -1.7014 -1.3755 -0.1585
  178SLPC   C1120267   2.641   1.779  11.048  0.8519 -0.1019  0.0448
  178SLPC  H11A20268   2.725   1.756  11.117  0.2214  0.4684  1.0392
  178SLPC  H11B20269   2.594   1.875  11.079 -1.0503 -0.5445 -1.3135
  178SLPC     P20270   2.728   1.684  10.816 -0.0412  0.3632 -0.0547
  178SLPC   O1320271   2.846   1.747  10.742  0.0877  0.4787  0.6883
  178SLPC   O1420272   2.755   1.559  10.890  0.1503 -0.9556  0.0950
  178SLPC   O1220273   2.671   1.797  10.912  0.4632  0.0227 -0.6034
  178SLPC   O1120274   2.599   1.664  10.719 -0.7944  0.2290 -0.4542
  178SLPC    C120275   2.514   1.762  10.676  0.3026  0.0893  0.4115
  178SLPC    HA20276   2.467   1.806  10.766 -1.1764  0.1265 -0.3513
  178SLPC    HB20277   2.576   1.840  10.625  0.3029 -0.2252 -0.0799
  178SLPC    C220278   2.402   1.716  10.576 -0.0029  0.0383  0.1039
  178SLPC    HS20279   2.347   1.640  10.636  0.0230  1.7058  2.3723
  178SLPC   O2120280   2.464   1.670  10.450 -0.1925 -0.1711 -0.7529
  178SLPC   C2120281   2.499   1.542  10.455 -0.3854 -0.0479 -0.0448
  178SLPC   O2220282   2.499   1.472  10.555  0.3142 -0.3650 -0.0458
  178SLPC   C2220283   2.552   1.505  10.313  0.1936  0.2235 -0.4019
  178SLPC   H2R20284   2.621   1.421  10.332 -0.2690  0.4783  3.0338
  178SLPC   H2S20285   2.462   1.471  10.256  0.7149  0.8498 -1.6478
  178SLPC    C320286   2.310   1.831  10.538  0.2711  0.2579  0.1087
  178SLPC    HX20287   2.250   1.873  10.622 -0.0849 -3.1775  1.7352
  178SLPC    HY20288   2.229   1.792  10.473 -0.2907 -2.1866  2.1171
  178SLPC   O3120289   2.385   1.939  10.477  0.3501  0.6394 -0.2036
  178SLPC   C3120290   2.389   1.942  10.342 -0.4796  0.4877 -0.1760
  178SLPC   O3220291   2.317   1.872  10.273  1.1247  0.2331  1.0119
  178SLPC   C3220292   2.495   2.043  10.299  0.6025  0.5265  0.2136
  178SLPC   H2X20293   2.588   2.032  10.359 -0.1279  2.2378  1.7713
  178SLPC   H2Y20294   2.453   2.140  10.332 -1.0253  0.0720 -0.4158
  178SLPC   C2320295   2.623   1.615  10.240  0.3880 -0.2991  0.9466
  178SLPC   H3R20296   2.707   1.663  10.295 -0.7863  1.7287  1.0864
  178SLPC   H3S20297   2.543   1.685  10.208 -0.2414 -0.0689  2.8632
  178SLPC   C2420298   2.699   1.581  10.115  0.3766  0.4399 -0.0297
  178SLPC   H4R20299   2.631   1.522  10.050 -2.5251  3.4030  0.0425
  178SLPC   H4S20300   2.789   1.518  10.131 -1.3056 -1.8591  1.2199
  178SLPC   C2520301   2.743   1.699  10.030  0.5310 -0.9010 -0.5150
  178SLPC   H5R20302   2.813   1.767  10.084 -1.0027  0.1810  0.1792
  178SLPC   H5S20303   2.650   1.755  10.006 -0.4334 -0.7738  3.0035
  178SLPC   C2620304   2.819   1.672   9.898  0.6007  0.1095 -0.5444
  178SLPC   H6R20305   2.893   1.591   9.918 -0.8580 -1.2674 -0.4621
  178SLPC   H6S20306   2.876   1.763   9.872  2.6335 -0.2644  2.1667
  178SLPC   C2720307   2.740   1.611   9.780 -0.0540 -0.0418 -0.3365
  178SLPC   H7R20308   2.665   1.686   9.745 -1.9037 -1.1861  0.9832
  178SLPC   H7S20309   2.666   1.539   9.821 -0.4603  0.5466 -0.0024
  178SLPC   C2820310   2.851   1.568   9.683 -0.1577 -0.1857  0.0929
  178SLPC   H8R20311   2.889   1.466   9.708  0.2646 -0.7324 -2.5617
  178SLPC   H8S20312   2.939   1.635   9.690 -1.2157  1.1766  0.8377
  178SLPC   C2920313   2.795   1.578   9.542  0.4920 -1.0087  0.0500
  178SLPC   H9R20314   2.774   1.684   9.522 -1.0558 -1.6873 -2.4300
  178SLPC  C21020315   2.762   1.483   9.453  0.2407 -0.4936 -0.4740
  178SLPC  H10R20316   2.733   1.512   9.351 -1.1310 -1.9851 -0.5470
  178SLPC  C21120317   2.763   1.333   9.475  0.6841 -0.1586 -0.1507
  178SLPC  H11R20318   2.844   1.303   9.545  0.7332 -1.2807 -0.6622
  178SLPC  H11S20319   2.788   1.284   9.379 -1.3855  0.7252 -1.2017
  178SLPC  C21220320   2.634   1.283   9.523  0.0980 -0.2323  0.0416
  178SLPC  H12R20321   2.618   1.278   9.632  0.3286  1.4275  0.1742
  178SLPC  C21320322   2.537   1.247   9.437  0.4526 -0.6274  0.4102
  178SLPC  H13R20323   2.442   1.218   9.483  0.6005 -0.3287  0.9022
  178SLPC  C21420324   2.539   1.264   9.284 -0.0350 -0.0496 -0.2921
  178SLPC  H14R20325   2.585   1.173   9.240  1.2240 -0.2441  1.3236
  178SLPC  H14S20326   2.619   1.338   9.261  1.4080 -2.4134 -3.5641
  178SLPC  C21520327   2.410   1.298   9.211  0.8707  0.0517 -0.5140
  178SLPC  H15R20328   2.380   1.401   9.240  0.4502  0.1043 -1.1218
  178SLPC  H15S20329   2.329   1.230   9.246  0.0624  0.3393 -1.7612
  178SLPC  C21620330   2.417   1.297   9.063  0.3689  0.7274  0.9531
  178SLPC  H16R20331   2.469   1.390   9.033  1.0611  0.5468  1.5689
  178SLPC  H16S20332   2.313   1.313   9.025  0.8802 -3.1501 -2.9543
  178SLPC  C21720333   2.471   1.176   8.989  0.2951  0.3894  0.3967
  178SLPC  H17R20334   2.422   1.094   9.046 -0.9202 -0.2178 -1.3987
  178SLPC  H17S20335   2.579   1.172   9.011  0.2442  0.0786  0.5933
  178SLPC  C21820336   2.437   1.185   8.844 -0.5923  0.4660  0.7968
  178SLPC  H18R20337   2.486   1.276   8.803  1.1303 -1.2272 -1.1374
  178SLPC  H18S20338   2.331   1.175   8.815 -0.1261 -0.1272 -0.8025
  178SLPC  H18T20339   2.489   1.093   8.812 -0.4743  0.8030  0.0001
  178SLPC   C3320340   2.512   2.051  10.138 -0.0905 -0.1524 -0.8966
  178SLPC   H3X20341   2.414   2.078  10.092 -0.2573  0.8068 -0.0229
  178SLPC   H3Y20342   2.542   1.954  10.094  1.6888  1.1233 -2.6845
  178SLPC   C3420343   2.610   2.149  10.075 -0.4532  0.1542 -0.2702
  178SLPC   H4X20344   2.707   2.146  10.128  0.8565 -0.8816 -2.5521
  178SLPC   H4Y20345   2.571   2.253  10.071 -1.4050 -0.2124 -0.9292
  178SLPC   C3520346   2.629   2.123   9.919 -0.7700 -0.5427 -0.1352
  178SLPC   H5X20347   2.617   2.014   9.899  1.6370 -1.0810  0.9954
  178SLPC   H5Y20348   2.739   2.137   9.910 -0.8054 -0.0125  0.2056
  178SLPC   C3620349   2.550   2.217   9.840  0.4392  0.1521  0.2553
  178SLPC   H6X20350   2.581   2.320   9.865  1.7107 -0.0710 -0.3379
  178SLPC   H6Y20351   2.449   2.194   9.881  0.9684 -1.9149  0.5240
  178SLPC   C3720352   2.551   2.174   9.692  0.2493 -0.2180  0.3845
  178SLPC   H7X20353   2.480   2.235   9.632  0.9762  1.1232  0.8447
  178SLPC   H7Y20354   2.516   2.068   9.686 -1.0939  0.2347 -0.3158
  178SLPC   C3820355   2.684   2.184   9.617 -0.1448 -0.0141  0.4025
  178SLPC   H8X20356   2.759   2.130   9.681  0.7044  0.3678 -0.2481
  178SLPC   H8Y20357   2.725   2.287   9.610  2.6766 -0.7578  3.1970
  178SLPC   C3920358   2.676   2.138   9.470 -0.6602  0.1834 -0.0273
  178SLPC   H9X20359   2.782   2.134   9.438 -0.5096  0.0086  0.4868
  178SLPC   H9Y20360   2.623   2.213   9.408 -1.7987 -0.1352  0.5278
  178SLPC  C31020361   2.593   2.007   9.461 -0.1080 -0.0284  0.7343
  178SLPC  H10X20362   2.483   2.025   9.463 -0.6017 -2.5797  3.7025
  178SLPC  H10Y20363   2.627   1.936   9.540 -0.7583 -2.6596 -1.2337
  178SLPC  C31120364   2.642   1.919   9.334  0.5478  0.3192  0.0405
  178SLPC  H11X20365   2.585   1.825   9.349  0.3030  0.5843  0.8189
  178SLPC  H11Y20366   2.750   1.900   9.314  0.3994 -0.7586  0.1947
  178SLPC  C31220367   2.580   1.981   9.200  0.6360 -0.9794 -0.3751
  178SLPC  H12X20368   2.630   2.078   9.178  1.6349 -0.7117  2.5830
  178SLPC  H12Y20369   2.476   1.993   9.235  1.2185  0.6271  0.9738
  178SLPC  C31320370   2.606   1.895   9.078 -0.1005 -0.5557  0.6954
  178SLPC  H13X20371   2.597   1.788   9.108 -1.2050 -0.2723  1.4225
  178SLPC  H13Y20372   2.704   1.907   9.028 -0.9760 -0.6132 -1.1284
  178SLPC  C31420373   2.493   1.911   8.973  0.5413  0.2278  0.4461
  178SLPC  H14X20374   2.550   1.958   8.890 -0.3392  0.7294  0.1082
  178SLPC  H14Y20375   2.419   1.980   9.018  0.8259  1.1010 -0.4006
  178SLPC  C31520376   2.428   1.781   8.922  0.3448  0.1346  0.3287
  178SLPC  H15X20377   2.513   1.729   8.872  0.0751 -1.7058  1.6958
  178SLPC  H15Y20378   2.397   1.713   9.004  1.4319 -2.8226 -1.5568
  178SLPC  C31620379   2.313   1.815   8.828 -1.1526  0.1028  0.2407
  178SLPC  H16X20380   2.351   1.883   8.750 -1.6024  0.2936  0.1865
  178SLPC  H16Y20381   2.238   1.863   8.894  1.0655  1.3559  2.0118
  178SLPC  C31720382   2.270   1.692   8.756 -0.3004  0.7974  0.4471
  178SLPC  H17X20383   2.166   1.716   8.725  0.0575  0.6875 -0.9171
  178SLPC  H17Y20384   2.273   1.602   8.820  0.0195 -0.7021 -1.5858
  178SLPC  C31820385   2.355   1.662   8.630 -0.4256  0.2929 -0.1525
  178SLPC  H18X20386   2.317   1.584   8.561  1.7513 -2.0844  1.1712
  178SLPC  H18Y20387   2.451   1.614   8.658  0.5258 -1.6215 -5.5089
  178SLPC  H18Z20388   2.372   1.754   8.570 -0.0356  0.6183  0.4489
  179SLPC     N20389   4.167   6.549  10.604 -0.4092 -0.4745  0.8347
  179SLPC   C1320390   4.107   6.627  10.712  0.0850 -0.8008 -0.0500
  179SLPC  H13A20391   4.139   6.571  10.798 -2.0278 -2.2040 -0.1269
  179SLPC  H13B20392   4.137   6.730  10.729 -0.8524 -0.3213 -1.1658
  179SLPC  H13C20393   4.000   6.636  10.705  0.0254  1.2122  2.1356
  179SLPC   C1420394   4.308   6.590  10.589 -0.4877 -0.6524 -0.4869
  179SLPC  H14A20395   4.317   6.677  10.526 -0.9110  0.3953  0.8533
  179SLPC  H14B20396   4.359   6.605  10.683 -1.9247  1.2703  0.0669
  179SLPC  H14C20397   4.368   6.514  10.542  1.1691  0.3312 -0.0087
  179SLPC   C1520398   4.090   6.590  10.480  0.1926  0.4183  0.2924
  179SLPC  H15A20399   3.985   6.569  10.499 -0.0098  0.0104 -1.1797
  179SLPC  H15B20400   4.106   6.694  10.457 -0.1699  0.9378  2.1829
  179SLPC  H15C20401   4.121   6.527  10.398  0.2694  0.1871  0.4974
  179SLPC   C1220402   4.152   6.398  10.628 -1.2007 -0.6624  0.0895
  179SLPC  H12A20403   4.045   6.396  10.643 -1.0594  0.1844  1.2851
  179SLPC  H12B20404   4.196   6.368  10.721  3.8803 -0.9623 -2.1059
  179SLPC   C1120405   4.215   6.299  10.530 -0.3324  0.3973  0.0880
  179SLPC  H11A20406   4.174   6.328  10.431 -0.1931 -1.1342 -0.4394
  179SLPC  H11B20407   4.173   6.204  10.571 -3.6912  2.1431  1.0621
  179SLPC     P20408   4.451   6.213  10.449  0.0647  0.2035 -0.3163
  179SLPC   O1320409   4.589   6.233  10.493 -0.1183  0.2487  0.0318
  179SLPC   O1420410   4.392   6.077  10.445 -0.3395  0.2245 -0.5656
  179SLPC   O1220411   4.361   6.301  10.545  0.5657  0.4517  0.5092
  179SLPC   O1120412   4.416   6.272  10.303  0.6051 -0.4835  0.2688
  179SLPC    C120413   4.421   6.417  10.273 -0.6588  0.4068 -0.3338
  179SLPC    HA20414   4.345   6.477  10.328  0.2058 -0.1149  1.5114
  179SLPC    HB20415   4.523   6.456  10.295 -0.1013  0.3672 -2.5720
  179SLPC    C220416   4.387   6.426  10.128 -0.6119 -0.1085  1.2443
  179SLPC    HS20417   4.481   6.410  10.071 -1.3900  0.1967 -0.1733
  179SLPC   O2120418   4.332   6.550  10.113  0.4024 -0.2527  0.5666
  179SLPC   C2120419   4.409   6.637  10.048 -0.9498  0.4747 -0.2760
  179SLPC   O2220420   4.527   6.618  10.016 -0.3039 -0.0984  0.1528
  179SLPC   C2220421   4.330   6.752   9.998  0.0429  0.9398 -0.0334
  179SLPC   H2R20422   4.220   6.734   9.990  0.1184  0.0108  0.7395
  179SLPC   H2S20423   4.354   6.842  10.059 -1.5680  2.1053 -1.0506
  179SLPC    C320424   4.288   6.325  10.077 -0.7779  0.2271 -0.2394
  179SLPC    HX20425   4.208   6.320  10.153 -0.8134 -0.2211 -0.3024
  179SLPC    HY20426   4.340   6.227  10.088  1.2410  1.1962 -0.6124
  179SLPC   O3120427   4.240   6.352   9.941 -0.2402  0.2989 -0.1136
  179SLPC   C3120428   4.120   6.402   9.932 -0.6823 -0.2119  0.2631
  179SLPC   O3220429   4.042   6.428  10.022 -0.2249 -0.5933  0.4014
  179SLPC   C3220430   4.089   6.422   9.783  0.2671 -0.6148 -0.1080
  179SLPC   H2X20431   4.113   6.527   9.759  1.7312 -1.7171 -4.3589
  179SLPC   H2Y20432   3.979   6.406   9.781  0.2698 -0.8149  0.7913
  179SLPC   C2320433   4.380   6.805   9.863 -0.5326 -0.0709  1.0152
  179SLPC   H3R20434   4.490   6.825   9.861 -0.9240  2.3526  0.6817
  179SLPC   H3S20435   4.326   6.897   9.835 -0.3549 -0.5102 -0.9299
  179SLPC   C2420436   4.333   6.715   9.745  0.2678 -0.7098  0.5218
  179SLPC   H4R20437   4.223   6.700   9.753  0.0385  0.6573  0.0749
  179SLPC   H4S20438   4.382   6.616   9.761  1.9864 -0.0499 -0.4082
  179SLPC   C2520439   4.366   6.793   9.614 -0.1534 -0.2867 -0.1187
  179SLPC   H5R20440   4.473   6.815   9.594 -0.0396  0.6173  1.3324
  179SLPC   H5S20441   4.304   6.884   9.602  2.2990  1.3130 -1.4898
  179SLPC   C2620442   4.294   6.710   9.500 -0.7724 -0.7546 -0.2224
  179SLPC   H6R20443   4.185   6.714   9.523 -0.2478  2.0370  2.3597
  179SLPC   H6S20444   4.329   6.605   9.500  1.7324  0.0081  0.8768
  179SLPC   C2720445   4.318   6.777   9.361 -0.5163  0.1813  0.7263
  179SLPC   H7R20446   4.427   6.796   9.352 -0.8077  1.6885  0.1822
  179SLPC   H7S20447   4.270   6.876   9.352 -2.0637 -0.5201  0.8683
  179SLPC   C2820448   4.277   6.674   9.250 -0.5071 -0.1815 -0.3148
  179SLPC   H8R20449   4.177   6.642   9.285  0.6661 -2.3384  1.2937
  179SLPC   H8S20450   4.347   6.588   9.241 -0.9941 -0.5994 -0.1341
  179SLPC   C2920451   4.280   6.742   9.115 -0.3230 -0.0566 -0.6026
  179SLPC   H9R20452   4.252   6.847   9.103  1.7883  0.4574 -1.3533
  179SLPC  C21020453   4.309   6.679   8.992  0.5766  0.0909 -0.4962
  179SLPC  H10R20454   4.296   6.736   8.899  1.1709  0.5034 -0.3315
  179SLPC  C21120455   4.332   6.523   8.983 -0.2744  0.0331 -0.4554
  179SLPC  H11R20456   4.323   6.474   9.082 -0.6990 -0.6720 -0.8390
  179SLPC  H11S20457   4.436   6.513   8.945 -0.6581 -0.6603 -1.3377
  179SLPC  C21220458   4.244   6.442   8.893 -0.0214 -0.1784  0.6722
  179SLPC  H12R20459   4.194   6.355   8.939 -0.4063  1.1739  2.9680
  179SLPC  C21320460   4.229   6.454   8.756 -0.1523 -0.2352  0.2020
  179SLPC  H13R20461   4.154   6.390   8.708  1.1307 -1.7554  0.1188
  179SLPC  C21420462   4.289   6.562   8.664 -0.5526 -0.0094  0.9543
  179SLPC  H14R20463   4.332   6.641   8.729 -0.5439  1.3357 -0.6001
  179SLPC  H14S20464   4.210   6.608   8.600  0.1077 -0.4363 -0.2052
  179SLPC  C21520465   4.395   6.499   8.571 -0.3618  0.1738  0.0646
  179SLPC  H15R20466   4.344   6.418   8.515 -1.1080 -1.5295  3.0031
  179SLPC  H15S20467   4.481   6.454   8.625 -0.6494 -0.2587  0.1610
  179SLPC  C21620468   4.453   6.603   8.467  0.2100  0.1977 -0.3365
  179SLPC  H16R20469   4.533   6.667   8.510  0.9294 -0.1762 -1.0986
  179SLPC  H16S20470   4.372   6.675   8.441 -2.1395 -1.8348  0.8548
  179SLPC  C21720471   4.517   6.536   8.341  0.8038 -0.2572 -0.5162
  179SLPC  H17R20472   4.424   6.499   8.292  0.4304 -1.2713  0.9105
  179SLPC  H17S20473   4.580   6.449   8.371  0.3301 -1.1703 -2.0557
  179SLPC  C21820474   4.592   6.635   8.257  0.3563  0.0030  0.1480
  179SLPC  H18R20475   4.684   6.676   8.304  0.2326  1.9034 -1.1547
  179SLPC  H18S20476   4.533   6.726   8.234 -0.5864 -0.4648  0.6526
  179SLPC  H18T20477   4.632   6.586   8.166 -0.8699  1.2735 -1.1203
  179SLPC   C3320478   4.168   6.331   9.691  0.0298  0.3454  0.1125
  179SLPC   H3X20479   4.152   6.222   9.709 -0.3040  0.5374  1.0664
  179SLPC   H3Y20480   4.278   6.346   9.696  0.1242  0.6628 -1.9150
  179SLPC   C3420481   4.129   6.364   9.545 -0.5071 -0.1721  0.0558
  179SLPC   H4X20482   4.126   6.470   9.512 -1.8295 -0.2822 -0.2603
  179SLPC   H4Y20483   4.023   6.331   9.539  0.0920 -2.0537 -1.0824
  179SLPC   C3520484   4.213   6.284   9.444  0.3259 -0.1283  0.1995
  179SLPC   H5X20485   4.215   6.179   9.481  1.0147  0.2306  1.2020
  179SLPC   H5Y20486   4.312   6.334   9.453  0.2718  0.0498 -0.1623
  179SLPC   C3620487   4.152   6.297   9.308  0.1333 -0.0922  0.0208
  179SLPC   H6X20488   4.221   6.275   9.224 -0.6421  1.4280 -1.0630
  179SLPC   H6Y20489   4.121   6.404   9.307 -1.2508 -0.3959  2.4919
  179SLPC   C3720490   4.031   6.197   9.281 -0.0341 -0.3998 -0.1074
  179SLPC   H7X20491   3.967   6.211   9.371  0.0616 -0.2792 -0.0578
  179SLPC   H7Y20492   4.076   6.096   9.269  1.1810  0.0210  0.7168
  179SLPC   C3820493   3.942   6.234   9.162  0.0515 -0.2234  0.1368
  179SLPC   H8X20494   3.882   6.143   9.140 -2.4013  1.0538  1.1220
  179SLPC   H8Y20495   4.004   6.264   9.075 -1.7709  2.4857 -0.3438
  179SLPC   C3920496   3.853   6.356   9.191  0.6872 -0.8846  0.0872
  179SLPC   H9X20497   3.915   6.445   9.217 -0.2138 -0.7684  2.0289
  179SLPC   H9Y20498   3.781   6.342   9.275 -0.3940  0.4793 -0.5752
  179SLPC  C31020499   3.774   6.400   9.067  0.4273 -0.6500  0.0971
  179SLPC  H10X20500   3.684   6.335   9.060 -0.1206 -0.1540  2.0570
  179SLPC  H10Y20501   3.826   6.383   8.970 -3.2178 -1.2473 -1.9246
  179SLPC  C31120502   3.724   6.549   9.076 -0.0875 -0.2324  0.1903
  179SLPC  H11X20503   3.810   6.617   9.088  0.4126 -1.0958  1.7365
  179SLPC  H11Y20504   3.665   6.575   9.166  2.8141  1.7415  1.6550
  179SLPC  C31220505   3.639   6.590   8.948  0.2548 -0.7734  0.2847
  179SLPC  H12X20506   3.601   6.693   8.962 -0.3184 -1.0892  1.1106
  179SLPC  H12Y20507   3.551   6.522   8.950  0.4815 -1.0580  1.0811
  179SLPC  C31320508   3.717   6.585   8.817 -0.3936  0.3392  0.0397
  179SLPC  H13X20509   3.657   6.631   8.735  0.1714  1.1868  0.0842
  179SLPC  H13Y20510   3.757   6.485   8.789  0.2497  0.2799  1.1164
  179SLPC  C31420511   3.842   6.684   8.826 -0.0267  0.2590 -1.2558
  179SLPC  H14X20512   3.911   6.653   8.908  0.1262 -0.4658 -1.6485
  179SLPC  H14Y20513   3.798   6.780   8.861 -0.4641 -0.5133  0.4182
  179SLPC  C31520514   3.932   6.683   8.700  0.5437 -0.3606  0.2527
  179SLPC  H15X20515   3.944   6.579   8.662 -1.9031 -0.3330 -0.7962
  179SLPC  H15Y20516   4.033   6.725   8.722 -0.1437  0.0577  3.0190
  179SLPC  C31620517   3.864   6.765   8.584 -0.4776  0.6005  0.1294
  179SLPC  H16X20518   3.758   6.733   8.577  0.1731 -1.6114 -0.7987
  179SLPC  H16Y20519   3.918   6.740   8.490 -1.0244 -1.9623  0.4278
  179SLPC  C31720520   3.857   6.919   8.607 -1.2336  0.2184 -0.3500
  179SLPC  H17X20521   3.789   6.941   8.693 -1.3688  0.6123 -0.5525
  179SLPC  H17Y20522   3.820   6.964   8.513 -0.3641  2.0662  0.1406
  179SLPC  C31820523   4.001   6.971   8.625 -0.2651 -0.2253  0.1012
  179SLPC  H18X20524   4.000   7.075   8.588 -3.7732  0.4262  1.5554
  179SLPC  H18Y20525   4.064   6.906   8.562  2.1104  0.3356  1.7788
  179SLPC  H18Z20526   4.041   6.960   8.728  1.6838 -0.2392 -0.6144
  180SLPC     N20527   6.061   4.933  11.137 -0.3294  0.5688  0.2802
  180SLPC   C1320528   6.027   4.954  10.996  0.1962 -0.0090  0.3743
  180SLPC  H13A20529   5.990   4.861  10.955 -1.5340  0.9129 -0.2621
  180SLPC  H13B20530   5.955   5.031  10.977  0.9247 -0.1929 -4.2135
  180SLPC  H13C20531   6.119   4.968  10.941 -0.3573 -1.0693 -0.8811
  180SLPC   C1420532   5.935   4.939  11.220  0.0479  1.0611 -0.5546
  180SLPC  H14A20533   5.864   4.874  11.171  1.7084  1.0593 -3.1363
  180SLPC  H14B20534   5.939   4.905  11.322 -0.7467 -1.0923 -1.1837
  180SLPC  H14C20535   5.886   5.035  11.214  0.9128  1.4243 -4.3378
  180SLPC   C1520536   6.155   5.040  11.191  0.5211  0.1271 -0.1110
  180SLPC  H15A20537   6.180   5.029  11.296  1.3628  3.3782  0.1576
  180SLPC  H15B20538   6.248   5.045  11.136  2.2976  0.5742  2.7285
  180SLPC  H15C20539   6.113   5.139  11.184 -0.0133  0.0032  1.0974
  180SLPC   C1220540   6.129   4.801  11.156  0.2606  0.2037 -0.5607
  180SLPC  H12A20541   6.076   4.726  11.101  1.1351 -1.6321  0.9736
  180SLPC  H12B20542   6.138   4.771  11.259 -0.2711  1.4529 -0.1308
  180SLPC   C1120543   6.276   4.793  11.110  0.1090 -0.6144 -0.8512
  180SLPC  H11A20544   6.306   4.689  11.136  1.0393 -0.2342 -0.3824
  180SLPC  H11B20545   6.335   4.855  11.180  1.1272 -1.3309 -1.0560
  180SLPC     P20546   6.347   4.738  10.867 -0.1620  0.2277 -0.2335
  180SLPC   O1320547   6.491   4.705  10.901  0.6919  0.1391 -0.3026
  180SLPC   O1420548   6.253   4.627  10.855 -1.3449  0.5940 -0.4569
  180SLPC   O1220549   6.300   4.831  10.983 -0.6792  0.1992  0.4039
  180SLPC   O1120550   6.343   4.831  10.734 -0.6573 -0.3174 -0.3150
  180SLPC    C120551   6.214   4.901  10.714 -0.4455 -0.8671 -0.1968
  180SLPC    HA20552   6.126   4.860  10.768 -1.0898  0.3764 -0.2498
  180SLPC    HB20553   6.243   4.999  10.758 -0.1557 -1.2725  0.5366
  180SLPC    C220554   6.178   4.903  10.565  0.1737  0.1226  0.1892
  180SLPC    HS20555   6.084   4.961  10.568 -1.2524 -2.0561  0.2253
  180SLPC   O2120556   6.139   4.767  10.510 -0.4005 -0.4226 -0.5715
  180SLPC   C2120557   6.037   4.767  10.435  0.6860  0.5418  0.2337
  180SLPC   O2220558   5.975   4.868  10.394  0.2437 -0.2668 -0.4851
  180SLPC   C2220559   6.005   4.620  10.415  0.7197  0.4798 -0.9464
  180SLPC   H2R20560   6.086   4.545  10.418 -0.3513 -0.6624  0.4753
  180SLPC   H2S20561   5.938   4.599  10.501  1.5282 -2.9117 -0.9983
  180SLPC    C320562   6.305   4.962  10.494  0.0564 -0.1659 -0.7024
  180SLPC    HX20563   6.394   4.899  10.514 -0.3102 -0.9238 -1.4061
  180SLPC    HY20564   6.322   5.058  10.547  1.1093 -1.5615  1.6340
  180SLPC   O3120565   6.283   4.991  10.354 -0.0826 -0.4466 -0.5673
  180SLPC   C3120566   6.298   4.899  10.267 -0.4962  0.0530 -0.2860
  180SLPC   O3220567   6.317   4.780  10.285 -0.1180 -0.2821 -0.2786
  180SLPC   C3220568   6.296   4.965  10.133  0.6138  0.5558 -0.3772
  180SLPC   H2X20569   6.387   5.022  10.106 -0.0050  1.1585 -1.2682
  180SLPC   H2Y20570   6.217   5.043  10.128 -0.3793 -0.1351  2.5494
  180SLPC   C2320571   5.923   4.590  10.283  0.6257 -0.4392 -0.1898
  180SLPC   H3R20572   5.832   4.653  10.278 -0.4502 -1.8511  0.6467
  180SLPC   H3S20573   5.888   4.484  10.286  0.3104 -0.3239  0.4840
  180SLPC   C2420574   5.999   4.606  10.155  0.8066  0.1033 -0.5377
  180SLPC   H4R20575   6.038   4.710  10.151 -1.7930  1.1230 -1.9273
  180SLPC   H4S20576   5.938   4.592  10.063  1.8051  0.6258 -1.3074
  180SLPC   C2520577   6.124   4.517  10.145  0.2022 -0.2426  0.3975
  180SLPC   H5R20578   6.107   4.413  10.179 -1.7353  0.1039  0.6207
  180SLPC   H5S20579   6.204   4.566  10.204  0.1001  0.2881  0.1054
  180SLPC   C2620580   6.169   4.509  10.003  0.0144 -0.1405  0.5245
  180SLPC   H6R20581   6.188   4.606   9.952  2.4978 -1.8572 -2.2024
  180SLPC   H6S20582   6.099   4.458   9.933  2.2436 -2.5279 -0.1642
  180SLPC   C2720583   6.297   4.429   9.992 -0.0648  0.5447 -0.2855
  180SLPC   H7R20584   6.288   4.334  10.048 -2.1920  0.3413 -0.8890
  180SLPC   H7S20585   6.367   4.495  10.047 -1.4187  0.0972  2.0743
  180SLPC   C2820586   6.343   4.393   9.847  0.4177  0.6512  0.6955
  180SLPC   H8R20587   6.255   4.360   9.788  0.2321  1.1743  0.6770
  180SLPC   H8S20588   6.414   4.308   9.850  1.6124  1.5752 -0.4083
  180SLPC   C2920589   6.426   4.495   9.783 -0.3732 -0.4273 -0.3654
  180SLPC   H9R20590   6.467   4.570   9.853  1.8240  0.4868 -2.4606
  180SLPC  C21020591   6.438   4.530   9.649 -0.4034 -0.4941  0.0807
  180SLPC  H10R20592   6.507   4.608   9.615 -1.7781  1.0659  0.7046
  180SLPC  C21120593   6.368   4.448   9.540 -0.3977 -0.2417 -0.7364
  180SLPC  H11R20594   6.272   4.503   9.525 -0.2380  0.8353  1.6885
  180SLPC  H11S20595   6.334   4.350   9.578  0.2154 -0.7347 -1.4329
  180SLPC  C21220596   6.451   4.437   9.409 -0.2479  0.0018 -0.8025
  180SLPC  H12R20597   6.525   4.515   9.386 -1.1614  1.6609  1.5347
  180SLPC  C21320598   6.437   4.342   9.320 -0.5425  0.3463  0.1315
  180SLPC  H13R20599   6.502   4.343   9.231 -1.7703  0.5965 -0.7885
  180SLPC  C21420600   6.341   4.225   9.315  0.6596  0.3697  0.1534
  180SLPC  H14R20601   6.267   4.236   9.397 -0.5781  1.9651 -1.1247
  180SLPC  H14S20602   6.382   4.123   9.331 -2.8097 -1.0305  1.0637
  180SLPC  C21520603   6.255   4.240   9.189  0.0425 -0.1989 -0.0769
  180SLPC  H15R20604   6.233   4.347   9.169  1.4292  0.2113  0.4572
  180SLPC  H15S20605   6.172   4.167   9.197  1.9463 -2.7073 -1.5292
  180SLPC  C21620606   6.323   4.199   9.055 -0.2928  0.2202 -0.0712
  180SLPC  H16R20607   6.334   4.089   9.044  2.4894  0.3144  0.8794
  180SLPC  H16S20608   6.429   4.233   9.066 -0.0540 -1.0542  2.1340
  180SLPC  C21720609   6.261   4.245   8.922  0.3117 -0.4284 -0.4727
  180SLPC  H17R20610   6.335   4.233   8.839 -0.7152  3.7544 -2.2817
  180SLPC  H17S20611   6.251   4.356   8.925 -1.7073 -0.5990  1.4904
  180SLPC  C21820612   6.129   4.183   8.894  0.2083  0.1962 -0.0562
  180SLPC  H18R20613   6.129   4.075   8.920  1.4355  0.3789  0.7626
  180SLPC  H18S20614   6.102   4.187   8.786 -1.2009  1.4209  0.3061
  180SLPC  H18T20615   6.047   4.231   8.952 -0.8343 -0.1328 -1.2168
  180SLPC   C3320616   6.280   4.865  10.016 -0.1447  0.2513  0.4847
  180SLPC   H3X20617   6.182   4.811  10.015  0.4319 -0.9234 -1.9354
  180SLPC   H3Y20618   6.360   4.789  10.027 -0.9705 -0.5661  1.0527
  180SLPC   C3420619   6.287   4.942   9.881 -0.1040  0.9629  0.1621
  180SLPC   H4X20620   6.386   4.990   9.863 -0.2473  1.0974 -0.2806
  180SLPC   H4Y20621   6.205   5.017   9.878  0.9196  2.1664  1.2911
  180SLPC   C3520622   6.259   4.856   9.753  0.2275 -0.5310 -0.5228
  180SLPC   H5X20623   6.163   4.802   9.769  0.0646  0.4170  2.2440
  180SLPC   H5Y20624   6.339   4.780   9.746 -0.2151 -0.9813 -0.7523
  180SLPC   C3620625   6.247   4.959   9.635  0.4808 -0.5891  0.5258
  180SLPC   H6X20626   6.345   5.012   9.637  1.5090 -2.3749  2.9680
  180SLPC   H6Y20627   6.175   5.041   9.656 -0.1561 -0.9093 -0.3615
  180SLPC   C3720628   6.230   4.894   9.504  0.7454 -0.2872 -0.5843
  180SLPC   H7X20629   6.167   4.961   9.441  0.7767  0.2854 -0.0162
  180SLPC   H7Y20630   6.162   4.807   9.512 -1.9640  1.7305 -0.2371
  180SLPC   C3820631   6.355   4.856   9.432 -0.4268  0.5674 -0.1586
  180SLPC   H8X20632   6.418   4.806   9.509 -3.2533  0.3631  2.2303
  180SLPC   H8Y20633   6.410   4.947   9.402  1.3727  0.4605  2.4545
  180SLPC   C3920634   6.321   4.764   9.320 -0.1122 -0.1580 -0.3090
  180SLPC   H9X20635   6.250   4.811   9.249  2.0915 -0.3581 -2.8193
  180SLPC   H9Y20636   6.293   4.663   9.357 -1.1423  1.1033  2.5752
  180SLPC  C31020637   6.439   4.745   9.219 -0.4399  0.3103  0.6955
  180SLPC  H10X20638   6.526   4.699   9.272  0.6348 -0.8878 -1.9381
  180SLPC  H10Y20639   6.477   4.842   9.180  2.6634 -0.3168  1.8448
  180SLPC  C31120640   6.409   4.656   9.098 -0.2736 -0.4510  0.1194
  180SLPC  H11X20641   6.312   4.684   9.053 -0.0006 -1.4285 -1.1349
  180SLPC  H11Y20642   6.406   4.548   9.127  0.1084 -0.6109 -0.4114
  180SLPC  C31220643   6.504   4.669   8.976  0.4966 -0.7382 -0.8583
  180SLPC  H12X20644   6.611   4.680   9.002  0.1000  0.2005  0.4965
  180SLPC  H12Y20645   6.484   4.765   8.923 -0.4730 -0.1964  0.4253
  180SLPC  C31320646   6.484   4.555   8.866 -0.1589 -0.1135  0.2761
  180SLPC  H13X20647   6.465   4.456   8.913 -0.8768  0.3043  0.8870
  180SLPC  H13Y20648   6.574   4.539   8.803 -1.6525  1.3602 -2.3737
  180SLPC  C31420649   6.360   4.585   8.777 -0.3162 -0.5718  0.2145
  180SLPC  H14X20650   6.375   4.685   8.732  0.0391 -0.7928 -0.1652
  180SLPC  H14Y20651   6.270   4.589   8.843  0.3272 -2.3867  1.2778
  180SLPC  C31520652   6.332   4.490   8.661 -0.9491  0.4864  0.0934
  180SLPC  H15X20653   6.348   4.383   8.686  2.4039  0.1931 -2.5315
  180SLPC  H15Y20654   6.415   4.510   8.589 -3.0932  1.4140 -2.2735
  180SLPC  C31620655   6.208   4.534   8.587  0.3699 -0.2042 -0.8045
  180SLPC  H16X20656   6.116   4.508   8.645 -0.1476  2.4375 -0.2871
  180SLPC  H16Y20657   6.199   4.474   8.494 -0.4739 -1.2240 -0.0840
  180SLPC  C31720658   6.196   4.681   8.546 -0.3728 -0.2461  0.2283
  180SLPC  H17X20659   6.294   4.707   8.502 -0.7581 -0.7502 -0.9675
  180SLPC  H17Y20660   6.185   4.744   8.637 -2.1264  1.0572 -0.8129
  180SLPC  C31820661   6.072   4.708   8.455  0.3213  0.0343 -0.0592
  180SLPC  H18X20662   5.989   4.643   8.491  1.7092 -1.4342  0.6787
  180SLPC  H18Y20663   6.075   4.667   8.352 -1.7860 -1.1736  0.2949
  180SLPC  H18Z20664   6.041   4.814   8.453 -0.9111 -0.3104 -1.6676
  181SLPC     N20665   0.595   6.093  11.205 -0.2957  0.2686 -0.5436
  181SLPC   C1320666   0.696   6.200  11.228  0.3260 -0.4554  0.3726
  181SLPC  H13A20667   0.798   6.172  11.250  0.5078  3.1334  5.8437
  181SLPC  H13B20668   0.692   6.261  11.139  0.4250 -1.1204 -0.0961
  181SLPC  H13C20669   0.671   6.259  11.314 -3.0859  0.2325 -0.9422
  181SLPC   C1420670   0.599   5.998  11.323  0.5904  0.6910  0.1170
  181SLPC  H14A20671   0.529   6.028  11.399 -1.9373 -0.5928 -1.5752
  181SLPC  H14B20672   0.580   5.900  11.283  3.6178  0.1836 -0.3809
  181SLPC  H14C20673   0.698   5.999  11.367  0.2916 -1.9394  1.0351
  181SLPC   C1520674   0.624   6.019  11.082  0.1676 -0.7948  0.3022
  181SLPC  H15A20675   0.617   6.089  11.001  2.1615 -0.8404  0.0351
  181SLPC  H15B20676   0.724   5.979  11.070  0.7613  0.9184 -0.8073
  181SLPC  H15C20677   0.559   5.935  11.060 -1.5818  0.5826 -0.0162
  181SLPC   C1220678   0.461   6.159  11.203 -0.6998 -0.0160  0.1912
  181SLPC  H12A20679   0.457   6.235  11.279  2.5544 -1.2567  1.7775
  181SLPC  H12B20680   0.388   6.084  11.232  0.1671 -0.5900  0.9364
  181SLPC   C1120681   0.409   6.220  11.067  0.1607 -0.5990  0.0141
  181SLPC  H11A20682   0.305   6.252  11.086 -0.6560 -2.7527 -0.5816
  181SLPC  H11B20683   0.392   6.139  10.993  0.6711 -0.3204 -0.4161
  181SLPC     P20684   0.443   6.441  10.954  0.2263 -0.3003  0.5169
  181SLPC   O1320685   0.323   6.397  10.874 -0.6495  0.2029 -0.2248
  181SLPC   O1420686   0.430   6.559  11.046  0.1871  0.3673 -0.5986
  181SLPC   O1220687   0.491   6.324  11.031  0.0278 -0.0602  0.4366
  181SLPC   O1120688   0.565   6.464  10.856  0.0283  0.3028  0.0907
  181SLPC    C120689   0.593   6.352  10.765 -0.6934 -0.6519  1.3340
  181SLPC    HA20690   0.652   6.266  10.803  1.8407 -1.5205 -3.6773
  181SLPC    HB20691   0.507   6.320  10.701  0.5867 -2.1523  0.2885
  181SLPC    C220692   0.686   6.402  10.649  0.0231 -0.2767 -0.0264
  181SLPC    HS20693   0.783   6.438  10.689  0.2332  0.6634 -1.2979
  181SLPC   O2120694   0.607   6.510  10.587 -0.3849  0.3426 -0.1041
  181SLPC   C2120695   0.666   6.619  10.551 -1.0608  0.1237  0.3218
  181SLPC   O2220696   0.786   6.648  10.568  0.0793  0.0718 -0.2993
  181SLPC   C2220697   0.563   6.711  10.467 -0.0661  0.1663 -0.2951
  181SLPC   H2R20698   0.482   6.649  10.423 -0.2490  0.1845  0.0139
  181SLPC   H2S20699   0.522   6.781  10.543  1.3644  0.4801  0.2219
  181SLPC    C320700   0.718   6.301  10.538  0.3260 -0.8130 -0.4305
  181SLPC    HX20701   0.622   6.269  10.493 -0.5484 -0.5238  1.1671
  181SLPC    HY20702   0.768   6.210  10.578  0.3280  0.1912  2.0300
  181SLPC   O3120703   0.800   6.363  10.434  0.0747  0.1342 -0.1741
  181SLPC   C3120704   0.929   6.390  10.467 -0.1143  0.1406 -0.1014
  181SLPC   O3220705   0.978   6.378  10.580  0.0443  0.4151  0.2614
  181SLPC   C3220706   0.995   6.472  10.354 -0.3400 -0.0467  0.9784
  181SLPC   H2X20707   0.913   6.529  10.305 -0.1229  1.0007  1.8127
  181SLPC   H2Y20708   1.033   6.398  10.280 -0.3150 -0.0890  1.0322
  181SLPC   C2320709   0.627   6.789  10.350 -0.3593  0.5653  0.0402
  181SLPC   H3R20710   0.727   6.826  10.381  0.2877 -0.2377 -1.0249
  181SLPC   H3S20711   0.570   6.882  10.325 -0.1459  0.7932  0.3944
  181SLPC   C2420712   0.649   6.696  10.233 -0.1806  0.2204  0.3218
  181SLPC   H4R20713   0.558   6.638  10.208  1.0121 -1.5481 -0.0618
  181SLPC   H4S20714   0.729   6.626  10.264 -1.4157 -0.8725  1.0995
  181SLPC   C2520715   0.715   6.762  10.111  0.7191 -0.6747  0.0049
  181SLPC   H5R20716   0.742   6.683  10.037 -1.2775 -0.7288 -0.7082
  181SLPC   H5S20717   0.811   6.815  10.129  1.6747 -2.5250  0.6176
  181SLPC   C2620718   0.616   6.862  10.041 -0.0695 -0.4173 -0.7035
  181SLPC   H6R20719   0.597   6.937  10.120  1.0928  0.3920 -1.1628
  181SLPC   H6S20720   0.522   6.808  10.016 -0.3461 -1.3297  2.0632
  181SLPC   C2720721   0.657   6.933   9.912  0.3455 -0.3371 -0.3949
  181SLPC   H7R20722   0.561   6.971   9.871  0.0773 -0.3906  0.1863
  181SLPC   H7S20723   0.701   6.859   9.841 -1.2952 -0.3987 -1.4136
  181SLPC   C2820724   0.745   7.063   9.922 -0.1997 -0.3829 -0.6088
  181SLPC   H8R20725   0.836   7.040   9.981 -1.9813  0.1846  2.5723
  181SLPC   H8S20726   0.697   7.140   9.986 -0.5381 -0.9318 -0.1813
  181SLPC   C2920727   0.763   7.107   9.775  0.3251 -0.4019 -0.6022
  181SLPC   H9R20728   0.674   7.099   9.711  0.5755 -1.5057 -0.8218
  181SLPC  C21020729   0.870   7.133   9.707 -0.5552  0.1836 -0.0627
  181SLPC  H10R20730   0.861   7.156   9.600 -2.0392 -0.8518 -0.1864
  181SLPC  C21120731   1.007   7.131   9.765 -0.5102 -0.3346 -0.2859
  181SLPC  H11R20732   1.059   7.043   9.723 -0.4026  0.1192 -1.1310
  181SLPC  H11S20733   1.011   7.112   9.875  0.2472 -0.4060 -0.3214
  181SLPC  C21220734   1.106   7.250   9.755 -0.3237 -0.0404 -0.7645
  181SLPC  H12R20735   1.162   7.274   9.846  0.4225 -0.5902 -1.0695
  181SLPC  C21320736   1.161   7.300   9.644 -0.0231  0.0949 -0.6357
  181SLPC  H13R20737   1.241   7.375   9.643 -0.2666  0.3443 -1.5045
  181SLPC  C21420738   1.125   7.251   9.509 -0.1410  0.4510  0.6604
  181SLPC  H14R20739   1.039   7.315   9.481 -0.9297 -0.8315  0.0531
  181SLPC  H14S20740   1.100   7.143   9.514 -3.6051  1.1637  2.0954
  181SLPC  C21520741   1.243   7.275   9.412 -0.2717 -0.3931  0.0916
  181SLPC  H15R20742   1.218   7.215   9.322 -0.4700  0.8255 -0.6743
  181SLPC  H15S20743   1.345   7.252   9.451  0.1177  1.4097  0.2415
  181SLPC  C21620744   1.256   7.421   9.365 -0.3868 -0.0513  0.5833
  181SLPC  H16R20745   1.270   7.483   9.456 -2.5534 -0.5968  1.3584
  181SLPC  H16S20746   1.157   7.439   9.316 -0.1034 -4.1133 -1.9649
  181SLPC  C21720747   1.364   7.436   9.250 -0.0159  0.2501 -0.3674
  181SLPC  H17R20748   1.368   7.544   9.222 -0.0627  0.6732  1.1493
  181SLPC  H17S20749   1.321   7.386   9.161  1.6171 -1.8341 -0.0650
  181SLPC  C21820750   1.503   7.372   9.275 -0.9622  0.7639 -0.0203
  181SLPC  H18R20751   1.488   7.264   9.296  3.0111  0.1164  0.2403
  181SLPC  H18S20752   1.534   7.414   9.373 -3.8087 -0.4693  1.5170
  181SLPC  H18T20753   1.585   7.379   9.200  0.3688 -2.7398  0.9316
  181SLPC   C3320754   1.103   6.568  10.409  0.1094 -0.1394 -0.0020
  181SLPC   H3X20755   1.188   6.512  10.453 -0.1321 -0.3353  0.2142
  181SLPC   H3Y20756   1.050   6.631  10.483 -0.3144 -0.9750  0.4176
  181SLPC   C3420757   1.170   6.670  10.311  0.2291  0.3277  0.1793
  181SLPC   H4X20758   1.226   6.605  10.241  1.1668 -1.2136  2.2599
  181SLPC   H4Y20759   1.240   6.735  10.367 -0.1365  0.3687  0.5993
  181SLPC   C3520760   1.065   6.757  10.228 -0.2332  0.2257  0.6733
  181SLPC   H5X20761   0.989   6.790  10.303 -0.5736 -0.1340  0.4890
  181SLPC   H5Y20762   1.003   6.700  10.156  0.1628  0.7304 -0.0820
  181SLPC   C3620763   1.140   6.868  10.158 -0.5428 -0.3161  0.3115
  181SLPC   H6X20764   1.221   6.918  10.215 -1.3218 -0.2655  1.3948
  181SLPC   H6Y20765   1.071   6.948  10.122 -1.4329  0.4056  3.3649
  181SLPC   C3720766   1.208   6.815  10.030  0.2637  0.0866 -0.6104
  181SLPC   H7X20767   1.122   6.781   9.968 -2.8724 -0.9087  3.8486
  181SLPC   H7Y20768   1.267   6.722  10.038 -1.4457 -0.9522  0.5573
  181SLPC   C3820769   1.284   6.915   9.954  0.2235 -0.8051  0.3294
  181SLPC   H8X20770   1.368   6.953  10.015 -0.2849  1.3134 -0.2069
  181SLPC   H8Y20771   1.220   7.005   9.937  0.9412 -0.4936 -0.8003
  181SLPC   C3920772   1.339   6.876   9.809 -0.5476 -0.5891 -0.1643
  181SLPC   H9X20773   1.261   6.883   9.730  0.8928  0.2368 -1.5435
  181SLPC   H9Y20774   1.384   6.774   9.819 -1.9613 -1.1481  0.9596
  181SLPC  C31020775   1.466   6.959   9.777  0.4282  0.2959 -0.3713
  181SLPC  H10X20776   1.539   6.947   9.860 -0.5232  0.3064  0.4935
  181SLPC  H10Y20777   1.429   7.064   9.773 -0.3462  0.0110 -0.8127
  181SLPC  C31120778   1.528   6.917   9.644 -0.0188 -0.0277  0.3102
  181SLPC  H11X20779   1.514   6.807   9.635 -0.3543 -0.2574  2.9260
  181SLPC  H11Y20780   1.637   6.939   9.641  0.3693 -1.8353 -1.2029
  181SLPC  C31220781   1.471   6.976   9.512 -0.6609 -0.3142  0.2691
  181SLPC  H12X20782   1.478   7.087   9.508 -1.9135 -0.1379  1.8808
  181SLPC  H12Y20783   1.362   6.956   9.511 -0.2146 -3.3372  1.5020
  181SLPC  C31320784   1.540   6.919   9.382 -0.2436 -0.3195 -0.0477
  181SLPC  H13X20785   1.550   6.809   9.398 -1.9170 -0.7961 -1.9017
  181SLPC  H13Y20786   1.640   6.958   9.355 -0.3753 -0.0440 -0.1334
  181SLPC  C31420787   1.446   6.939   9.263 -0.4100  0.7456  0.1397
  181SLPC  H14X20788   1.371   7.019   9.278  1.2342  1.8221  3.6027
  181SLPC  H14Y20789   1.389   6.846   9.239 -1.9985  1.6113  0.4252
  181SLPC  C31520790   1.533   6.982   9.140 -0.1505  0.7792 -0.1152
  181SLPC  H15X20791   1.615   6.913   9.112 -0.4634  1.1610 -2.1228
  181SLPC  H15Y20792   1.585   7.077   9.165  1.1275 -0.7463  3.5910
  181SLPC  C31620793   1.461   6.993   9.007  0.9162 -0.2591  0.5744
  181SLPC  H16X20794   1.424   6.894   8.974  1.6174 -0.5846  0.7552
  181SLPC  H16Y20795   1.533   7.020   8.926 -1.3842  2.2775 -0.8125
  181SLPC  C31720796   1.347   7.093   9.027 -0.2113 -0.1071  0.6030
  181SLPC  H17X20797   1.375   7.178   9.092  2.4310  0.1844 -0.7630
  181SLPC  H17Y20798   1.263   7.043   9.080 -0.7729 -1.1856 -1.1977
  181SLPC  C31820799   1.295   7.144   8.890 -0.4150  0.4243  0.0659
  181SLPC  H18X20800   1.278   7.055   8.825  1.7327  0.0180 -0.0087
  181SLPC  H18Y20801   1.379   7.202   8.848 -0.6789  0.2448 -0.7273
  181SLPC  H18Z20802   1.199   7.200   8.893 -0.8611 -0.3492  0.9478
  182SLPC     N20803   3.985   3.745  11.426  0.6197  0.2462 -0.3191
  182SLPC   C1320804   3.883   3.850  11.456 -0.4414  0.1979  0.3630
  182SLPC  H13A20805   3.805   3.849  11.382  0.5310  1.2527 -0.7088
  182SLPC  H13B20806   3.841   3.840  11.555 -1.6889 -2.4503 -0.3364
  182SLPC  H13C20807   3.927   3.948  11.453 -0.9999  0.4627 -2.9205
  182SLPC   C1420808   3.922   3.610  11.443  0.3800 -0.9424 -0.6302
  182SLPC  H14A20809   3.874   3.591  11.538 -1.2525 -1.2332 -1.4817
  182SLPC  H14B20810   3.848   3.603  11.364  1.3289  1.1799 -1.7983
  182SLPC  H14C20811   3.996   3.531  11.440  0.8166 -0.5351 -0.6807
  182SLPC   C1520812   4.098   3.756  11.517 -0.6680 -0.3350 -0.5969
  182SLPC  H15A20813   4.155   3.846  11.499  0.7573 -1.0308  0.2497
  182SLPC  H15B20814   4.062   3.741  11.618 -1.8493 -2.0122 -1.2128
  182SLPC  H15C20815   4.163   3.677  11.484  0.1092  0.0553 -0.0234
  182SLPC   C1220816   4.042   3.755  11.286  0.4931 -0.2446 -0.0022
  182SLPC  H12A20817   4.100   3.665  11.273  2.6340  0.7598  1.8649
  182SLPC  H12B20818   4.110   3.839  11.279 -0.1364  0.2597 -0.1673
  182SLPC   C1120819   3.949   3.757  11.164  0.1754  0.0560  0.1386
  182SLPC  H11A20820   3.991   3.807  11.074 -1.6382 -0.2101 -0.9120
  182SLPC  H11B20821   3.861   3.823  11.186 -1.3155 -1.1908 -1.7609
  182SLPC     P20822   3.975   3.529  11.057 -0.0463 -0.1293  0.0136
  182SLPC   O1320823   4.107   3.509  11.115 -0.4015 -0.3915 -0.2708
  182SLPC   O1420824   3.893   3.408  11.028  0.3063 -0.3527 -0.5301
  182SLPC   O1220825   3.889   3.624  11.149 -0.4167  0.2346 -0.3146
  182SLPC   O1120826   3.997   3.619  10.927  0.3174  0.0021  0.0851
  182SLPC    C120827   3.894   3.618  10.828 -0.7140  0.2816 -0.2512
  182SLPC    HA20828   3.798   3.571  10.858 -1.7242  1.7385 -1.0709
  182SLPC    HB20829   3.853   3.720  10.815 -0.1780  0.3667 -1.4487
  182SLPC    C220830   3.940   3.555  10.693 -0.3659 -0.5873 -0.3047
  182SLPC    HS20831   3.969   3.449  10.711 -0.5675 -0.3421  1.7651
  182SLPC   O2120832   4.053   3.630  10.642 -0.0988 -0.2686 -0.5002
  182SLPC   C2120833   4.104   3.589  10.531 -0.4455  0.0891 -0.0422
  182SLPC   O2220834   4.092   3.476  10.484 -0.0213  0.8925 -0.0025
  182SLPC   C2220835   4.179   3.704  10.452  0.3989 -1.1222 -0.5819
  182SLPC   H2R20836   4.108   3.789  10.455  2.6878  0.8379  1.7825
  182SLPC   H2S20837   4.268   3.738  10.508 -2.3472  0.6166  3.1883
  182SLPC    C320838   3.808   3.551  10.594 -0.0724  0.2659 -0.5302
  182SLPC    HX20839   3.723   3.501  10.644 -0.3458  1.2319 -0.0145
  182SLPC    HY20840   3.837   3.485  10.509 -2.7044 -1.2845 -0.3026
  182SLPC   O3120841   3.778   3.683  10.557  0.2430  0.0458 -0.4954
  182SLPC   C3120842   3.691   3.687  10.457 -0.3401 -0.2340  0.1744
  182SLPC   O3220843   3.633   3.591  10.413 -0.1298 -0.6339  0.5799
  182SLPC   C3220844   3.694   3.827  10.400 -0.1474  0.1118 -0.4463
  182SLPC   H2X20845   3.797   3.866  10.416 -0.0073 -0.9486  1.5802
  182SLPC   H2Y20846   3.625   3.894  10.454 -0.5063 -0.7345  0.1746
  182SLPC   C2320847   4.205   3.680  10.305 -0.4017 -0.1416 -0.6155
  182SLPC   H3R20848   4.132   3.605  10.267  0.7132 -1.7108  0.1867
  182SLPC   H3S20849   4.308   3.637  10.304  0.6781  2.2162  0.3931
  182SLPC   C2420850   4.218   3.801  10.215 -0.1884  0.0093 -0.0025
  182SLPC   H4R20851   4.306   3.859  10.252  1.2304 -1.6841 -0.5570
  182SLPC   H4S20852   4.124   3.859  10.225 -1.6285 -2.4652  2.7659
  182SLPC   C2520853   4.242   3.771  10.066 -0.3519  0.0354  0.5434
  182SLPC   H5R20854   4.264   3.868  10.016  0.7745  0.4579  1.8247
  182SLPC   H5S20855   4.145   3.737  10.023 -1.3914  1.3091  1.8138
  182SLPC   C2620856   4.353   3.668  10.031 -0.3730 -0.2515 -0.0377
  182SLPC   H6R20857   4.333   3.573  10.086  1.0157 -1.1139 -0.9432
  182SLPC   H6S20858   4.451   3.700  10.072  1.0090 -2.1714 -1.6139
  182SLPC   C2720859   4.361   3.638   9.880 -0.2942 -0.2250  0.1371
  182SLPC   H7R20860   4.257   3.656   9.844  0.1772  2.7196  0.0124
  182SLPC   H7S20861   4.393   3.533   9.866 -0.4156 -0.1727 -0.6208
  182SLPC   C2820862   4.458   3.739   9.800 -0.1934  0.6674 -0.3017
  182SLPC   H8R20863   4.413   3.840   9.795 -1.7251 -0.0443 -2.5935
  182SLPC   H8S20864   4.457   3.705   9.694 -0.8352  0.0916 -0.1201
  182SLPC   C2920865   4.602   3.736   9.851  0.2624 -0.0367  0.6541
  182SLPC   H9R20866   4.610   3.724   9.960 -0.3515 -0.9514  0.6092
  182SLPC  C21020867   4.707   3.773   9.771  0.0925  0.3184  0.5095
  182SLPC  H10R20868   4.811   3.764   9.804  0.5015  2.0742 -0.1936
  182SLPC  C21120869   4.698   3.811   9.623  0.7933  0.1824 -0.1221
  182SLPC  H11R20870   4.769   3.896   9.610 -0.9287  1.4726 -1.5088
  182SLPC  H11S20871   4.599   3.854   9.595  1.7073  1.2200 -2.0349
  182SLPC  C21220872   4.737   3.689   9.536 -0.0370  0.1808  0.0820
  182SLPC  H12R20873   4.826   3.635   9.572  1.4176  2.2646 -0.2005
  182SLPC  C21320874   4.667   3.649   9.434 -0.1654 -0.0905  0.0220
  182SLPC  H13R20875   4.706   3.572   9.366 -1.3968  0.4053 -1.3025
  182SLPC  C21420876   4.541   3.712   9.388 -0.0113  0.5286 -0.0068
  182SLPC  H14R20877   4.555   3.818   9.359  0.2465  0.4150 -0.3069
  182SLPC  H14S20878   4.466   3.705   9.470 -1.7268  1.5566 -1.4050
  182SLPC  C21520879   4.478   3.615   9.294  0.2577  0.5736  0.7837
  182SLPC  H15R20880   4.371   3.643   9.278  0.6960  1.2124 -1.3990
  182SLPC  H15S20881   4.479   3.511   9.334 -2.0576  0.2746  0.2270
  182SLPC  C21620882   4.538   3.601   9.155  0.1564 -0.0203 -0.4373
  182SLPC  H16R20883   4.646   3.580   9.164  0.2681  0.6802 -0.1101
  182SLPC  H16S20884   4.549   3.699   9.103  0.0532 -0.0540 -0.5255
  182SLPC  C21720885   4.469   3.507   9.059  0.3860  0.0792  0.4673
  182SLPC  H17R20886   4.367   3.547   9.045 -0.3911 -1.6440  0.8767
  182SLPC  H17S20887   4.461   3.408   9.108 -0.0986 -0.1598 -0.0796
  182SLPC  C21820888   4.544   3.478   8.926  0.1429  0.6351 -0.7868
  182SLPC  H18R20889   4.488   3.403   8.866 -1.4022 -0.6681  2.0807
  182SLPC  H18S20890   4.644   3.448   8.962 -1.1957 -1.0446  1.8792
  182SLPC  H18T20891   4.551   3.570   8.864 -0.9294 -0.5809 -2.7998
  182SLPC   C3320892   3.661   3.821  10.245 -0.1825 -0.4229 -0.2898
  182SLPC   H3X20893   3.633   3.919  10.201 -0.3652 -0.1198  0.4829
  182SLPC   H3Y20894   3.573   3.754  10.238 -1.2155  0.8044  0.3903
  182SLPC   C3420895   3.771   3.780  10.157  0.6470  1.0651 -0.1832
  182SLPC   H4X20896   3.803   3.678  10.189 -0.1909  0.6245 -0.7129
  182SLPC   H4Y20897   3.852   3.854  10.172  1.2456  0.2881  0.4991
  182SLPC   C3520898   3.737   3.767  10.006 -0.3678 -0.1690  0.0327
  182SLPC   H5X20899   3.810   3.708   9.947  0.9420  0.6591  0.7659
  182SLPC   H5Y20900   3.719   3.863   9.954 -1.6163 -0.0810  0.5841
  182SLPC   C3620901   3.608   3.697   9.973  0.4727  0.0076 -0.5269
  182SLPC   H6X20902   3.524   3.750  10.022 -0.1355  1.2058 -2.7636
  182SLPC   H6Y20903   3.613   3.595  10.018 -0.4690 -0.0340 -0.4994
  182SLPC   C3720904   3.585   3.691   9.828 -0.0186 -0.1582 -1.1329
  182SLPC   H7X20905   3.644   3.608   9.784  0.9223 -0.0894 -0.0404
  182SLPC   H7Y20906   3.620   3.787   9.784  3.4185 -0.7278  0.0829
  182SLPC   C3820907   3.437   3.667   9.793  0.9021  0.1140 -0.1920
  182SLPC   H8X20908   3.381   3.752   9.838  0.9364 -0.8903  1.8845
  182SLPC   H8Y20909   3.391   3.577   9.839 -0.6078  1.0417  0.1686
  182SLPC   C3920910   3.415   3.682   9.638 -0.1206  0.6844  0.1588
  182SLPC   H9X20911   3.318   3.639   9.604  1.2437  0.2449 -3.6183
  182SLPC   H9Y20912   3.494   3.627   9.584 -0.4091  0.1116  0.3146
  182SLPC  C31020913   3.412   3.821   9.581  0.1647 -0.1276 -0.2326
  182SLPC  H10X20914   3.510   3.870   9.596 -0.3230  0.8338 -0.0590
  182SLPC  H10Y20915   3.344   3.887   9.640  2.3353  0.5093  1.6795
  182SLPC  C31120916   3.372   3.826   9.439  0.2606  0.2696 -0.0173
  182SLPC  H11X20917   3.269   3.790   9.416 -0.7513  2.3432  0.9412
  182SLPC  H11Y20918   3.445   3.766   9.381  1.3783  1.2082  0.3750
  182SLPC  C31220919   3.376   3.967   9.378  0.5486  0.2913  0.3942
  182SLPC  H12X20920   3.482   3.993   9.356  0.2729  0.5263 -0.6951
  182SLPC  H12Y20921   3.331   4.040   9.448  0.5554  1.7714 -1.0928
  182SLPC  C31320922   3.291   3.976   9.248 -0.6771  0.1844  0.6337
  182SLPC  H13X20923   3.327   3.912   9.164  1.8177 -0.1713  1.8843
  182SLPC  H13Y20924   3.296   4.080   9.209  1.4127 -0.4879 -1.1177
  182SLPC  C31420925   3.137   3.955   9.272 -0.1608  0.0621  0.1878
  182SLPC  H14X20926   3.104   4.023   9.353 -2.1215  1.0347 -1.3420
  182SLPC  H14Y20927   3.106   3.850   9.291  1.0931 -0.1808  1.0178
  182SLPC  C31520928   3.050   3.998   9.144 -0.2602 -0.2489 -0.5478
  182SLPC  H15X20929   3.071   4.106   9.134 -1.8651  0.3459  1.6533
  182SLPC  H15Y20930   2.948   3.993   9.188 -0.2466  0.2672 -0.4469
  182SLPC  C31620931   3.072   3.924   9.011  0.7047 -0.1574  0.4704
  182SLPC  H16X20932   3.054   3.816   9.029 -1.2757  0.2699  1.2944
  182SLPC  H16Y20933   3.176   3.943   8.977  0.8876 -1.6155  0.1400
  182SLPC  C31720934   2.970   3.975   8.903 -0.4425  0.0882  0.0813
  182SLPC  H17X20935   2.973   4.085   8.895  1.5006  0.0194 -0.8019
  182SLPC  H17Y20936   2.864   3.952   8.927 -1.6417  1.2593 -3.5197
  182SLPC  C31820937   2.998   3.917   8.763  0.3318  0.0515 -0.8444
  182SLPC  H18X20938   3.104   3.936   8.735  0.3705  1.0807 -0.0661
  182SLPC  H18Y20939   2.933   3.978   8.696  0.5740  1.8597  0.4753
  182SLPC  H18Z20940   2.976   3.810   8.745  1.1919 -0.1446 -0.7716
  183SLPC     N20941   2.189   4.237  11.099 -0.3264 -0.4864  0.3858
  183SLPC   C1320942   2.198   4.370  11.039 -0.7043  0.9835  0.3211
  183SLPC  H13A20943   2.256   4.393  10.951 -0.5996 -1.1680 -0.2436
  183SLPC  H13B20944   2.101   4.411  11.016 -0.5888  2.8996  2.9001
  183SLPC  H13C20945   2.250   4.444  11.098  0.5836  1.5140 -1.4006
  183SLPC   C1420946   2.074   4.254  11.189 -0.6529  0.5306 -0.2634
  183SLPC  H14A20947   2.082   4.330  11.264 -0.6179 -0.1351  0.4175
  183SLPC  H14B20948   1.989   4.290  11.133 -1.6026 -1.0113  0.1393
  183SLPC  H14C20949   2.055   4.163  11.244  0.7563 -1.9596 -3.5180
  183SLPC   C1520950   2.315   4.212  11.173  0.3649 -0.2501  0.5177
  183SLPC  H15A20951   2.335   4.297  11.237  3.4188  0.8040 -1.5761
  183SLPC  H15B20952   2.298   4.114  11.216 -0.3901 -1.4068 -2.2035
  183SLPC  H15C20953   2.399   4.200  11.106 -2.3549  1.8271 -3.6677
  183SLPC   C1220954   2.158   4.130  10.999  0.5335 -0.1148 -0.4446
  183SLPC  H12A20955   2.157   4.038  11.057  0.4148  1.0752  1.5433
  183SLPC  H12B20956   2.240   4.109  10.932  0.6245  0.2706 -0.4546
  183SLPC   C1120957   2.028   4.146  10.914  0.5229  0.1021  0.4654
  183SLPC  H11A20958   2.035   4.079  10.826 -1.3119 -2.6578  2.2679
  183SLPC  H11B20959   2.012   4.245  10.866 -1.3291 -1.1869 -1.7503
  183SLPC     P20960   1.770   4.184  10.973 -0.1505 -0.2013 -0.1503
  183SLPC   O1320961   1.677   4.114  11.062  0.1194  0.2077  0.8954
  183SLPC   O1420962   1.791   4.334  10.990  0.2157  0.2091 -0.5565
  183SLPC   O1220963   1.906   4.113  10.999  0.0511 -0.1257 -0.2414
  183SLPC   O1120964   1.743   4.144  10.827  0.4201  0.0055  0.1717
  183SLPC    C120965   1.725   4.013  10.787 -0.0974  0.1033  0.5395
  183SLPC    HA20966   1.817   3.977  10.737  0.0373  2.1883 -0.8050
  183SLPC    HB20967   1.709   3.944  10.873  0.5983 -2.2184 -1.0932
  183SLPC    C220968   1.612   4.002  10.687  0.1336 -0.2117 -0.6368
  183SLPC    HS20969   1.595   3.893  10.672 -0.9333  0.0158 -1.2096
  183SLPC   O2120970   1.653   4.068  10.565  0.5140  0.3106 -0.5716
  183SLPC   C2120971   1.734   3.995  10.499 -0.1634 -0.9379  0.4330
  183SLPC   O2220972   1.791   3.894  10.532  0.2001  0.3279  0.0094
  183SLPC   C2220973   1.749   4.062  10.361  0.1387 -0.0409  0.1416
  183SLPC   H2R20974   1.657   4.122  10.345  0.3755  0.7956  1.7233
  183SLPC   H2S20975   1.835   4.131  10.374  1.7594 -2.3441  2.6794
  183SLPC    C320976   1.479   4.059  10.742  0.0603 -0.4103 -0.5907
  183SLPC    HX20977   1.509   4.162  10.770  1.6858 -1.2435  0.9729
  183SLPC    HY20978   1.444   4.006  10.833  0.9502 -2.9462 -1.6233
  183SLPC   O3120979   1.377   4.058  10.638 -0.5938 -0.4335 -0.7438
  183SLPC   C3120980   1.330   4.175  10.588 -0.2564  0.1814 -0.4907
  183SLPC   O3220981   1.357   4.284  10.639  0.0878  0.8990  0.0649
  183SLPC   C3220982   1.243   4.147  10.465 -0.4552 -1.1395  0.1416
  183SLPC   H2X20983   1.182   4.239  10.474  0.0444 -0.5695 -1.8309
  183SLPC   H2Y20984   1.184   4.054  10.481 -3.2308  0.7392  1.6539
  183SLPC   C2320985   1.779   3.963  10.235  0.7160 -0.7167  0.3512
  183SLPC   H3R20986   1.689   3.899  10.216  0.3930  0.0317 -0.6998
  183SLPC   H3S20987   1.859   3.893  10.266  1.1180  0.2561  1.5635
  183SLPC   C2420988   1.811   4.038  10.098  0.5839  0.0320 -0.1099
  183SLPC   H4R20989   1.918   4.071  10.097  1.1253 -1.6419 -0.3552
  183SLPC   H4S20990   1.744   4.125  10.084 -0.8864 -0.6957  1.9321
  183SLPC   C2520991   1.794   3.940   9.983 -0.1809  0.1068 -0.1498
  183SLPC   H5R20992   1.697   3.889  10.002 -0.8624  1.1759 -0.6272
  183SLPC   H5S20993   1.872   3.863   9.996 -1.9326 -1.4842  1.3784
  183SLPC   C2620994   1.795   4.003   9.845  0.3901  0.2594  0.1354
  183SLPC   H6R20995   1.875   4.075   9.820 -1.8249  1.7363 -3.5778
  183SLPC   H6S20996   1.697   4.055   9.831  0.5404  0.4894 -0.0616
  183SLPC   C2720997   1.815   3.897   9.731 -0.1238 -0.2819  0.4936
  183SLPC   H7R20998   1.758   3.803   9.741  0.1412 -0.4593  0.3568
  183SLPC   H7S20999   1.921   3.863   9.740 -0.0476 -0.1130  0.2650
  183SLPC   C2821000   1.805   3.956   9.591 -0.7607  0.7516  0.3335
  183SLPC   H8R21001   1.870   3.898   9.522  0.9381  2.4049  0.4672
  183SLPC   H8S21002   1.863   4.049   9.608 -0.4210  0.5470  0.3117
  183SLPC   C2921003   1.656   3.979   9.553 -0.4718  0.8423 -0.1535
  183SLPC   H9R21004   1.592   4.037   9.620 -1.8589  0.9830 -1.5365
  183SLPC  C21021005   1.594   3.942   9.434 -0.1078  0.7479  0.5124
  183SLPC  H10R21006   1.485   3.956   9.430  0.0769  2.1593 -0.2671
  183SLPC  C21121007   1.652   3.872   9.323 -0.4678 -0.6007  0.6581
  183SLPC  H11R21008   1.582   3.790   9.296  0.5185 -1.7143  1.3646
  183SLPC  H11S21009   1.749   3.828   9.358 -0.4751 -0.3089  1.0559
  183SLPC  C21221010   1.658   3.967   9.206 -0.6542 -0.8926 -0.8871
  183SLPC  H12R21011   1.592   4.051   9.182  0.3436 -0.5147 -2.4416
  183SLPC  C21321012   1.736   3.942   9.102 -0.4192  0.1029 -0.0520
  183SLPC  H13R21013   1.737   4.017   9.021  1.5009  1.7320  1.3939
  183SLPC  C21421014   1.829   3.820   9.088  0.0248 -0.1816  0.0840
  183SLPC  H14R21015   1.783   3.732   9.137 -0.0869  1.1473  2.4937
  183SLPC  H14S21016   1.925   3.843   9.138 -0.8694  1.1871  1.2311
  183SLPC  C21521017   1.854   3.776   8.946  0.2487 -0.0988  0.2187
  183SLPC  H15R21018   1.761   3.743   8.895 -0.0160  0.6912  0.1769
  183SLPC  H15S21019   1.916   3.685   8.960  0.0846 -0.3215 -0.4698
  183SLPC  C21621020   1.935   3.871   8.863 -0.5615  0.1677  0.6064
  183SLPC  H16R21021   2.014   3.917   8.925 -0.5540  0.1139  0.6369
  183SLPC  H16S21022   1.870   3.951   8.822 -1.2632 -0.4602  0.4618
  183SLPC  C21721023   2.002   3.806   8.744  0.0951 -0.5781  0.1168
  183SLPC  H17R21024   1.934   3.794   8.657 -0.8211  0.5057  0.6644
  183SLPC  H17S21025   2.024   3.701   8.773  0.7726 -0.2071  0.9999
  183SLPC  C21821026   2.129   3.874   8.709  0.2766 -0.4003 -0.1167
  183SLPC  H18R21027   2.187   3.824   8.629 -1.0043 -0.8716 -0.7760
  183SLPC  H18S21028   2.187   3.882   8.804  2.0979  1.9785 -1.3111
  183SLPC  H18T21029   2.111   3.981   8.683  2.0975 -0.6242 -2.6553
  183SLPC   C3321030   1.313   4.154  10.331  0.0671  0.5531 -0.0816
  183SLPC   H3X21031   1.419   4.129  10.355 -0.2971 -0.3500  0.6321
  183SLPC   H3Y21032   1.313   4.263  10.309 -0.1190  0.2034 -1.9722
  183SLPC   C3421033   1.247   4.088  10.208  0.1682  0.2191  0.8434
  183SLPC   H4X21034   1.145   4.131  10.201  0.2165  0.7828  2.9616
  183SLPC   H4Y21035   1.234   3.979  10.220  0.2003  0.1237  0.0811
  183SLPC   C3521036   1.322   4.124  10.081  0.5047 -0.1749  0.1002
  183SLPC   H5X21037   1.424   4.082  10.097  1.1981  1.7920  1.1427
  183SLPC   H5Y21038   1.332   4.234  10.078 -1.0988  0.0102  0.9493
  183SLPC   C3621039   1.256   4.067   9.951 -0.3080  0.3289 -0.3143
  183SLPC   H6X21040   1.151   4.095   9.932 -0.4817 -0.5735 -0.7455
  183SLPC   H6Y21041   1.241   3.958   9.965 -1.7110  0.6315  0.6930
  183SLPC   C3721042   1.349   4.105   9.842  0.5379  0.0906  0.8505
  183SLPC   H7X21043   1.455   4.076   9.856  0.5114 -0.8432 -0.6718
  183SLPC   H7Y21044   1.343   4.215   9.856 -4.3318  0.0615  0.7678
  183SLPC   C3821045   1.307   4.052   9.712 -0.2976 -0.2485 -0.2279
  183SLPC   H8X21046   1.260   3.952   9.714 -0.2418 -0.3311 -1.8388
  183SLPC   H8Y21047   1.395   4.059   9.644 -0.2241  0.8712 -0.0467
  183SLPC   C3921048   1.218   4.151   9.630  0.1357  0.2050 -0.1638
  183SLPC   H9X21049   1.247   4.256   9.650  2.9526  0.0200 -2.5262
  183SLPC   H9Y21050   1.113   4.130   9.658 -0.5214  0.6183 -2.1876
  183SLPC  C31021051   1.234   4.126   9.481  0.5381 -0.1275  0.5404
  183SLPC  H10X21052   1.332   4.112   9.430 -0.1565 -2.7406 -0.1938
  183SLPC  H10Y21053   1.186   4.212   9.429  1.7102  0.4636  0.3873
  183SLPC  C31121054   1.151   4.004   9.431 -0.1740 -0.2210 -0.3513
  183SLPC  H11X21055   1.055   4.005   9.486 -1.1166  0.6411 -1.9418
  183SLPC  H11Y21056   1.204   3.914   9.469  1.3569  0.8156  0.1075
  183SLPC  C31221057   1.123   4.009   9.279  0.3164  0.6467 -0.4715
  183SLPC  H12X21058   1.078   4.109   9.262  1.8479  1.6889  1.2210
  183SLPC  H12Y21059   1.055   3.926   9.250  1.5982 -0.8739  0.6657
  183SLPC  C31321060   1.250   3.984   9.193  0.0515 -0.3353 -0.5227
  183SLPC  H13X21061   1.293   3.882   9.210  0.4913  0.2040  2.0969
  183SLPC  H13Y21062   1.329   4.055   9.225 -0.8614  0.1421  0.7430
  183SLPC  C31421063   1.222   3.972   9.049  0.4382 -0.5368  0.8193
  183SLPC  H14X21064   1.151   4.054   9.025 -0.0330 -1.3208 -0.5929
  183SLPC  H14Y21065   1.173   3.875   9.029  0.7032 -0.4748 -0.1499
  183SLPC  C31521066   1.336   3.967   8.946  0.4137  0.3854 -1.0638
  183SLPC  H15X21067   1.403   4.055   8.965  1.8508 -1.0225  0.7470
  183SLPC  H15Y21068   1.294   3.980   8.844  1.5116 -1.3298 -1.7801
  183SLPC  C31621069   1.422   3.839   8.955  0.1175  0.5129 -0.0709
  183SLPC  H16X21070   1.429   3.808   9.061  1.7038 -0.1160 -0.3302
  183SLPC  H16Y21071   1.526   3.852   8.919 -0.0155 -1.8610 -1.5438
  183SLPC  C31721072   1.361   3.723   8.860  0.1519  0.2581  0.3916
  183SLPC  H17X21073   1.262   3.683   8.891 -0.1716 -1.2190 -2.2175
  183SLPC  H17Y21074   1.420   3.629   8.865 -0.8126 -0.3730  0.1129
  183SLPC  C31821075   1.363   3.764   8.707 -0.3277  0.0844  0.1416
  183SLPC  H18X21076   1.330   3.679   8.643  1.2587 -0.8355  0.4851
  183SLPC  H18Y21077   1.467   3.792   8.681 -0.7339  1.4047 -0.1313
  183SLPC  H18Z21078   1.298   3.853   8.692 -0.8212 -0.5184 -1.5576
  184SLPC     N21079   3.978   0.002  11.274  0.2338  0.5817 -0.8505
  184SLPC   C1321080   3.950   0.071  11.408 -0.2617 -0.1486  0.8693
  184SLPC  H13A21081   3.910  -0.005  11.474 -1.0586 -0.6825 -0.1975
  184SLPC  H13B21082   4.042   0.105  11.452 -1.9322  2.3756  2.7187
  184SLPC  H13C21083   3.875   0.149  11.402 -0.9272 -0.7978  0.6182
  184SLPC   C1421084   3.854  -0.043  11.206 -0.4951 -0.5656  0.2944
  184SLPC  H14A21085   3.794   0.040  11.173  2.0186  0.5231 -1.9170
  184SLPC  H14B21086   3.879  -0.088  11.111  0.9259  3.0147 -1.1984
  184SLPC  H14C21087   3.787  -0.110  11.257  0.1307 -0.8074  0.8137
  184SLPC   C1521088   4.056  -0.125  11.303 -0.6014 -0.0966  0.1568
  184SLPC  H15A21089   4.002  -0.193  11.367 -0.2525  0.0569  0.6198
  184SLPC  H15B21090   4.083  -0.168  11.208  0.4791  3.4545 -1.3257
  184SLPC  H15C21091   4.147  -0.103  11.356  0.1916 -0.0167 -1.1894
  184SLPC   C1221092   4.056   0.093  11.187  0.4851  1.2308  0.2434
  184SLPC  H12A21093   4.106   0.030  11.114  0.7430  0.0404  1.4149
  184SLPC  H12B21094   4.134   0.131  11.250  3.4073 -1.3341 -1.5101
  184SLPC   C1121095   3.980   0.202  11.106 -0.6492 -0.4470  0.5062
  184SLPC  H11A21096   4.054   0.284  11.089 -1.2252  0.7221  3.1231
  184SLPC  H11B21097   3.904   0.250  11.171  0.4939  0.2753  1.3473
  184SLPC     P21098   4.012   0.116  10.860  0.0851  0.3443  0.3322
  184SLPC   O1321099   4.130   0.035  10.900 -0.3264  0.4533 -0.0369
  184SLPC   O1421100   3.932   0.057  10.752  0.2443 -0.5440  0.7686
  184SLPC   O1221101   3.929   0.137  10.992  0.3754 -0.0801  0.8080
  184SLPC   O1121102   4.061   0.259  10.824 -0.3949  0.1365 -0.1724
  184SLPC    C121103   3.978   0.359  10.787 -0.8693 -0.0639 -0.1700
  184SLPC    HA21104   3.887   0.367  10.851  0.6328 -1.2914  2.2820
  184SLPC    HB21105   4.036   0.452  10.804 -0.1991 -0.7247  1.3299
  184SLPC    C221106   3.946   0.365  10.636  0.0848 -0.3197  0.3565
  184SLPC    HS21107   3.895   0.269  10.613 -0.6395 -0.1335  1.1567
  184SLPC   O2121108   4.070   0.382  10.566  0.4397  0.4934 -0.2993
  184SLPC   C2121109   4.072   0.322  10.448  0.2272 -0.2550  1.3390
  184SLPC   O2221110   4.012   0.219  10.418  0.5995  0.1027  0.5274
  184SLPC   C2221111   4.154   0.399  10.351 -0.8352 -0.6025 -0.7497
  184SLPC   H2R21112   4.212   0.476  10.406  1.1610 -2.5215 -0.0124
  184SLPC   H2S21113   4.222   0.324  10.304  1.8981  1.6868 -0.7603
  184SLPC    C321114   3.849   0.478  10.590 -0.4365  0.5184  0.2446
  184SLPC    HX21115   3.888   0.579  10.612 -2.5005  1.5681 -0.6604
  184SLPC    HY21116   3.761   0.462  10.656  0.2750  2.3342  1.6964
  184SLPC   O3121117   3.817   0.466  10.449  0.3249  0.3430 -0.4552
  184SLPC   C3121118   3.686   0.460  10.413 -0.2386  0.3114  1.0134
  184SLPC   O3221119   3.589   0.457  10.483 -0.1839  0.0586  0.0122
  184SLPC   C3221120   3.691   0.449  10.261 -0.2337 -0.3907  0.2934
  184SLPC   H2X21121   3.757   0.362  10.244  0.2183  0.1019 -0.4987
  184SLPC   H2Y21122   3.740   0.545  10.234  1.6747 -1.2542  0.5811
  184SLPC   C2321123   4.068   0.459  10.234 -0.0671 -0.3443  0.7142
  184SLPC   H3R21124   4.014   0.553  10.261 -0.0010 -0.0104 -0.2803
  184SLPC   H3S21125   3.987   0.386  10.216 -2.2155  1.7343  1.4558
  184SLPC   C2421126   4.161   0.481  10.115  0.4652 -0.5329  0.3884
  184SLPC   H4R21127   4.196   0.383  10.075  1.0206 -0.8495  1.5914
  184SLPC   H4S21128   4.243   0.552  10.139 -1.3301  0.9485  2.5024
  184SLPC   C2521129   4.081   0.544   9.995  0.0979 -0.2532  1.0384
  184SLPC   H5R21130   3.997   0.484   9.954  2.4317 -1.7134 -1.9749
  184SLPC   H5S21131   4.152   0.545   9.909 -2.4978  1.4244 -1.2499
  184SLPC   C2621132   4.015   0.684  10.014  0.2341  0.9354  0.1178
  184SLPC   H6R21133   4.078   0.734  10.091  0.9257 -0.9302  0.8107
  184SLPC   H6S21134   3.916   0.664  10.061  0.1805 -0.2870 -0.4894
  184SLPC   C2721135   3.990   0.766   9.882  0.5771 -0.1097  0.1788
  184SLPC   H7R21136   3.946   0.689   9.814  1.3726 -2.1623  1.8622
  184SLPC   H7S21137   4.088   0.800   9.843 -1.2896  1.5065 -3.7047
  184SLPC   C2821138   3.894   0.882   9.900 -0.4643  0.0988  0.0270
  184SLPC   H8R21139   3.919   0.938   9.993  1.5471  1.2603 -1.1512
  184SLPC   H8S21140   3.790   0.843   9.906  0.6969 -3.3112 -0.2361
  184SLPC   C2921141   3.905   0.996   9.802  0.4155 -0.4604 -0.2347
  184SLPC   H9R21142   3.984   1.069   9.824  0.4752 -0.6275  0.0953
  184SLPC  C21021143   3.834   1.025   9.696 -0.1060  0.0750 -0.2780
  184SLPC  H10R21144   3.866   1.111   9.635 -0.3942  0.4788  0.1277
  184SLPC  C21121145   3.717   0.948   9.629  0.0285 -0.3894  0.3176
  184SLPC  H11R21146   3.641   1.017   9.587  0.7607 -0.4771 -1.2430
  184SLPC  H11S21147   3.664   0.887   9.705  0.6993  2.0783  2.9162
  184SLPC  C21221148   3.769   0.855   9.525  0.3254  0.0943  0.2208
  184SLPC  H12R21149   3.809   0.763   9.570 -0.4461 -0.8236 -0.8876
  184SLPC  C21321150   3.779   0.877   9.394  0.2157  0.7061 -0.5376
  184SLPC  H13R21151   3.812   0.790   9.336 -1.7592 -0.2571 -0.3030
  184SLPC  C21421152   3.727   0.992   9.310 -0.1113  1.1523 -0.6335
  184SLPC  H14R21153   3.774   1.086   9.346 -0.1657  0.6691  0.7341
  184SLPC  H14S21154   3.618   1.011   9.312 -0.4712 -0.4963 -2.1390
  184SLPC  C21521155   3.766   0.977   9.169  0.0305  0.5136 -0.3428
  184SLPC  H15R21156   3.857   0.917   9.147 -1.5838 -2.1339 -0.2854
  184SLPC  H15S21157   3.780   1.077   9.124 -2.2090  0.8037 -0.5184
  184SLPC  C21621158   3.657   0.916   9.090 -0.2151 -0.1289  0.0039
  184SLPC  H16R21159   3.559   0.962   9.116  0.7484  2.6138 -0.8414
  184SLPC  H16S21160   3.662   0.808   9.117 -0.2225 -0.4390 -1.1956
  184SLPC  C21721161   3.683   0.912   8.936 -0.2237  0.1837 -0.0571
  184SLPC  H17R21162   3.779   0.865   8.905 -0.6405 -0.8473  0.1977
  184SLPC  H17S21163   3.687   1.018   8.902  0.7991  0.3641  0.5796
  184SLPC  C21821164   3.570   0.833   8.869 -0.0585 -0.2446 -0.1502
  184SLPC  H18R21165   3.486   0.906   8.866 -0.1689 -0.2811  1.1968
  184SLPC  H18S21166   3.538   0.743   8.925 -0.0284  0.5991  1.2746
  184SLPC  H18T21167   3.583   0.810   8.761 -1.3964 -0.1691 -0.3477
  184SLPC   C3321168   3.546   0.441  10.202 -0.0505 -0.3521 -0.4284
  184SLPC   H3X21169   3.498   0.535  10.237 -1.1537 -1.0970  0.1156
  184SLPC   H3Y21170   3.484   0.358  10.241  0.1840 -0.5817 -0.5407
  184SLPC   C3421171   3.530   0.430  10.046 -0.5068  0.0474 -0.6068
  184SLPC   H4X21172   3.421   0.417  10.037 -0.6155  0.2478  0.2991
  184SLPC   H4Y21173   3.575   0.332  10.019 -0.5527  0.0926 -0.8472
  184SLPC   C3521174   3.604   0.547   9.977  0.6200 -0.3576 -0.7499
  184SLPC   H5X21175   3.714   0.528   9.969  0.7121  0.1703 -0.7532
  184SLPC   H5Y21176   3.590   0.647  10.024  0.2878 -0.8301  0.1727
  184SLPC   C3621177   3.575   0.544   9.824 -0.1657  0.1369  0.4000
  184SLPC   H6X21178   3.578   0.440   9.784 -1.1918  0.8228 -1.5584
  184SLPC   H6Y21179   3.666   0.587   9.778 -0.4282  1.0819  0.7505
  184SLPC   C3721180   3.448   0.618   9.772  0.2619  0.2575  0.2345
  184SLPC   H7X21181   3.477   0.724   9.786  1.3176 -0.0945  0.8405
  184SLPC   H7Y21182   3.360   0.598   9.837 -0.5526 -0.0771 -0.9271
  184SLPC   C3821183   3.389   0.579   9.637 -0.3750  0.2826  0.7932
  184SLPC   H8X21184   3.319   0.660   9.606  0.4879  0.7802  0.0860
  184SLPC   H8Y21185   3.334   0.483   9.648  2.2402 -1.1608  2.1416
  184SLPC   C3921186   3.486   0.577   9.521  0.5481 -0.0337 -0.1303
  184SLPC   H9X21187   3.580   0.527   9.554 -0.8144 -1.4157  1.8950
  184SLPC   H9Y21188   3.515   0.683   9.501 -2.9748  1.0297 -0.1542
  184SLPC  C31021189   3.419   0.515   9.392 -0.3528  0.5662 -0.7931
  184SLPC  H10X21190   3.350   0.436   9.430  1.0370  0.5738  2.0348
  184SLPC  H10Y21191   3.496   0.468   9.328 -0.4720  0.8357 -1.1332
  184SLPC  C31121192   3.350   0.634   9.321 -0.1744 -0.5103 -0.1587
  184SLPC  H11X21193   3.420   0.721   9.324 -0.8455  0.0553  3.1143
  184SLPC  H11Y21194   3.265   0.667   9.386 -1.1253 -0.6537 -1.3052
  184SLPC  C31221195   3.302   0.598   9.178 -0.2033 -0.9517  0.5683
  184SLPC  H12X21196   3.248   0.501   9.175  0.6510 -1.6974  4.1181
  184SLPC  H12Y21197   3.383   0.589   9.103 -2.2723 -0.0134 -1.9568
  184SLPC  C31321198   3.207   0.706   9.118  0.2472  0.1916 -0.6206
  184SLPC  H13X21199   3.265   0.797   9.092  2.6994 -1.7619 -2.5234
  184SLPC  H13Y21200   3.124   0.719   9.191  0.2536  1.9210 -0.8708
  184SLPC  C31421201   3.136   0.654   8.997 -0.4253  0.0392  1.1618
  184SLPC  H14X21202   3.027   0.647   9.012 -0.4922  0.0319  0.6806
  184SLPC  H14Y21203   3.170   0.551   8.974 -1.0771  0.3684 -1.6318
  184SLPC  C31521204   3.160   0.736   8.866  0.1414 -0.9724 -0.0661
  184SLPC  H15X21205   3.270   0.747   8.857  0.1197 -1.9700 -2.1579
  184SLPC  H15Y21206   3.110   0.834   8.882  0.7234 -0.8295  0.9943
  184SLPC  C31621207   3.086   0.678   8.739  0.0123  0.1766 -0.0588
  184SLPC  H16X21208   2.978   0.703   8.746  0.1779  0.4518  4.1320
  184SLPC  H16Y21209   3.101   0.569   8.750  0.9999  0.3621  0.5513
  184SLPC  C31721210   3.150   0.722   8.611 -0.3221  0.4071 -0.5422
  184SLPC  H17X21211   3.259   0.700   8.621 -0.0142  1.7259 -0.7769
  184SLPC  H17Y21212   3.134   0.832   8.603 -0.2570  0.5178  0.7547
  184SLPC  C31821213   3.089   0.656   8.494  0.5190 -0.0453  1.0400
  184SLPC  H18X21214   3.096   0.545   8.502  3.3080 -0.1668 -1.4299
  184SLPC  H18Y21215   3.122   0.680   8.391 -2.7504 -2.3332 -0.7118
  184SLPC  H18Z21216   2.985   0.695   8.495  1.4658  2.7633  2.6724
  185SLPC     N21217   2.057   3.200   6.241  0.7587 -0.1277  0.4694
  185SLPC   C1321218   1.973   3.321   6.213  0.6438  0.0502  0.1892
  185SLPC  H13A21219   2.031   3.396   6.162 -1.3088  0.2234 -1.9415
  185SLPC  H13B21220   1.882   3.297   6.160  0.2366 -1.5598  1.5182
  185SLPC  H13C21221   1.933   3.372   6.299 -0.7734  2.8646 -1.9591
  185SLPC   C1421222   2.083   3.136   6.110  0.1010  0.1474  0.3123
  185SLPC  H14A21223   2.154   3.055   6.104  0.0438  0.1845 -1.2973
  185SLPC  H14B21224   1.990   3.097   6.071 -1.4558  0.4844  3.2954
  185SLPC  H14C21225   2.110   3.214   6.040 -2.3758  0.9847  0.1826
  185SLPC   C1521226   1.970   3.104   6.323 -0.1463  0.0810  0.6002
  185SLPC  H15A21227   1.922   3.156   6.405  0.1156  0.8242  0.2881
  185SLPC  H15B21228   1.893   3.053   6.267 -0.4301 -0.5628  1.5437
  185SLPC  H15C21229   2.035   3.028   6.364 -1.9492 -1.7489  0.2004
  185SLPC   C1221230   2.182   3.256   6.311 -0.2099  0.0910 -0.0567
  185SLPC  H12A21231   2.140   3.303   6.399  0.5096  1.0296 -0.1990
  185SLPC  H12B21232   2.233   3.329   6.250  0.1510 -0.4210 -0.3754
  185SLPC   C1121233   2.284   3.146   6.345 -0.4823 -0.0003 -0.3407
  185SLPC  H11A21234   2.365   3.195   6.403 -1.3094  1.1767 -0.1334
  185SLPC  H11B21235   2.329   3.103   6.253  2.7504  1.6804  0.3042
  185SLPC     P21236   2.215   3.064   6.582 -0.1139 -0.0232 -0.1008
  185SLPC   O1321237   2.106   2.976   6.626  0.8608  0.4921  0.1220
  185SLPC   O1421238   2.340   3.042   6.656  0.2773  0.0253 -0.0136
  185SLPC   O1221239   2.233   3.039   6.425  0.1199  0.1089  0.6642
  185SLPC   O1121240   2.181   3.212   6.582 -0.0794 -0.1649 -0.1156
  185SLPC    C121241   2.127   3.282   6.698 -0.2124  0.8964 -0.1079
  185SLPC    HA21242   2.047   3.357   6.682 -1.6940  0.0256  2.4538
  185SLPC    HB21243   2.076   3.207   6.763 -0.2492  1.9219  1.0935
  185SLPC    C221244   2.233   3.346   6.793  0.5951  0.0745 -0.0411
  185SLPC    HS21245   2.313   3.273   6.821  0.0442 -0.9857 -1.1296
  185SLPC   O2121246   2.161   3.392   6.913 -0.4876  0.3400  0.3690
  185SLPC   C2121247   2.158   3.303   7.009 -0.7872  0.3530  0.4575
  185SLPC   O2221248   2.216   3.193   7.000 -0.0097  0.1314  0.4671
  185SLPC   C2221249   2.098   3.364   7.132 -0.2967  0.0734 -0.8892
  185SLPC   H2R21250   1.987   3.357   7.128 -0.3435 -1.5405  1.3160
  185SLPC   H2S21251   2.132   3.311   7.224  3.1542  1.5579 -1.1953
  185SLPC    C321252   2.300   3.471   6.735  0.6079 -0.2598 -0.3327
  185SLPC    HX21253   2.223   3.549   6.723  0.3658 -0.2712  1.0201
  185SLPC    HY21254   2.344   3.451   6.634 -0.7059  0.3787 -1.0485
  185SLPC   O3121255   2.409   3.516   6.823  0.4223 -0.2050 -0.1218
  185SLPC   C3121256   2.402   3.641   6.872  0.6965 -0.2223  0.7166
  185SLPC   O3221257   2.301   3.713   6.868  0.2625  0.1793 -1.0770
  185SLPC   C3221258   2.538   3.679   6.921  0.7268 -0.2086  0.1659
  185SLPC   H2X21259   2.594   3.733   6.842 -1.0504  1.4961  0.0147
  185SLPC   H2Y21260   2.596   3.587   6.946 -0.0530  0.0202  3.1306
  185SLPC   C2321261   2.132   3.519   7.156 -0.7741 -0.0335 -0.0074
  185SLPC   H3R21262   2.107   3.568   7.060 -2.7109 -1.6193 -0.3917
  185SLPC   H3S21263   2.240   3.523   7.180 -0.6979 -2.0922  0.1649
  185SLPC   C2421264   2.054   3.576   7.277 -0.1634 -0.1023 -0.7424
  185SLPC   H4R21265   1.945   3.579   7.258 -0.3793  3.2507  0.2643
  185SLPC   H4S21266   2.088   3.680   7.297  1.8451 -1.1899  2.1878
  185SLPC   C2521267   2.092   3.514   7.416  0.5952  0.6559 -0.1094
  185SLPC   H5R21268   2.201   3.507   7.437  0.0994  0.1295  2.8102
  185SLPC   H5S21269   2.053   3.411   7.433 -1.9158  1.4545 -0.4928
  185SLPC   C2621270   2.026   3.600   7.525 -0.4604 -0.5365  0.6447
  185SLPC   H6R21271   1.918   3.611   7.503  0.3157  2.5529 -2.6352
  185SLPC   H6S21272   2.059   3.704   7.507 -1.0466 -0.6652 -1.4301
  185SLPC   C2721273   2.059   3.563   7.676  0.7525  0.0925 -0.1550
  185SLPC   H7R21274   2.168   3.575   7.690  0.6820  0.4959  0.0836
  185SLPC   H7S21275   2.032   3.462   7.713  1.5590  0.3303  1.1566
  185SLPC   C2821276   1.997   3.662   7.785 -0.1699  0.1449  0.9436
  185SLPC   H8R21277   2.019   3.769   7.760  0.6184 -0.0685  0.6817
  185SLPC   H8S21278   2.055   3.640   7.877  1.4058 -0.8094 -0.2152
  185SLPC   C2921279   1.851   3.637   7.792  0.3576  0.1166  0.2604
  185SLPC   H9R21280   1.793   3.672   7.705 -2.3758 -3.0851  0.5935
  185SLPC  C21021281   1.791   3.563   7.887  0.0478  0.1379 -0.1410
  185SLPC  H10R21282   1.683   3.547   7.877  0.0872  0.1095 -0.5282
  185SLPC  C21121283   1.857   3.496   8.003 -0.4267 -0.7366  0.2927
  185SLPC  H11R21284   1.967   3.487   8.000 -0.3058 -0.0124  1.8140
  185SLPC  H11S21285   1.816   3.393   8.006 -0.8023 -0.6164 -0.4452
  185SLPC  C21221286   1.815   3.566   8.128  0.5726 -0.0949 -0.3324
  185SLPC  H12R21287   1.790   3.673   8.118  2.5551  0.7179  2.3210
  185SLPC  C21321288   1.795   3.501   8.249  0.7795  0.0359  0.1125
  185SLPC  H13R21289   1.758   3.559   8.335 -0.0717 -1.3619  0.7205
  185SLPC  C21421290   1.808   3.361   8.278  0.3207 -0.4871 -0.2989
  185SLPC  H14R21291   1.915   3.334   8.296  0.4879  1.9172  3.1408
  185SLPC  H14S21292   1.755   3.311   8.194  0.5857  0.0592 -0.7938
  185SLPC  C21521293   1.743   3.325   8.414  0.6205  0.3083 -0.1016
  185SLPC  H15R21294   1.738   3.214   8.424 -1.3626  0.3011 -0.7553
  185SLPC  H15S21295   1.637   3.358   8.423  0.0310 -1.3119 -0.5347
  185SLPC  C21621296   1.820   3.384   8.533  0.3162  0.5959  0.4122
  185SLPC  H16R21297   1.820   3.494   8.515  0.1529  0.3107 -1.5336
  185SLPC  H16S21298   1.921   3.337   8.534  0.6820  1.2895 -0.9242
  185SLPC  C21721299   1.745   3.345   8.661  0.1724 -0.6118 -0.1860
  185SLPC  H17R21300   1.821   3.318   8.738  0.5880  4.1701  1.4433
  185SLPC  H17S21301   1.676   3.260   8.644 -0.0686 -0.4539 -0.0173
  185SLPC  C21821302   1.655   3.464   8.713  0.2770 -0.0576  0.0390
  185SLPC  H18R21303   1.573   3.484   8.641 -0.9558 -2.8588  0.5460
  185SLPC  H18S21304   1.718   3.553   8.736  0.0011  0.8909 -2.5468
  185SLPC  H18T21305   1.593   3.437   8.801  0.0160  1.1495  0.2470
  185SLPC   C3321306   2.527   3.764   7.051 -0.3018  0.2176  0.3170
  185SLPC   H3X21307   2.445   3.839   7.042  1.4038  2.0408 -0.8974
  185SLPC   H3Y21308   2.627   3.813   7.053 -0.7354  1.1223  2.0102
  185SLPC   C3421309   2.510   3.692   7.188  1.3439  0.4492 -0.6041
  185SLPC   H4X21310   2.602   3.630   7.196  0.7628 -0.3641 -0.0654
  185SLPC   H4Y21311   2.413   3.641   7.167 -0.0809  2.0468  1.6114
  185SLPC   C3521312   2.481   3.788   7.305  0.0705 -0.5210 -0.0073
  185SLPC   H5X21313   2.382   3.838   7.297  0.6847  0.7237 -0.1537
  185SLPC   H5Y21314   2.562   3.864   7.294 -0.7315  0.2438 -0.7933
  185SLPC   C3621315   2.504   3.725   7.440 -0.0437 -0.5794 -0.4346
  185SLPC   H6X21316   2.614   3.720   7.458 -0.1179  0.5988  0.4559
  185SLPC   H6Y21317   2.450   3.629   7.448  1.9492 -1.6008  3.6788
  185SLPC   C3721318   2.443   3.819   7.549  0.0318 -0.0580  0.6881
  185SLPC   H7X21319   2.343   3.849   7.514  0.9666  0.4176 -1.7446
  185SLPC   H7Y21320   2.506   3.909   7.567  0.8477 -0.7741  1.5851
  185SLPC   C3821321   2.435   3.751   7.685 -0.4247  0.1225 -0.3304
  185SLPC   H8X21322   2.533   3.714   7.722 -0.0918 -1.3843 -2.4983
  185SLPC   H8Y21323   2.367   3.663   7.685  2.2631 -2.1587  2.4261
  185SLPC   C3921324   2.379   3.848   7.788  0.1126 -0.1244 -0.4365
  185SLPC   H9X21325   2.281   3.892   7.760  1.2614  2.1920 -1.0653
  185SLPC   H9Y21326   2.448   3.934   7.792  0.1900 -0.1720 -0.7976
  185SLPC  C31021327   2.371   3.795   7.931 -0.5067  0.3166 -0.0025
  185SLPC  H10X21328   2.313   3.701   7.939  0.2878 -0.1664  0.2834
  185SLPC  H10Y21329   2.308   3.862   7.993 -2.9814 -1.4327 -0.4984
  185SLPC  C31121330   2.509   3.774   7.995  0.5070 -0.1447 -0.5922
  185SLPC  H11X21331   2.584   3.847   7.958  0.7819  0.4543  1.0578
  185SLPC  H11Y21332   2.541   3.672   7.965  2.4370 -0.3261  1.7599
  185SLPC  C31221333   2.510   3.772   8.153  0.1356 -0.2461  0.7351
  185SLPC  H12X21334   2.451   3.687   8.192  3.1311 -1.8203  2.1983
  185SLPC  H12Y21335   2.481   3.874   8.186  0.1327  1.1408 -3.0693
  185SLPC  C31321336   2.654   3.750   8.203  0.2190 -0.1486  0.0376
  185SLPC  H13X21337   2.711   3.838   8.167 -1.2860  1.3232  1.0894
  185SLPC  H13Y21338   2.702   3.659   8.160  1.5242  0.3374  0.4214
  185SLPC  C31421339   2.676   3.751   8.363  0.2722 -0.0714 -0.0384
  185SLPC  H14X21340   2.605   3.678   8.409  0.9843 -1.9508 -1.7642
  185SLPC  H14Y21341   2.644   3.850   8.402  1.8013  0.9413 -1.2481
  185SLPC  C31521342   2.816   3.695   8.407  0.1012 -0.2048 -0.4504
  185SLPC  H15X21343   2.843   3.720   8.512 -2.1511  1.6193 -0.2324
  185SLPC  H15Y21344   2.897   3.741   8.346  2.0658 -2.6312  0.1556
  185SLPC  C31621345   2.822   3.548   8.400 -0.7950  0.3551  0.3419
  185SLPC  H16X21346   2.925   3.513   8.423 -1.2971  0.2369  2.7248
  185SLPC  H16Y21347   2.778   3.524   8.302 -0.1734 -1.3316  0.4508
  185SLPC  C31721348   2.739   3.467   8.509  0.5828  0.2881 -0.6075
  185SLPC  H17X21349   2.628   3.480   8.510  0.4094 -0.9051  1.7801
  185SLPC  H17Y21350   2.775   3.464   8.614  0.6163 -3.3736 -0.5978
  185SLPC  C31821351   2.762   3.318   8.467  0.2990  0.0777  0.2990
  185SLPC  H18X21352   2.871   3.300   8.464  0.6687  2.1962 -0.9140
  185SLPC  H18Y21353   2.705   3.292   8.375  0.2155 -1.1992  0.6943
  185SLPC  H18Z21354   2.719   3.256   8.548 -1.2738  0.2589 -0.3580
  186SLPC     N21355   3.011   6.716   6.118 -0.4002  0.4792  0.0321
  186SLPC   C1321356   2.969   6.715   6.266  0.2466 -0.0549 -0.6924
  186SLPC  H13A21357   2.960   6.816   6.303 -0.6147  0.6473 -2.6376
  186SLPC  H13B21358   2.874   6.667   6.282 -0.5148  1.8783  0.9925
  186SLPC  H13C21359   3.035   6.663   6.333 -0.6871 -0.8747 -0.4026
  186SLPC   C1421360   3.012   6.572   6.063  0.1113  0.3042  0.2964
  186SLPC  H14A21361   3.085   6.510   6.113 -1.1110  0.4906  2.4467
  186SLPC  H14B21362   2.915   6.532   6.087 -0.1968 -0.5889 -2.2243
  186SLPC  H14C21363   3.029   6.564   5.957  0.7940 -3.2930  0.5746
  186SLPC   C1521364   3.148   6.780   6.126  0.2366  0.1293  0.6393
  186SLPC  H15A21365   3.189   6.825   6.037  1.1534  1.6499  1.7687
  186SLPC  H15B21366   3.145   6.856   6.203  1.9332 -0.6876  1.5706
  186SLPC  H15C21367   3.218   6.707   6.164  1.0831  0.4300 -0.3036
  186SLPC   C1221368   2.916   6.800   6.040 -0.1999  0.7610 -0.6350
  186SLPC  H12A21369   2.826   6.743   6.027 -0.4418  1.4883 -2.4055
  186SLPC  H12B21370   2.957   6.814   5.941  0.2575  2.5466 -0.2245
  186SLPC   C1121371   2.875   6.939   6.095  0.9932 -0.3734  0.1403
  186SLPC  H11A21372   2.813   6.986   6.015 -1.5066 -2.8190  0.4925
  186SLPC  H11B21373   2.969   6.997   6.107  0.4236  0.4623  0.6498
  186SLPC     P21374   2.794   7.073   6.303 -0.1674  0.3541 -0.2694
  186SLPC   O1321375   2.908   7.164   6.280  0.3585  0.8972 -0.2989
  186SLPC   O1421376   2.664   7.141   6.283  0.4992 -0.4201 -0.1120
  186SLPC   O1221377   2.801   6.942   6.219  0.0645  0.0530  0.1420
  186SLPC   O1121378   2.803   7.001   6.443 -0.2044  0.1392 -0.9607
  186SLPC    C121379   2.705   6.922   6.501 -0.2204  0.4486  0.7462
  186SLPC    HA21380   2.620   6.897   6.433  0.5745 -1.9364  0.5292
  186SLPC    HB21381   2.746   6.822   6.525  0.0747  1.0954  3.2156
  186SLPC    C221382   2.644   6.977   6.629  0.3584 -0.5845 -0.6219
  186SLPC    HS21383   2.590   7.072   6.609 -0.1813 -0.8412 -0.4254
  186SLPC   O2121384   2.748   7.003   6.727  0.3138 -0.4838  0.6533
  186SLPC   C2121385   2.733   7.096   6.811  0.6747  0.4694  0.9593
  186SLPC   O2221386   2.640   7.180   6.815 -0.2756  0.6045 -0.0347
  186SLPC   C2221387   2.850   7.089   6.901  0.0202  0.2455 -0.8114
  186SLPC   H2R21388   2.946   7.060   6.852  1.7916  0.1175  2.4439
  186SLPC   H2S21389   2.859   7.187   6.952  0.2057 -0.5019  0.6433
  186SLPC    C321390   2.546   6.867   6.685  0.3620  0.2646 -0.4483
  186SLPC    HX21391   2.600   6.787   6.739 -4.2064 -1.8144  1.6162
  186SLPC    HY21392   2.484   6.820   6.607  0.9460  1.1769 -1.4855
  186SLPC   O3121393   2.459   6.918   6.788 -0.6723  0.3022 -0.1464
  186SLPC   C3121394   2.356   6.986   6.733 -0.3756  0.2457  0.3018
  186SLPC   O3221395   2.330   6.986   6.616  0.3565  0.5795  0.3286
  186SLPC   C3221396   2.268   7.050   6.838  0.1564  0.5172 -0.3663
  186SLPC   H2X21397   2.236   7.151   6.803  0.1085  0.2795 -1.0208
  186SLPC   H2Y21398   2.329   7.064   6.930 -1.9638  1.2797  1.0027
  186SLPC   C2321399   2.838   6.988   7.019  0.9869 -0.1875 -0.3525
  186SLPC   H3R21400   2.926   6.995   7.086  1.6124  1.9162 -1.3288
  186SLPC   H3S21401   2.837   6.882   6.983  0.8884  0.4812 -2.4935
  186SLPC   C2421402   2.704   6.996   7.101  0.7077  0.6673  0.3896
  186SLPC   H4R21403   2.613   7.030   7.047  1.1653  2.0815  0.4524
  186SLPC   H4S21404   2.725   7.076   7.176 -1.6537  0.2968  1.5382
  186SLPC   C2521405   2.686   6.869   7.186 -0.2671  0.3406 -0.2026
  186SLPC   H5R21406   2.763   6.792   7.163  1.5852  1.8210  0.7807
  186SLPC   H5S21407   2.589   6.818   7.168  0.3607 -2.1429  2.7808
  186SLPC   C2621408   2.676   6.887   7.340 -0.0411  0.7331 -0.5826
  186SLPC   H6R21409   2.780   6.907   7.376 -0.5794 -0.0963  1.6076
  186SLPC   H6S21410   2.651   6.785   7.375  0.0307  0.3959 -1.4889
  186SLPC   C2721411   2.569   6.981   7.390  0.7177 -0.8569 -0.1712
  186SLPC   H7R21412   2.468   6.941   7.367  0.9366 -0.9767 -0.9319
  186SLPC   H7S21413   2.578   7.086   7.353 -1.7329  1.1810  4.1302
  186SLPC   C2821414   2.582   6.996   7.539 -0.7708  0.2349  0.7534
  186SLPC   H8R21415   2.508   7.072   7.570 -0.6485 -0.0645  1.8160
  186SLPC   H8S21416   2.680   7.045   7.561 -0.5184  0.3438 -0.5368
  186SLPC   C2921417   2.566   6.874   7.616 -0.1010  0.2994  0.0818
  186SLPC   H9R21418   2.516   6.794   7.558  2.9084 -0.6650 -1.3740
  186SLPC  C21021419   2.581   6.863   7.748  0.1410 -0.2541  0.7543
  186SLPC  H10R21420   2.536   6.774   7.792  0.7066 -0.2855  1.2840
  186SLPC  C21121421   2.624   6.970   7.851 -0.5418  1.2085  0.4598
  186SLPC  H11R21422   2.535   6.987   7.916 -1.6461 -3.3874  0.5105
  186SLPC  H11S21423   2.651   7.063   7.797 -0.4459  1.2377  0.5562
  186SLPC  C21221424   2.744   6.928   7.939  0.0347 -0.9995  0.6077
  186SLPC  H12R21425   2.842   6.908   7.893  0.0614 -0.1323  0.2606
  186SLPC  C21321426   2.747   6.896   8.070  0.0456  0.6412 -0.3046
  186SLPC  H13R21427   2.842   6.877   8.122  0.4894  0.5259 -1.1499
  186SLPC  C21421428   2.638   6.889   8.172  0.1626 -0.5702 -0.4875
  186SLPC  H14R21429   2.654   6.796   8.231  0.9695  1.0408  1.9810
  186SLPC  H14S21430   2.537   6.883   8.127 -0.3822 -2.0217  0.8118
  186SLPC  C21521431   2.640   7.005   8.265  0.2953  0.4817  0.0880
  186SLPC  H15R21432   2.641   7.099   8.207 -1.0656  0.0448 -0.6920
  186SLPC  H15S21433   2.725   7.006   8.337 -1.4470 -1.6819  2.3461
  186SLPC  C21621434   2.517   7.009   8.365  0.1567  0.5960 -0.2165
  186SLPC  H16R21435   2.429   6.971   8.310 -0.3293  1.0334  0.2527
  186SLPC  H16S21436   2.495   7.107   8.412 -2.0673 -0.0264  0.1253
  186SLPC  C21721437   2.533   6.904   8.486  0.1374  0.0146  0.0984
  186SLPC  H17R21438   2.626   6.920   8.545 -0.6423 -1.8299  1.9490
  186SLPC  H17S21439   2.540   6.804   8.439  0.2597 -0.2843  0.7487
  186SLPC  C21821440   2.418   6.914   8.579  0.2411 -0.6882  0.6677
  186SLPC  H18R21441   2.323   6.912   8.523  1.1872 -1.6738 -0.9729
  186SLPC  H18S21442   2.420   7.000   8.650 -1.7023 -1.7210  2.0692
  186SLPC  H18T21443   2.413   6.822   8.641  2.3793 -1.5402 -0.3376
  186SLPC   C3321444   2.151   6.956   6.858  0.2060 -0.3640  0.2947
  186SLPC   H3X21445   2.193   6.854   6.868 -0.0300 -0.7742 -2.1821
  186SLPC   H3Y21446   2.070   6.957   6.781  0.2608 -0.2174  0.2383
  186SLPC   C3421447   2.070   6.994   6.989 -0.1146 -0.4512  0.0909
  186SLPC   H4X21448   1.994   6.915   7.007  0.2382 -0.7737  0.1843
  186SLPC   H4Y21449   2.024   7.093   6.972  0.2077 -0.7433 -3.0795
  186SLPC   C3521450   2.153   7.007   7.113  0.5951  0.2112 -0.5313
  186SLPC   H5X21451   2.218   7.097   7.117  2.5205 -1.0817 -1.3889
  186SLPC   H5Y21452   2.217   6.917   7.101 -1.2596 -1.5241  1.5238
  186SLPC   C3621453   2.061   7.010   7.238  0.1941  0.2501 -0.0728
  186SLPC   H6X21454   1.995   6.920   7.239 -0.1534  0.4994 -0.1835
  186SLPC   H6Y21455   1.994   7.099   7.235 -0.3048 -0.0862  0.7932
  186SLPC   C3721456   2.148   7.017   7.362  0.3877 -0.2817  0.5550
  186SLPC   H7X21457   2.208   7.111   7.364  1.0470 -0.5800 -1.7836
  186SLPC   H7Y21458   2.228   6.941   7.348 -0.0253 -0.8310  1.1222
  186SLPC   C3821459   2.070   7.003   7.489  0.0559 -0.4615  0.1470
  186SLPC   H8X21460   1.996   6.920   7.484  0.4656 -0.8301  0.1045
  186SLPC   H8Y21461   2.002   7.090   7.502 -0.4884 -0.7660 -0.5336
  186SLPC   C3921462   2.160   6.995   7.609  0.1674  0.1932  1.3591
  186SLPC   H9X21463   2.239   7.072   7.597 -0.1117  0.1278 -1.4201
  186SLPC   H9Y21464   2.211   6.897   7.596 -1.3090 -0.2918 -1.3977
  186SLPC  C31021465   2.091   7.000   7.741  0.0718  0.3129 -0.0964
  186SLPC  H10X21466   2.040   6.904   7.761 -1.0284  0.8758 -0.0827
  186SLPC  H10Y21467   2.012   7.078   7.739  0.3258  0.7723  2.9832
  186SLPC  C31121468   2.181   7.049   7.856 -0.4327 -0.4921 -0.5147
  186SLPC  H11X21469   2.207   7.153   7.827 -0.3500 -1.0412 -2.5852
  186SLPC  H11Y21470   2.275   6.990   7.852  0.7871  1.2062  1.2967
  186SLPC  C31221471   2.117   7.049   7.996 -0.2446 -0.1103 -0.3149
  186SLPC  H12X21472   2.014   7.091   7.994 -0.2910  0.2381  3.3281
  186SLPC  H12Y21473   2.175   7.122   8.057 -1.7293 -1.3411  2.7308
  186SLPC  C31321474   2.130   6.903   8.056 -0.5573  0.6505 -0.3670
  186SLPC  H13X21475   2.236   6.875   8.075 -0.5045  0.8682 -0.3260
  186SLPC  H13Y21476   2.086   6.830   7.985 -0.3784 -2.6685  2.6846
  186SLPC  C31421477   2.033   6.893   8.185  0.0569  0.4726  0.0383
  186SLPC  H14X21478   2.034   6.789   8.222 -2.0049  0.0756 -0.8754
  186SLPC  H14Y21479   1.930   6.911   8.146 -0.3130  1.3746  1.3440
  186SLPC  C31521480   2.072   6.987   8.299  0.6161 -0.3912 -0.5397
  186SLPC  H15X21481   2.115   7.082   8.261 -1.4993  1.7016  1.9455
  186SLPC  H15Y21482   2.155   6.936   8.353  2.3155  2.0389 -0.7193
  186SLPC  C31621483   1.957   7.037   8.389  0.0341 -0.0105  0.0235
  186SLPC  H16X21484   1.872   6.967   8.374 -0.8050  1.3298 -1.7186
  186SLPC  H16Y21485   1.925   7.138   8.357  1.3387  0.3717 -0.1418
  186SLPC  C31721486   2.007   7.039   8.532 -0.0172  0.0733  0.2410
  186SLPC  H17X21487   2.091   7.112   8.531 -0.6007  0.7561  0.3347
  186SLPC  H17Y21488   2.032   6.936   8.568  0.8141 -0.5111 -1.8631
  186SLPC  C31821489   1.888   7.096   8.609 -0.7918 -0.2736 -0.2972
  186SLPC  H18X21490   1.893   7.093   8.720 -1.6266  0.7510 -0.2156
  186SLPC  H18Y21491   1.799   7.040   8.575 -2.3117  2.6370 -1.4477
  186SLPC  H18Z21492   1.871   7.201   8.577 -0.3347  1.0357  3.2154
  187SLPC     N21493   5.224   3.733   6.400 -0.5598 -0.5173  0.1487
  187SLPC   C1321494   5.187   3.774   6.260  0.5966  0.4240 -1.3760
  187SLPC  H13A21495   5.168   3.880   6.250  0.7587  0.5454 -0.5230
  187SLPC  H13B21496   5.258   3.740   6.187 -0.1470 -2.8678 -0.7480
  187SLPC  H13C21497   5.090   3.736   6.231  0.6504  1.0354 -2.4118
  187SLPC   C1421498   5.112   3.773   6.488  0.2190 -0.3507  1.1175
  187SLPC  H14A21499   5.103   3.879   6.470  1.9375 -0.3766 -0.0588
  187SLPC  H14B21500   5.015   3.730   6.468  1.3430 -2.1624 -0.8009
  187SLPC  H14C21501   5.148   3.763   6.590  0.4089  0.3043  1.1224
  187SLPC   C1521502   5.354   3.800   6.455  0.0630 -0.3778 -0.0435
  187SLPC  H15A21503   5.356   3.908   6.456  0.6671 -0.3852  0.7247
  187SLPC  H15B21504   5.375   3.757   6.552 -0.7061 -2.7349 -0.8546
  187SLPC  H15C21505   5.435   3.757   6.398  0.3501 -1.3513  1.0855
  187SLPC   C1221506   5.244   3.581   6.402  0.0976  0.5478  0.0343
  187SLPC  H12A21507   5.316   3.550   6.329 -0.3129  0.2254 -0.2424
  187SLPC  H12B21508   5.148   3.540   6.373  0.5499 -0.7063  0.2783
  187SLPC   C1121509   5.288   3.507   6.529  1.0238 -0.1774 -0.0576
  187SLPC  H11A21510   5.264   3.399   6.522  0.3522 -0.0260 -0.1637
  187SLPC  H11B21511   5.218   3.536   6.611  1.2271  0.3290 -0.0560
  187SLPC     P21512   5.532   3.458   6.480  0.5350  0.0232  0.0559
  187SLPC   O1321513   5.478   3.364   6.380 -0.2978  0.1498  0.7949
  187SLPC   O1421514   5.630   3.557   6.428  0.0522 -0.6110 -0.2734
  187SLPC   O1221515   5.422   3.535   6.561 -0.2553  0.0062  0.3751
  187SLPC   O1121516   5.597   3.376   6.598 -0.3144 -0.5524 -0.5021
  187SLPC    C121517   5.545   3.268   6.666  0.0273 -0.5640 -0.3009
  187SLPC    HA21518   5.452   3.233   6.617  0.3581  0.1915 -1.5252
  187SLPC    HB21519   5.630   3.196   6.659  1.4855  1.1670 -1.4017
  187SLPC    C221520   5.509   3.317   6.811 -0.8983 -1.0531  0.5756
  187SLPC    HS21521   5.503   3.428   6.810  2.2012 -0.7586  2.4471
  187SLPC   O2121522   5.613   3.271   6.897 -0.1354 -0.1928  0.0710
  187SLPC   C2121523   5.709   3.351   6.935  0.1516 -0.1068 -0.8862
  187SLPC   O2221524   5.721   3.469   6.916  0.1732  0.1463 -0.8224
  187SLPC   C2221525   5.817   3.275   7.013 -0.2344  0.2631 -0.2571
  187SLPC   H2R21526   5.866   3.204   6.943 -0.1111  0.4700 -0.3815
  187SLPC   H2S21527   5.893   3.350   7.044  0.0146 -0.3596  0.6760
  187SLPC    C321528   5.371   3.276   6.857 -1.0962  0.2715 -0.1249
  187SLPC    HX21529   5.355   3.172   6.823  0.2510  0.8653 -2.8864
  187SLPC    HY21530   5.295   3.328   6.795 -1.9447 -1.5579 -0.6992
  187SLPC   O3121531   5.349   3.287   7.005  0.4113  0.8746 -0.7673
  187SLPC   C3121532   5.343   3.409   7.063  0.5596  0.0902  0.0393
  187SLPC   O3221533   5.364   3.510   7.005 -0.0152 -0.4212 -0.2033
  187SLPC   C3221534   5.318   3.388   7.205  0.6079  0.1418  0.5072
  187SLPC   H2X21535   5.363   3.296   7.246  0.2318  0.7824  2.4764
  187SLPC   H2Y21536   5.208   3.390   7.219  0.4914 -3.6069  0.9618
  187SLPC   C2321537   5.770   3.186   7.125 -0.4237 -0.1957 -0.2230
  187SLPC   H3R21538   5.856   3.125   7.160 -1.4647 -1.4763  0.1811
  187SLPC   H3S21539   5.691   3.116   7.090  0.2905 -0.4456 -1.3499
  187SLPC   C2421540   5.721   3.279   7.250  0.3018  0.3144 -0.6032
  187SLPC   H4R21541   5.639   3.343   7.213  0.4736  0.7639 -0.2221
  187SLPC   H4S21542   5.803   3.343   7.290 -1.3084  0.5399  2.6263
  187SLPC   C2521543   5.678   3.195   7.379  0.0313 -0.2072 -0.0102
  187SLPC   H5R21544   5.748   3.110   7.394 -1.7336 -2.1114 -1.8572
  187SLPC   H5S21545   5.580   3.144   7.363 -0.3803  0.6059 -0.1348
  187SLPC   C2621546   5.702   3.281   7.509  0.9745  0.5683  0.8366
  187SLPC   H6R21547   5.638   3.371   7.505  2.3015  1.5209 -0.1814
  187SLPC   H6S21548   5.808   3.313   7.504  0.9651  0.6682  1.2702
  187SLPC   C2721549   5.682   3.204   7.637  0.1245  0.3709  0.7091
  187SLPC   H7R21550   5.733   3.108   7.618  0.6502  0.7163  0.3496
  187SLPC   H7S21551   5.574   3.180   7.648  0.4242 -1.0900  0.5508
  187SLPC   C2821552   5.729   3.267   7.767 -1.1606 -1.1722 -0.9316
  187SLPC   H8R21553   5.833   3.291   7.736 -0.2980 -0.2670  2.2687
  187SLPC   H8S21554   5.734   3.195   7.852  1.0500 -0.3785 -0.3398
  187SLPC   C2921555   5.638   3.385   7.800 -0.2777  0.6842  0.4950
  187SLPC   H9R21556   5.636   3.458   7.718 -0.6521 -0.2704 -0.3649
  187SLPC  C21021557   5.594   3.420   7.922 -0.0112  0.1290 -1.1631
  187SLPC  H10R21558   5.515   3.496   7.925  0.4796  0.6112  0.4524
  187SLPC  C21121559   5.616   3.330   8.043 -0.3303  0.3708 -0.5586
  187SLPC  H11R21560   5.706   3.265   8.028 -1.7728 -2.1507  0.9759
  187SLPC  H11S21561   5.529   3.262   8.054  0.1497 -0.2534 -0.5387
  187SLPC  C21221562   5.613   3.414   8.169  0.2294  0.6997 -0.6914
  187SLPC  H12R21563   5.545   3.499   8.159 -1.2609 -0.4531 -0.6069
  187SLPC  C21321564   5.676   3.379   8.289 -0.5619 -0.6611  0.7158
  187SLPC  H13R21565   5.663   3.444   8.377 -2.8059 -0.3407  0.2318
  187SLPC  C21421566   5.748   3.248   8.308  0.2895 -0.0577 -0.2488
  187SLPC  H14R21567   5.830   3.255   8.233  0.6302  1.9193  0.2393
  187SLPC  H14S21568   5.682   3.160   8.296  0.3774  0.0017 -1.3016
  187SLPC  C21521569   5.807   3.238   8.447  0.5438  0.0073  0.1648
  187SLPC  H15R21570   5.873   3.149   8.440 -0.7239 -0.8853 -1.2147
  187SLPC  H15S21571   5.715   3.228   8.508 -3.3670  1.6206 -4.8030
  187SLPC  C21621572   5.902   3.352   8.483  0.7445  0.4176 -0.6562
  187SLPC  H16R21573   5.850   3.450   8.491 -0.6709 -0.4162  1.8400
  187SLPC  H16S21574   5.964   3.361   8.392 -1.6419 -0.1399 -2.4489
  187SLPC  C21721575   5.992   3.330   8.605 -0.6123 -0.0772  0.0221
  187SLPC  H17R21576   6.060   3.418   8.604 -0.3959 -0.2432  0.0513
  187SLPC  H17S21577   6.051   3.237   8.599 -0.5640 -0.0442 -0.0132
  187SLPC  C21821578   5.902   3.340   8.728  0.4161 -0.0001 -0.2686
  187SLPC  H18R21579   5.953   3.342   8.827 -1.5063 -1.8830  0.8510
  187SLPC  H18S21580   5.824   3.260   8.736 -0.0984  0.6728  2.3341
  187SLPC  H18T21581   5.847   3.436   8.733  0.8722  0.2887 -0.7133
  187SLPC   C3321582   5.384   3.501   7.292  0.5424 -0.7777 -0.1582
  187SLPC   H3X21583   5.364   3.608   7.271  1.1645 -0.8249 -1.0674
  187SLPC   H3Y21584   5.494   3.513   7.282  0.2252  2.5167 -0.7809
  187SLPC   C3421585   5.348   3.492   7.437 -0.2312  1.2112 -0.4925
  187SLPC   H4X21586   5.374   3.393   7.481 -2.2691  0.4323 -0.9444
  187SLPC   H4Y21587   5.237   3.484   7.443 -0.1641 -2.3691 -1.6223
  187SLPC   C3521588   5.410   3.593   7.533  0.1162  0.2558 -0.1668
  187SLPC   H5X21589   5.407   3.693   7.483  1.4615  0.0286 -0.7333
  187SLPC   H5Y21590   5.519   3.584   7.550 -0.0265  0.1531  0.7305
  187SLPC   C3621591   5.344   3.592   7.669 -0.7830  0.8214 -0.2649
  187SLPC   H6X21592   5.364   3.493   7.716 -0.5835  0.1696 -1.6718
  187SLPC   H6Y21593   5.234   3.608   7.672 -0.4432  3.8381  2.9456
  187SLPC   C3721594   5.387   3.704   7.755 -0.2134 -0.0829 -0.7257
  187SLPC   H7X21595   5.490   3.677   7.787 -0.6705 -1.5024 -0.4069
  187SLPC   H7Y21596   5.397   3.808   7.716  0.5577 -0.2517 -0.9953
  187SLPC   C3821597   5.298   3.712   7.883  0.2620  0.7112  0.5073
  187SLPC   H8X21598   5.272   3.613   7.924 -0.1550  0.9329  0.7810
  187SLPC   H8Y21599   5.206   3.773   7.869 -0.8126 -0.6888  1.2433
  187SLPC   C3921600   5.372   3.767   8.005 -0.1748  0.0831 -0.3372
  187SLPC   H9X21601   5.453   3.840   7.983 -1.1070  1.5443  0.9148
  187SLPC   H9Y21602   5.417   3.689   8.071  2.1013  0.1315 -1.6968
  187SLPC  C31021603   5.257   3.834   8.093  0.2032  0.4380 -0.3252
  187SLPC  H10X21604   5.167   3.769   8.089  1.1533 -0.8867 -0.8185
  187SLPC  H10Y21605   5.226   3.931   8.049 -1.1530 -0.0139 -0.4404
  187SLPC  C31121606   5.294   3.862   8.240  0.1264 -0.3628  0.6379
  187SLPC  H11X21607   5.393   3.911   8.239  0.9824 -2.0004  1.7972
  187SLPC  H11Y21608   5.302   3.770   8.301 -0.7580  0.6030  2.2702
  187SLPC  C31221609   5.196   3.963   8.311 -0.6292  0.1785  0.0224
  187SLPC  H12X21610   5.131   3.915   8.387 -0.2771  0.0574  0.2483
  187SLPC  H12Y21611   5.133   4.016   8.236  0.1094  0.0880 -0.6733
  187SLPC  C31321612   5.274   4.089   8.385 -0.2934  1.0290  0.0380
  187SLPC  H13X21613   5.331   4.143   8.307  1.1029 -0.9267 -0.3832
  187SLPC  H13Y21614   5.347   4.043   8.455 -0.8198 -2.5151 -1.5096
  187SLPC  C31421615   5.178   4.195   8.436  0.2938 -0.3606 -0.2294
  187SLPC  H14X21616   5.252   4.272   8.468  1.6012 -1.2184 -1.0557
  187SLPC  H14Y21617   5.124   4.143   8.518  0.0043  2.0571  1.1933
  187SLPC  C31521618   5.090   4.263   8.327  0.4274  0.0313 -0.2656
  187SLPC  H15X21619   5.030   4.193   8.265  0.4683  0.4509 -0.7883
  187SLPC  H15Y21620   5.154   4.324   8.260 -1.0623 -0.1782 -1.9609
  187SLPC  C31621621   4.979   4.358   8.382 -0.1232 -0.5800 -0.2413
  187SLPC  H16X21622   4.933   4.408   8.294  0.3302  0.5439  0.1388
  187SLPC  H16Y21623   5.021   4.442   8.441 -0.3772 -0.9638  0.5141
  187SLPC  C31721624   4.880   4.296   8.477  0.5588  0.2275  0.2756
  187SLPC  H17X21625   4.873   4.186   8.461 -0.2746 -0.1284  2.7435
  187SLPC  H17Y21626   4.775   4.329   8.461 -0.1180 -1.5112  0.9522
  187SLPC  C31821627   4.906   4.322   8.626 -0.6373  0.0737  0.8467
  187SLPC  H18X21628   4.904   4.433   8.636  0.7996  0.3879 -1.6719
  187SLPC  H18Y21629   5.010   4.291   8.648  0.0829  1.3675 -0.5448
  187SLPC  H18Z21630   4.840   4.268   8.697 -1.5230 -3.0849 -2.0980
  188SLPC     N21631   5.013   4.714   5.943 -0.4740 -0.5501 -0.4157
  188SLPC   C1321632   4.934   4.841   5.924 -0.2678 -0.7011  0.3924
  188SLPC  H13A21633   4.953   4.880   5.825 -2.0214 -4.7497 -1.7817
  188SLPC  H13B21634   4.829   4.819   5.933 -0.5221  0.9449  2.2143
  188SLPC  H13C21635   4.966   4.905   6.005 -3.2137 -0.4358  1.4746
  188SLPC   C1421636   5.153   4.751   5.956 -0.1928  0.4916 -0.5128
  188SLPC  H14A21637   5.175   4.802   6.049  1.5221  0.2197 -0.7414
  188SLPC  H14B21638   5.213   4.661   5.959 -3.5755 -2.0485 -1.6283
  188SLPC  H14C21639   5.190   4.807   5.871 -1.1249 -0.4891 -1.6038
  188SLPC   C1521640   4.994   4.629   5.824 -0.2627  0.0101  0.5121
  188SLPC  H15A21641   5.045   4.534   5.830  0.8994  0.5681 -0.2042
  188SLPC  H15B21642   4.892   4.606   5.795 -0.6092  0.3178  1.4423
  188SLPC  H15C21643   5.043   4.682   5.744  0.1501 -1.3186 -0.1575
  188SLPC   C1221644   4.968   4.640   6.071  0.0571 -0.6171  0.6695
  188SLPC  H12A21645   5.018   4.544   6.077 -0.6006 -0.9952  0.3118
  188SLPC  H12B21646   4.861   4.626   6.066 -0.4844  3.0072 -0.1829
  188SLPC   C1121647   4.980   4.716   6.210 -0.7818  0.0027  0.0220
  188SLPC  H11A21648   4.925   4.649   6.280  2.3020 -0.7590  1.8911
  188SLPC  H11B21649   4.930   4.815   6.202 -2.7299 -0.8569  0.7217
  188SLPC     P21650   5.203   4.631   6.331  0.5873 -0.2482 -0.3263
  188SLPC   O1321651   5.156   4.493   6.311  0.0191  0.0959  0.7606
  188SLPC   O1421652   5.346   4.655   6.304 -0.2448  0.2017  0.4242
  188SLPC   O1221653   5.120   4.734   6.249  0.1607  0.2813 -0.5255
  188SLPC   O1121654   5.165   4.673   6.478  0.2147  0.4885 -0.3885
  188SLPC    C121655   5.203   4.800   6.531  0.0427  0.1523  0.2235
  188SLPC    HA21656   5.287   4.850   6.478  1.3591  0.1748  2.2310
  188SLPC    HB21657   5.112   4.863   6.535 -0.4969 -0.6159  0.3122
  188SLPC    C221658   5.243   4.778   6.679  0.4332 -0.0689 -0.4264
  188SLPC    HS21659   5.290   4.873   6.713  2.9268 -1.8273  1.4513
  188SLPC   O2121660   5.339   4.673   6.691 -0.0254 -0.1124  0.8438
  188SLPC   C2121661   5.463   4.713   6.642  0.3470 -0.0052  0.1148
  188SLPC   O2221662   5.499   4.830   6.625 -0.1270 -0.1020 -0.0830
  188SLPC   C2221663   5.550   4.592   6.639 -0.1889 -0.3403  0.1375
  188SLPC   H2R21664   5.495   4.523   6.572 -3.4605  0.2167  2.0305
  188SLPC   H2S21665   5.648   4.627   6.600  1.0701 -0.7285  2.7325
  188SLPC    C321666   5.112   4.749   6.765  0.4160  0.3088 -0.7470
  188SLPC    HX21667   5.054   4.669   6.716  1.2243 -0.4477 -0.5028
  188SLPC    HY21668   5.055   4.845   6.762  1.4879  0.9754 -0.5946
  188SLPC   O3121669   5.130   4.726   6.908  0.1848  0.2379  0.0305
  188SLPC   C3121670   5.133   4.598   6.935  0.4553  0.0390 -0.9602
  188SLPC   O3221671   5.139   4.507   6.854 -0.2213 -0.1636  0.0602
  188SLPC   C3221672   5.141   4.584   7.088 -0.3477  0.6311  0.2847
  188SLPC   H2X21673   5.043   4.621   7.125 -1.8803 -2.4079 -0.4108
  188SLPC   H2Y21674   5.224   4.651   7.119 -0.8387  1.3997 -0.0192
  188SLPC   C2321675   5.572   4.518   6.767  0.1230  0.3049 -0.2561
  188SLPC   H3R21676   5.614   4.418   6.745  0.1815 -0.0947  1.5350
  188SLPC   H3S21677   5.471   4.497   6.809 -0.5461  0.8365 -1.5361
  188SLPC   C2421678   5.668   4.579   6.865 -0.3761  0.0672  0.3361
  188SLPC   H4R21679   5.630   4.677   6.903 -0.9537 -0.3361  0.8179
  188SLPC   H4S21680   5.763   4.595   6.810  0.6609 -0.1132  2.0013
  188SLPC   C2521681   5.706   4.497   6.992 -0.5661 -0.6972 -0.4541
  188SLPC   H5R21682   5.788   4.547   7.049 -1.3692  1.1621 -0.8692
  188SLPC   H5S21683   5.744   4.395   6.969  2.3455  0.4336 -1.0532
  188SLPC   C2621684   5.590   4.464   7.085  0.8492  0.0984 -0.3181
  188SLPC   H6R21685   5.511   4.403   7.038 -0.2318  1.0569  0.2122
  188SLPC   H6S21686   5.540   4.561   7.106  3.3778  1.6254 -0.9391
  188SLPC   C2721687   5.642   4.384   7.206 -0.2859  0.2607  0.0420
  188SLPC   H7R21688   5.723   4.317   7.169 -0.1254  0.2280  0.4474
  188SLPC   H7S21689   5.562   4.317   7.244 -0.5315  0.4137 -0.2072
  188SLPC   C2821690   5.699   4.460   7.333  0.3143 -0.7565 -0.1656
  188SLPC   H8R21691   5.611   4.519   7.367 -0.9124 -1.6246 -1.7032
  188SLPC   H8S21692   5.784   4.521   7.296  1.0645 -0.4373  1.9794
  188SLPC   C2921693   5.743   4.359   7.436 -0.6255  0.1510  0.1529
  188SLPC   H9R21694   5.851   4.341   7.445 -0.4746  1.6862  2.1733
  188SLPC  C21021695   5.662   4.296   7.521  0.5886  0.0103 -0.5625
  188SLPC  H10R21696   5.712   4.229   7.592  2.6701  0.0912 -1.8456
  188SLPC  C21121697   5.514   4.312   7.545  0.2994  0.3588  0.2294
  188SLPC  H11R21698   5.470   4.380   7.468 -0.4664  0.7746  1.0225
  188SLPC  H11S21699   5.490   4.354   7.645 -0.2481 -0.7590  0.5855
  188SLPC  C21221700   5.427   4.193   7.545  0.4032  0.3732 -0.3846
  188SLPC  H12R21701   5.433   4.145   7.445  1.5760  1.8130 -1.0479
  188SLPC  C21321702   5.350   4.144   7.645  0.0765  0.0960  0.2269
  188SLPC  H13R21703   5.289   4.056   7.619 -1.8645  1.8748 -1.6239
  188SLPC  C21421704   5.323   4.207   7.783  0.1995 -0.2135 -0.2926
  188SLPC  H14R21705   5.215   4.185   7.799  0.2931 -1.1294 -0.8715
  188SLPC  H14S21706   5.350   4.314   7.785  2.0343 -0.6517  0.0964
  188SLPC  C21521707   5.399   4.140   7.899 -0.1909 -0.2817  1.0327
  188SLPC  H15R21708   5.508   4.126   7.881  0.2570  2.6795  0.9300
  188SLPC  H15S21709   5.358   4.037   7.907 -0.4604 -0.2301  0.3765
  188SLPC  C21621710   5.384   4.210   8.035 -0.3825 -0.1130 -0.2542
  188SLPC  H16R21711   5.409   4.131   8.109  1.9015  1.4329  0.7206
  188SLPC  H16S21712   5.281   4.252   8.042  0.3179  1.3508  2.5948
  188SLPC  C21721713   5.480   4.333   8.059 -0.3588 -0.0940 -0.5014
  188SLPC  H17R21714   5.448   4.379   8.155 -0.5539  0.2653 -0.7371
  188SLPC  H17S21715   5.472   4.411   7.981  0.0927  2.2819  1.6754
  188SLPC  C21821716   5.623   4.290   8.069  0.7325  0.0196 -0.0173
  188SLPC  H18R21717   5.694   4.376   8.072 -0.5637  1.1540 -0.8674
  188SLPC  H18S21718   5.652   4.227   7.982 -1.0995  0.6539 -1.1301
  188SLPC  H18T21719   5.633   4.220   8.155 -1.6537  0.5394  0.7638
  188SLPC   C3321720   5.178   4.436   7.124  0.0305  0.1014 -0.6598
  188SLPC   H3X21721   5.242   4.391   7.045  0.9551 -0.9024  0.6283
  188SLPC   H3Y21722   5.081   4.382   7.132 -0.0651  0.5684  2.2921
  188SLPC   C3421723   5.250   4.416   7.256  0.1972  0.1295  0.1360
  188SLPC   H4X21724   5.357   4.433   7.235 -0.3843  1.0363 -2.4705
  188SLPC   H4Y21725   5.244   4.310   7.289  1.6675  0.3471  1.2156
  188SLPC   C3521726   5.207   4.507   7.376  0.0252 -0.5101  0.3647
  188SLPC   H5X21727   5.219   4.615   7.351  2.6803 -0.6884  0.5645
  188SLPC   H5Y21728   5.283   4.495   7.456  2.3917  2.8546 -1.0935
  188SLPC   C3621729   5.080   4.472   7.442  0.8770 -0.5788 -0.1019
  188SLPC   H6X21730   4.997   4.462   7.369  0.2254 -0.2781  0.5861
  188SLPC   H6Y21731   5.053   4.558   7.506  1.0835 -0.9636  0.5171
  188SLPC   C3721732   5.074   4.350   7.537  0.5036 -0.2801  0.8632
  188SLPC   H7X21733   5.144   4.371   7.621  0.5166  0.5844  0.6443
  188SLPC   H7Y21734   5.118   4.264   7.480  1.6417  1.3387 -0.8399
  188SLPC   C3821735   4.934   4.331   7.600  0.3696  0.2426  0.2277
  188SLPC   H8X21736   4.871   4.296   7.516  1.4032 -1.7679  0.2295
  188SLPC   H8Y21737   4.897   4.425   7.646 -4.5843 -0.5085 -1.6425
  188SLPC   C3921738   4.924   4.237   7.722  0.3652 -0.5568 -0.7891
  188SLPC   H9X21739   4.996   4.288   7.790 -0.5878 -1.3872  0.9013
  188SLPC   H9Y21740   4.940   4.129   7.706  1.6042 -0.8339  1.7627
  188SLPC  C31021741   4.788   4.241   7.796  0.1334  0.0008 -0.7176
  188SLPC  H10X21742   4.706   4.208   7.729 -1.8200  0.2910  1.4180
  188SLPC  H10Y21743   4.758   4.339   7.837 -1.2043  0.9009 -3.5770
  188SLPC  C31121744   4.786   4.130   7.900 -0.1584  0.1437  0.7047
  188SLPC  H11X21745   4.883   4.125   7.955 -0.0465 -1.6280  0.4026
  188SLPC  H11Y21746   4.775   4.039   7.838  1.4075  1.9451 -2.4837
  188SLPC  C31221747   4.672   4.142   8.004 -0.3977  0.6058 -0.2956
  188SLPC  H12X21748   4.577   4.166   7.950 -1.0910  1.5786  1.2766
  188SLPC  H12Y21749   4.694   4.238   8.055 -1.2895  0.0772  1.1662
  188SLPC  C31321750   4.656   4.029   8.104  0.0578 -0.0135  0.6722
  188SLPC  H13X21751   4.757   4.007   8.146 -1.0196 -3.1496  1.9185
  188SLPC  H13Y21752   4.639   3.937   8.044  4.4496  0.1506 -1.2373
  188SLPC  C31421753   4.559   4.063   8.214 -0.4343 -0.5240 -0.5726
  188SLPC  H14X21754   4.459   4.087   8.173  0.7822  1.3761 -2.6247
  188SLPC  H14Y21755   4.610   4.149   8.263  1.9188 -2.7176  1.1274
  188SLPC  C31521756   4.557   3.951   8.316  0.1531  0.3415 -0.3992
  188SLPC  H15X21757   4.516   3.986   8.413  0.9672 -1.5403  0.6734
  188SLPC  H15Y21758   4.661   3.926   8.348 -0.3483 -2.6606 -0.8542
  188SLPC  C31621759   4.484   3.819   8.273  0.0549  0.0148 -0.2396
  188SLPC  H16X21760   4.549   3.791   8.188  1.1116  0.8693  0.2663
  188SLPC  H16Y21761   4.386   3.842   8.226 -0.3302 -2.4653 -0.7961
  188SLPC  C31721762   4.472   3.709   8.376  0.3656 -0.3103 -0.7229
  188SLPC  H17X21763   4.422   3.625   8.323 -1.6665  0.0753  0.4985
  188SLPC  H17Y21764   4.401   3.743   8.454  0.8032 -0.9072 -0.0558
  188SLPC  C31821765   4.607   3.669   8.447 -0.0718 -0.4080  0.5649
  188SLPC  H18X21766   4.600   3.575   8.505  0.0379 -1.9965 -1.8893
  188SLPC  H18Y21767   4.630   3.750   8.520 -0.1326 -0.5609  0.7559
  188SLPC  H18Z21768   4.695   3.663   8.380 -0.1967 -2.8519  0.5344
  189SLPC     N21769   1.493   5.446   6.296 -0.1861 -0.0681 -0.4406
  189SLPC   C1321770   1.631   5.456   6.237 -0.4901  0.4036  0.5109
  189SLPC  H13A21771   1.705   5.448   6.315  0.6468  1.9796 -0.3609
  189SLPC  H13B21772   1.639   5.373   6.167  0.9064  0.7680  0.2139
  189SLPC  H13C21773   1.648   5.550   6.187 -1.3040 -0.1202 -0.8137
  189SLPC   C1421774   1.508   5.336   6.395  0.2585  0.1074  0.2536
  189SLPC  H14A21775   1.578   5.373   6.468  0.7161  1.8199 -0.9822
  189SLPC  H14B21776   1.414   5.315   6.444  0.4568  0.6318  0.8755
  189SLPC  H14C21777   1.552   5.245   6.358  2.0415  0.6857  0.8326
  189SLPC   C1521778   1.405   5.415   6.180  0.0368  0.0109 -0.2739
  189SLPC  H15A21779   1.301   5.415   6.209  0.2769 -0.1421  0.6178
  189SLPC  H15B21780   1.428   5.473   6.092 -0.1072 -2.4223 -1.9975
  189SLPC  H15C21781   1.420   5.314   6.147  3.0766  0.3291 -0.1502
  189SLPC   C1221782   1.462   5.580   6.361  0.4241  0.7530 -0.1905
  189SLPC  H12A21783   1.521   5.589   6.451  1.0755 -0.0694 -0.5153
  189SLPC  H12B21784   1.364   5.573   6.406  1.0998 -0.7434  1.1555
  189SLPC   C1121785   1.465   5.702   6.269 -0.1050 -0.2111  0.5738
  189SLPC  H11A21786   1.404   5.688   6.177  0.5629 -3.1667  0.4984
  189SLPC  H11B21787   1.569   5.725   6.237 -1.1223  2.8615 -1.0137
  189SLPC     P21788   1.274   5.855   6.384 -0.0883 -0.2572 -0.3431
  189SLPC   O1321789   1.239   5.938   6.263  0.4548 -0.3203  0.5973
  189SLPC   O1421790   1.200   5.730   6.411  0.5135 -0.2026 -0.3219
  189SLPC   O1221791   1.427   5.805   6.360  0.1451 -0.1344  0.3304
  189SLPC   O1121792   1.272   5.944   6.516  0.4684  0.1784 -0.6445
  189SLPC    C121793   1.378   5.999   6.587 -0.3871  0.8839 -0.6083
  189SLPC    HA21794   1.468   5.997   6.523 -0.5022  2.0536 -0.8291
  189SLPC    HB21795   1.358   6.106   6.612  3.2396  1.2661  1.2465
  189SLPC    C221796   1.419   5.924   6.722 -0.3979 -0.3531 -0.2856
  189SLPC    HS21797   1.464   5.829   6.685 -0.8609 -0.5952 -0.2283
  189SLPC   O2121798   1.306   5.914   6.807  0.0597 -0.0303  0.6859
  189SLPC   C2121799   1.309   5.813   6.903 -0.2891  0.4700 -0.1723
  189SLPC   O2221800   1.394   5.722   6.892 -0.0040  0.3250  0.0494
  189SLPC   C2221801   1.205   5.832   7.010  0.0166  0.2088 -1.2043
  189SLPC   H2R21802   1.119   5.887   6.964 -1.9396 -1.7554 -0.0743
  189SLPC   H2S21803   1.159   5.736   7.040  3.7930 -1.1966  0.7432
  189SLPC    C321804   1.549   5.993   6.789 -0.3980  0.4289 -0.0745
  189SLPC    HX21805   1.542   6.098   6.823  0.8905  0.4107  0.3287
  189SLPC    HY21806   1.607   6.001   6.694  0.3491 -3.4284 -0.1072
  189SLPC   O3121807   1.608   5.914   6.897  0.2500 -0.2284  0.5463
  189SLPC   C3121808   1.714   5.838   6.865 -0.0511 -0.6834  0.0322
  189SLPC   O3221809   1.762   5.830   6.749  0.0318 -0.4503 -0.5300
  189SLPC   C3221810   1.743   5.742   6.981 -0.0866 -0.9622  0.2136
  189SLPC   H2X21811   1.674   5.657   6.966 -0.8241 -0.4442  0.6170
  189SLPC   H2Y21812   1.725   5.799   7.074 -1.3513  2.4253 -1.9330
  189SLPC   C2321813   1.258   5.904   7.138 -0.1383 -0.1806  0.1898
  189SLPC   H3R21814   1.176   5.924   7.210 -0.8913  2.1669 -1.1869
  189SLPC   H3S21815   1.302   5.999   7.098  2.1385 -2.1912 -2.4629
  189SLPC   C2421816   1.368   5.827   7.212  0.1079 -0.6851 -0.0482
  189SLPC   H4R21817   1.471   5.845   7.173  0.4625 -1.5118  0.4917
  189SLPC   H4S21818   1.347   5.718   7.213  0.1622 -0.6942  0.0830
  189SLPC   C2521819   1.387   5.860   7.363  0.9752 -0.1608 -0.3968
  189SLPC   H5R21820   1.302   5.808   7.412 -1.1871  1.8461 -1.8167
  189SLPC   H5S21821   1.379   5.971   7.368 -0.4460 -0.2501 -0.4923
  189SLPC   C2621822   1.524   5.807   7.414  0.1304  0.7872 -0.0097
  189SLPC   H6R21823   1.550   5.812   7.522 -0.6156  1.6704  0.1407
  189SLPC   H6S21824   1.595   5.874   7.360  1.1025 -0.7093 -0.6366
  189SLPC   C2721825   1.550   5.659   7.379 -0.2548 -0.5747  1.2249
  189SLPC   H7R21826   1.646   5.628   7.424  0.8103  1.3745  0.4306
  189SLPC   H7S21827   1.566   5.638   7.271 -0.9724  0.3107  0.9221
  189SLPC   C2821828   1.433   5.565   7.416 -0.3904  0.1630  0.0273
  189SLPC   H8R21829   1.342   5.591   7.358  0.2072  0.7396 -0.6577
  189SLPC   H8S21830   1.399   5.587   7.520 -1.7624  1.9464 -0.7607
  189SLPC   C2921831   1.464   5.421   7.402  0.1516  0.0516  0.6820
  189SLPC   H9R21832   1.436   5.375   7.307  2.4695  1.2729 -0.6809
  189SLPC  C21021833   1.494   5.352   7.510 -0.0881  0.6341  0.0654
  189SLPC  H10R21834   1.511   5.249   7.476 -1.2233  1.3320 -3.0781
  189SLPC  C21121835   1.510   5.392   7.652  0.3885 -0.2711 -0.3175
  189SLPC  H11R21836   1.569   5.486   7.660 -0.2732  0.1749 -0.5834
  189SLPC  H11S21837   1.579   5.315   7.692  1.1875 -1.3387 -3.4846
  189SLPC  C21221838   1.391   5.400   7.732 -0.6242  0.2337 -0.0088
  189SLPC  H12R21839   1.294   5.380   7.684 -0.6266 -2.4101  0.9410
  189SLPC  C21321840   1.392   5.414   7.865  0.2520 -0.8972 -0.3722
  189SLPC  H13R21841   1.294   5.434   7.911  0.3281 -1.6648  0.1391
  189SLPC  C21421842   1.514   5.424   7.955 -0.3189  0.3786 -0.0729
  189SLPC  H14R21843   1.528   5.521   8.007  0.0219 -1.2141  3.0692
  189SLPC  H14S21844   1.604   5.413   7.891  0.2818 -1.7320  1.0336
  189SLPC  C21521845   1.534   5.305   8.046  0.9787  0.0927 -0.3884
  189SLPC  H15R21846   1.635   5.306   8.091  0.2419  0.5763  1.3727
  189SLPC  H15S21847   1.513   5.211   7.992  1.2223 -0.7862  1.0025
  189SLPC  C21621848   1.456   5.313   8.173  0.4795 -0.4965  0.2210
  189SLPC  H16R21849   1.347   5.333   8.167  0.7931  1.5661  0.8468
  189SLPC  H16S21850   1.493   5.398   8.233  0.8726 -0.5658  0.0803
  189SLPC  C21721851   1.477   5.184   8.254  0.5129  0.1613  0.8042
  189SLPC  H17R21852   1.588   5.172   8.260  0.6746  1.8759  2.4535
  189SLPC  H17S21853   1.426   5.097   8.209 -0.7776  1.7714 -0.9529
  189SLPC  C21821854   1.422   5.208   8.392  0.0368  0.9717  0.5517
  189SLPC  H18R21855   1.464   5.135   8.464  2.0542  0.9390 -0.5841
  189SLPC  H18S21856   1.312   5.189   8.389 -0.0139  1.3588 -0.4090
  189SLPC  H18T21857   1.438   5.315   8.416 -3.6229  1.9423 -0.6253
  189SLPC   C3321858   1.892   5.690   6.965  0.1028  0.1751  0.0874
  189SLPC   H3X21859   1.904   5.667   6.857 -2.9489  0.1969 -0.3392
  189SLPC   H3Y21860   1.917   5.595   7.018  4.4136 -0.0544 -1.9188
  189SLPC   C3421861   2.002   5.791   7.014  0.1289 -0.5439  0.5888
  189SLPC   H4X21862   1.969   5.886   6.966  0.7633  0.0059  1.2295
  189SLPC   H4Y21863   2.093   5.755   6.963 -0.6110  0.3454 -1.4675
  189SLPC   C3521864   2.016   5.792   7.165  0.1110 -0.2954  0.3280
  189SLPC   H5X21865   1.916   5.762   7.204  0.7728 -2.2664  0.6504
  189SLPC   H5Y21866   2.042   5.892   7.205 -0.8857  0.3683 -0.6116
  189SLPC   C3621867   2.128   5.693   7.209 -0.4320  0.1614  0.4380
  189SLPC   H6X21868   2.221   5.696   7.149  0.6908 -1.4855  1.9922
  189SLPC   H6Y21869   2.080   5.593   7.204 -0.1316 -0.2716  3.6113
  189SLPC   C3721870   2.176   5.724   7.348  0.6443  0.7243 -0.4835
  189SLPC   H7X21871   2.228   5.822   7.350 -0.3133  1.2333  0.4227
  189SLPC   H7Y21872   2.246   5.642   7.376  0.0412  0.0122 -1.0267
  189SLPC   C3821873   2.067   5.731   7.455  0.6046  0.5070 -0.1828
  189SLPC   H8X21874   1.982   5.794   7.422  0.2899 -0.4034 -1.1902
  189SLPC   H8Y21875   2.114   5.786   7.539  2.2900  0.0606 -0.7858
  189SLPC   C3921876   2.030   5.591   7.494  0.7158 -0.2550 -0.0513
  189SLPC   H9X21877   2.111   5.533   7.544  0.0493 -0.4982  0.7565
  189SLPC   H9Y21878   1.999   5.545   7.397 -1.5457 -0.7343  0.8486
  189SLPC  C31021879   1.913   5.579   7.582  0.1675  0.3899 -0.3144
  189SLPC  H10X21880   1.869   5.477   7.574 -1.1408  0.9297 -0.2968
  189SLPC  H10Y21881   1.838   5.647   7.537 -1.1390 -1.1941 -0.6260
  189SLPC  C31121882   1.935   5.620   7.727 -0.6276  0.6073  0.7251
  189SLPC  H11X21883   1.991   5.716   7.727  0.3972  0.0495 -0.8888
  189SLPC  H11Y21884   2.003   5.541   7.765  0.3850  0.3071 -1.5552
  189SLPC  C31221885   1.811   5.629   7.814  0.1145 -0.2086  0.0025
  189SLPC  H12X21886   1.748   5.544   7.781 -1.0792  0.1641  1.2170
  189SLPC  H12Y21887   1.757   5.718   7.774  0.2470  0.0311  0.3451
  189SLPC  C31321888   1.821   5.640   7.967 -0.6967  0.7685 -0.4199
  189SLPC  H13X21889   1.723   5.650   8.018 -0.4913 -2.5312  0.8918
  189SLPC  H13Y21890   1.880   5.731   7.990  0.9951 -0.0419 -1.3352
  189SLPC  C31421891   1.891   5.518   8.025 -0.1145  0.2283  1.0313
  189SLPC  H14X21892   1.994   5.513   7.985 -0.9706  4.2637 -2.4121
  189SLPC  H14Y21893   1.838   5.425   7.994  1.3780  0.0023 -1.0362
  189SLPC  C31521894   1.875   5.516   8.181  0.0920 -0.0673  0.5093
  189SLPC  H15X21895   1.770   5.537   8.209 -0.3564 -0.0864 -1.0271
  189SLPC  H15Y21896   1.938   5.599   8.219 -1.8861  1.3335  0.8577
  189SLPC  C31621897   1.931   5.392   8.239  0.6721 -0.6436  0.6216
  189SLPC  H16X21898   2.038   5.390   8.209  0.1703  0.6393 -1.4176
  189SLPC  H16Y21899   1.889   5.299   8.195  0.0941  0.5737 -1.5502
  189SLPC  C31721900   1.935   5.382   8.394 -0.2657  0.4483  0.0356
  189SLPC  H17X21901   1.967   5.475   8.446 -4.3008  1.1646  1.5558
  189SLPC  H17Y21902   2.014   5.305   8.410  0.5650  0.5318 -3.0098
  189SLPC  C31821903   1.799   5.330   8.440  0.2240  0.3076  0.3632
  189SLPC  H18X21904   1.709   5.391   8.416 -0.3211 -1.3090 -2.0611
  189SLPC  H18Y21905   1.799   5.301   8.547  0.7416 -1.7574 -0.1482
  189SLPC  H18Z21906   1.789   5.227   8.399 -0.9387  0.5162  0.1009
  190SLPC     N21907   0.100   4.118   6.082  0.3846 -0.1293  0.2476
  190SLPC   C1321908   0.079   4.270   6.070  0.6768 -0.7241  0.6656
  190SLPC  H13A21909   0.054   4.295   5.967  0.3183 -0.3549  0.8390
  190SLPC  H13B21910  -0.002   4.299   6.135  1.3629  3.7886 -0.1507
  190SLPC  H13C21911   0.170   4.321   6.095  0.6783 -0.8688  0.9555
  190SLPC   C1421912   0.210   4.083   5.984  0.1965  0.6380  0.5057
  190SLPC  H14A21913   0.183   4.120   5.886  0.8759  3.3148  1.2404
  190SLPC  H14B21914   0.305   4.127   6.008  0.9405 -0.0492 -1.1100
  190SLPC  H14C21915   0.227   3.977   5.978 -1.0322  0.4953 -0.9793
  190SLPC   C1521916  -0.021   4.043   6.042 -0.5119 -0.4919 -0.0505
  190SLPC  H15A21917   0.002   3.938   6.050  2.3006  0.1597  2.9971
  190SLPC  H15B21918  -0.111   4.060   6.101  0.5450 -0.5840  1.6686
  190SLPC  H15C21919  -0.045   4.074   5.942 -2.0692 -0.5776  0.2600
  190SLPC   C1221920   0.135   4.083   6.230 -0.9566 -0.3812 -0.3933
  190SLPC  H12A21921   0.137   3.976   6.248  0.0809 -0.6069 -1.7175
  190SLPC  H12B21922   0.059   4.114   6.300 -0.7516  1.3720 -0.9134
  190SLPC   C1121923   0.266   4.150   6.279  0.1203  0.5137  0.1332
  190SLPC  H11A21924   0.274   4.128   6.388 -0.3784 -0.1720  0.0362
  190SLPC  H11B21925   0.244   4.258   6.266 -0.2013  0.1683 -2.8094
  190SLPC     P21926   0.440   3.968   6.237  0.2265  0.0849 -0.3000
  190SLPC   O1321927   0.340   3.866   6.199 -0.3492  0.5053 -0.0547
  190SLPC   O1421928   0.570   3.953   6.166  0.4405 -0.8962  0.2167
  190SLPC   O1221929   0.387   4.111   6.213  0.8961 -0.7649  0.8785
  190SLPC   O1121930   0.474   3.967   6.390 -0.1757  0.0446  0.0760
  190SLPC    C121931   0.422   3.861   6.472  0.5766  0.0804  0.5373
  190SLPC    HA21932   0.385   3.769   6.422  1.2327 -1.4516  2.7192
  190SLPC    HB21933   0.509   3.811   6.519 -1.1208 -2.5902  1.0720
  190SLPC    C221934   0.340   3.915   6.586  0.2747  0.3281  0.7562
  190SLPC    HS21935   0.244   3.944   6.538 -0.7798 -1.7641  1.4297
  190SLPC   O2121936   0.407   4.027   6.645  0.4422  0.4588 -0.0105
  190SLPC   C2121937   0.316   4.126   6.691  0.4369  0.9818 -0.2885
  190SLPC   O2221938   0.199   4.114   6.673 -0.6582 -0.3832 -0.4583
  190SLPC   C2221939   0.396   4.241   6.762  0.0303  0.2920  0.5779
  190SLPC   H2R21940   0.479   4.185   6.811 -2.5144 -0.9148  3.8373
  190SLPC   H2S21941   0.417   4.318   6.685 -0.6525 -0.8928 -0.8150
  190SLPC    C321942   0.307   3.801   6.680 -0.3038  0.5452 -0.8183
  190SLPC    HX21943   0.397   3.794   6.745  0.1421  1.1256 -1.3608
  190SLPC    HY21944   0.309   3.698   6.639  6.5515  0.2900 -0.9479
  190SLPC   O3121945   0.208   3.840   6.775 -0.5025  0.1489 -0.0099
  190SLPC   C3121946   0.090   3.784   6.759  0.0405 -0.3692  0.4259
  190SLPC   O3221947   0.054   3.706   6.668 -0.0501 -0.9371 -0.0221
  190SLPC   C3221948   0.006   3.842   6.865  0.5763  0.3588 -0.0318
  190SLPC   H2X21949  -0.022   3.945   6.832 -0.5731  0.1817  0.3313
  190SLPC   H2Y21950   0.065   3.854   6.959 -0.0679  0.9021  0.3156
  190SLPC   C2321951   0.318   4.296   6.895 -0.0039 -0.4883  0.0932
  190SLPC   H3R21952   0.215   4.317   6.859  0.5797  3.2171  0.1669
  190SLPC   H3S21953   0.368   4.390   6.927  0.6131 -1.4030  1.9524
  190SLPC   C2421954   0.329   4.197   7.013 -0.0202  0.5662 -0.4949
  190SLPC   H4R21955   0.435   4.184   7.043  0.3556  1.6422 -1.2917
  190SLPC   H4S21956   0.301   4.096   6.976 -1.0068  0.8150 -0.4532
  190SLPC   C2521957   0.236   4.232   7.125  0.6533 -0.1033 -0.7614
  190SLPC   H5R21958   0.132   4.226   7.085 -0.2239  1.3715  1.1210
  190SLPC   H5S21959   0.251   4.338   7.152  0.4841 -0.6691  1.8788
  190SLPC   C2621960   0.244   4.134   7.242 -0.2238 -0.4097 -0.0758
  190SLPC   H6R21961   0.179   4.158   7.329  3.3302  3.2934  1.8763
  190SLPC   H6S21962   0.350   4.129   7.274 -0.2900 -1.8813 -0.0241
  190SLPC   C2721963   0.216   3.990   7.191  0.1992  0.1676 -0.2756
  190SLPC   H7R21964   0.310   3.955   7.142  1.6495  2.7052  0.4923
  190SLPC   H7S21965   0.128   3.991   7.124  0.8058 -0.0701 -1.1046
  190SLPC   C2821966   0.187   3.892   7.308 -0.1849  0.4527  0.1514
  190SLPC   H8R21967   0.147   3.798   7.264  1.9124 -0.2260 -0.3932
  190SLPC   H8S21968   0.109   3.941   7.370  1.0075  2.3272  0.2334
  190SLPC   C2921969   0.308   3.862   7.396  0.5268 -0.0715 -0.2660
  190SLPC   H9R21970   0.404   3.846   7.344  0.7320 -0.6413  0.2801
  190SLPC  C21021971   0.299   3.845   7.530 -0.8053 -0.4387  0.4258
  190SLPC  H10R21972   0.390   3.835   7.590  1.2687 -3.9041 -2.8235
  190SLPC  C21121973   0.174   3.852   7.612 -0.2770  0.6686 -0.3287
  190SLPC  H11R21974   0.173   3.785   7.700  0.0815  1.0446 -0.0358
  190SLPC  H11S21975   0.093   3.811   7.547 -1.2711 -1.9808  2.3641
  190SLPC  C21221976   0.129   3.994   7.650  0.7828  0.4303 -0.6563
  190SLPC  H12R21977   0.171   4.073   7.585  4.1312 -0.9451 -0.3927
  190SLPC  C21321978   0.051   4.030   7.758  0.6525 -0.1738  0.1164
  190SLPC  H13R21979   0.035   4.138   7.776 -0.3105 -0.3706  0.5220
  190SLPC  C21421980  -0.011   3.936   7.858 -1.2783  0.1738  0.2950
  190SLPC  H14R21981  -0.025   3.836   7.812 -2.2266  0.2997  0.2946
  190SLPC  H14S21982  -0.110   3.976   7.890  0.0426  3.5697  0.5031
  190SLPC  C21521983   0.059   3.903   7.991  0.7386  0.2679  0.2813
  190SLPC  H15R21984   0.167   3.888   7.973  0.5510  0.7142 -1.3187
  190SLPC  H15S21985   0.010   3.808   8.024  0.0739  0.5066  0.0022
  190SLPC  C21621986   0.048   4.015   8.095  0.0783  0.0441  0.2773
  190SLPC  H16R21987  -0.061   4.035   8.102  0.1032 -0.0717  1.0044
  190SLPC  H16S21988   0.090   4.112   8.060  0.6052 -0.5250 -0.7104
  190SLPC  C21721989   0.099   3.971   8.229  0.6861 -0.1282 -0.0595
  190SLPC  H17R21990   0.046   3.884   8.275  2.4692 -0.2118  1.9957
  190SLPC  H17S21991   0.073   4.044   8.309  1.1098  1.2457 -1.1515
  190SLPC  C21821992   0.250   3.967   8.239 -0.1611 -0.3942 -0.0286
  190SLPC  H18R21993   0.273   3.961   8.348 -4.5068  1.0541  1.2001
  190SLPC  H18S21994   0.292   4.058   8.191  0.4023 -0.5330  0.1925
  190SLPC  H18T21995   0.289   3.874   8.192 -1.1759 -0.9047  0.1105
  190SLPC   C3321996  -0.119   3.763   6.900  0.2689  0.6130  0.1864
  190SLPC   H3X21997  -0.080   3.664   6.932  0.4473 -0.1069 -2.0500
  190SLPC   H3Y21998  -0.185   3.745   6.811 -0.7333 -0.9395  1.1835
  190SLPC   C3421999  -0.216   3.827   7.000 -1.2048 -0.1173 -0.4489
  190SLPC   H4X22000  -0.307   3.764   7.002 -0.2058 -1.5983  0.1068
  190SLPC   H4Y22001  -0.245   3.927   6.962  0.1964  1.3053  1.9754
  190SLPC   C3522002  -0.172   3.841   7.144  0.5769 -0.5601  0.0976
  190SLPC   H5X22003  -0.123   3.939   7.156  0.1836 -0.2801 -0.5210
  190SLPC   H5Y22004  -0.097   3.763   7.171  0.3115 -1.1269 -0.7295
  190SLPC   C3622005  -0.301   3.831   7.238 -0.2130  0.3913  0.3433
  190SLPC   H6X22006  -0.343   3.732   7.211  3.2646 -1.0006 -0.4901
  190SLPC   H6Y22007  -0.370   3.909   7.201  1.2571  0.6968 -1.9390
  190SLPC   C3722008  -0.253   3.822   7.383  0.2183  0.6227 -0.0657
  190SLPC   H7X22009  -0.188   3.911   7.394  0.6361  0.6639 -2.2609
  190SLPC   H7Y22010  -0.200   3.728   7.408 -0.6497  0.6410  2.0039
  190SLPC   C3822011  -0.367   3.819   7.479 -0.1341  0.3993 -0.1642
  190SLPC   H8X22012  -0.400   3.714   7.491  2.3058 -0.6936 -2.0468
  190SLPC   H8Y22013  -0.451   3.881   7.441 -1.6791 -1.4859  0.0281
  190SLPC   C3922014  -0.327   3.871   7.619 -0.1289 -0.5848  0.0358
  190SLPC   H9X22015  -0.320   3.982   7.620  0.0345 -0.5945  0.9231
  190SLPC   H9Y22016  -0.231   3.830   7.657 -0.0267 -3.5285 -2.8946
  190SLPC  C31022017  -0.439   3.829   7.712 -0.2823  0.2025 -0.0117
  190SLPC  H10X22018  -0.428   3.719   7.725  1.2952  0.2284 -0.8475
  190SLPC  H10Y22019  -0.542   3.843   7.675 -1.2492 -0.9328  2.0728
  190SLPC  C31122020  -0.427   3.895   7.849  0.0968 -0.0396 -0.4706
  190SLPC  H11X22021  -0.318   3.906   7.866 -0.0211 -1.3955  1.4962
  190SLPC  H11Y22022  -0.467   3.825   7.925 -0.8134  1.0267  0.0618
  190SLPC  C31222023  -0.504   4.026   7.870 -0.6471  0.4006 -0.0940
  190SLPC  H12X22024  -0.601   4.016   7.922 -1.5956  1.4642 -1.5833
  190SLPC  H12Y22025  -0.525   4.069   7.769 -0.1215  0.5559 -0.1421
  190SLPC  C31322026  -0.415   4.137   7.929  0.3528 -0.8960 -0.0974
  190SLPC  H13X22027  -0.447   4.238   7.895 -1.6754 -0.4263  2.8903
  190SLPC  H13Y22028  -0.312   4.132   7.887  0.0581  1.4521 -1.2749
  190SLPC  C31422029  -0.410   4.138   8.085  0.0221  1.0947  0.2786
  190SLPC  H14X22030  -0.366   4.040   8.111  0.1019  0.4315 -2.1238
  190SLPC  H14Y22031  -0.516   4.145   8.114 -0.1354  0.4562 -0.1237
  190SLPC  C31522032  -0.325   4.253   8.143  0.4217  0.6590  0.3900
  190SLPC  H15X22033  -0.368   4.353   8.121  0.5646  1.0850  1.9058
  190SLPC  H15Y22034  -0.228   4.256   8.089 -0.6218 -0.1730 -1.6447
  190SLPC  C31622035  -0.297   4.238   8.296  0.0254  0.2254 -0.2431
  190SLPC  H16X22036  -0.309   4.137   8.341  0.6601  0.7268  1.1222
  190SLPC  H16Y22037  -0.370   4.309   8.340  0.4574  1.1218 -0.9357
  190SLPC  C31722038  -0.152   4.277   8.335 -0.2606  0.2473 -0.5637
  190SLPC  H17X22039  -0.132   4.384   8.314 -2.1958  0.5441 -1.0864
  190SLPC  H17Y22040  -0.079   4.227   8.269  1.8256  1.5294  0.6697
  190SLPC  C31822041  -0.110   4.240   8.480 -0.3963  0.2335  0.4849
  190SLPC  H18X22042  -0.111   4.129   8.482 -0.5893  0.1753 -1.4494
  190SLPC  H18Y22043  -0.180   4.286   8.553  0.5189 -0.0812  1.5865
  190SLPC  H18Z22044  -0.006   4.276   8.496  0.0563  0.3078 -2.2097
  191SLPC     N22045   2.791   0.729   6.245  0.2184 -0.4208  0.6808
  191SLPC   C1322046   2.698   0.703   6.354 -0.4890  0.6971 -0.0756
  191SLPC  H13A22047   2.745   0.664   6.443 -0.8679  1.8224  0.6428
  191SLPC  H13B22048   2.647   0.795   6.380 -1.0628  0.1575  0.7817
  191SLPC  H13C22049   2.619   0.635   6.325  0.9608 -1.0916  0.0015
  191SLPC   C1422050   2.874   0.853   6.276 -0.6790 -0.4164  0.2768
  191SLPC  H14A22051   2.931   0.884   6.189 -0.6638 -0.9158  0.0998
  191SLPC  H14B22052   2.812   0.935   6.308  2.0599  1.9997 -0.2004
  191SLPC  H14C22053   2.939   0.834   6.359  1.7281  2.0659 -0.8872
  191SLPC   C1522054   2.713   0.770   6.130  0.0593 -0.2504 -0.0133
  191SLPC  H15A22055   2.785   0.811   6.061 -1.0550  2.7247  0.4346
  191SLPC  H15B22056   2.658   0.696   6.075 -0.7447  1.3920 -1.5355
  191SLPC  H15C22057   2.643   0.847   6.159 -0.2860  0.6724 -3.0287
  191SLPC   C1222058   2.877   0.613   6.205  0.2776 -0.1824 -0.1418
  191SLPC  H12A22059   2.817   0.525   6.187  0.1696  0.3674 -3.0092
  191SLPC  H12B22060   2.943   0.586   6.286 -0.4574 -1.2212  0.1310
  191SLPC   C1122061   2.964   0.623   6.078 -0.3169  0.2865 -0.1462
  191SLPC  H11A22062   2.908   0.652   5.987 -0.5814 -0.7525 -0.3219
  191SLPC  H11B22063   2.990   0.520   6.046 -0.6095 -0.4575  1.8451
  191SLPC     P22064   3.195   0.684   6.179 -0.4594  0.1373 -0.1083
  191SLPC   O1322065   3.266   0.555   6.139  0.1160 -0.2200  0.0260
  191SLPC   O1422066   3.278   0.810   6.167 -0.0430  0.1663 -0.1792
  191SLPC   O1222067   3.072   0.706   6.095 -0.0246 -0.7998 -0.4541
  191SLPC   O1122068   3.135   0.667   6.321  0.0329  0.2137  0.4067
  191SLPC    C122069   3.173   0.759   6.429  0.1234  0.7287  0.1111
  191SLPC    HA22070   3.189   0.862   6.391 -0.1983  0.8129  0.2023
  191SLPC    HB22071   3.095   0.775   6.508 -0.7433  0.3465 -0.6521
  191SLPC    C222072   3.308   0.718   6.498 -0.6478 -0.3933  0.2017
  191SLPC    HS22073   3.381   0.688   6.420  0.1697  0.6633  0.5438
  191SLPC   O2122074   3.270   0.609   6.585  0.3217 -0.4072 -0.1122
  191SLPC   C2122075   3.371   0.553   6.639  0.6018 -0.6277  0.2722
  191SLPC   O2222076   3.490   0.585   6.628 -0.0326 -0.4458 -0.6751
  191SLPC   C2222077   3.315   0.468   6.749 -0.0595 -0.1823  0.5609
  191SLPC   H2R22078   3.250   0.532   6.813  0.2837  0.2883  0.4357
  191SLPC   H2S22079   3.254   0.387   6.703  0.6082  0.1933 -1.0426
  191SLPC    C322080   3.377   0.839   6.571  0.6332  1.0873 -0.3029
  191SLPC    HX22081   3.420   0.885   6.480 -0.8661 -2.2690 -2.9162
  191SLPC    HY22082   3.461   0.812   6.638  0.5448 -0.7293 -0.8469
  191SLPC   O3122083   3.281   0.921   6.640  0.4320  0.1384 -0.0753
  191SLPC   C3122084   3.309   1.040   6.681  0.9908 -0.1860 -0.1751
  191SLPC   O3222085   3.412   1.101   6.655  0.0518 -0.7425  0.3727
  191SLPC   C3222086   3.194   1.098   6.773 -0.0007 -0.2080  0.0320
  191SLPC   H2X22087   3.125   1.023   6.818 -0.5408 -0.2421 -0.8315
  191SLPC   H2Y22088   3.138   1.161   6.702  0.5843 -1.9205 -2.0656
  191SLPC   C2322089   3.425   0.403   6.837 -0.2127  0.4421 -0.3901
  191SLPC   H3R22090   3.481   0.478   6.895 -0.1467 -0.6573  1.0215
  191SLPC   H3S22091   3.500   0.350   6.774  0.9342 -0.3314  1.5673
  191SLPC   C2422092   3.364   0.304   6.934 -0.2987 -0.3301  0.2576
  191SLPC   H4R22093   3.449   0.248   6.978 -1.1792 -0.1060  2.3667
  191SLPC   H4S22094   3.301   0.236   6.873 -1.2207  1.2559 -0.6310
  191SLPC   C2522095   3.281   0.369   7.044 -0.8511 -0.5295  0.1083
  191SLPC   H5R22096   3.215   0.452   7.012 -0.4597 -1.1236 -2.4493
  191SLPC   H5S22097   3.350   0.415   7.118 -1.8724  0.0513  0.7197
  191SLPC   C2622098   3.194   0.270   7.127 -0.0017 -0.5139  0.1327
  191SLPC   H6R22099   3.260   0.190   7.167  1.6433  1.0875  0.7985
  191SLPC   H6S22100   3.110   0.227   7.069 -0.6809 -1.0173  1.4690
  191SLPC   C2722101   3.138   0.341   7.255  0.0464 -0.2314  0.3511
  191SLPC   H7R22102   3.078   0.425   7.216  0.9948  0.7078  0.8592
  191SLPC   H7S22103   3.220   0.379   7.321 -1.5356 -0.5848  2.6467
  191SLPC   C2822104   3.060   0.252   7.348  0.8245 -0.0136 -0.7739
  191SLPC   H8R22105   3.132   0.175   7.384 -0.5976 -0.9717  0.1207
  191SLPC   H8S22106   2.982   0.201   7.287  1.0434 -0.7938 -0.4093
  191SLPC   C2922107   2.982   0.320   7.457 -0.5171  0.1157 -0.5436
  191SLPC   H9R22108   2.893   0.377   7.427 -0.9918  0.4204  1.2741
  191SLPC  C21022109   3.000   0.304   7.592 -0.1698 -0.5247 -0.2762
  191SLPC  H10R22110   2.934   0.367   7.654 -0.6651 -0.8999 -0.4177
  191SLPC  C21122111   3.109   0.226   7.663  1.1429  0.0385  0.1224
  191SLPC  H11R22112   3.184   0.166   7.607 -0.6593 -1.6343 -0.6184
  191SLPC  H11S22113   3.052   0.146   7.715  2.3258 -0.3052  0.9253
  191SLPC  C21222114   3.186   0.289   7.771  0.0377 -0.0978 -0.7607
  191SLPC  H12R22115   3.187   0.398   7.785 -0.5850 -0.4864  3.4397
  191SLPC  C21322116   3.254   0.222   7.868 -0.0168 -0.4114  0.2572
  191SLPC  H13R22117   3.314   0.281   7.938 -0.6728 -0.6236  1.0195
  191SLPC  C21422118   3.258   0.074   7.889  0.4008 -0.3874  0.1924
  191SLPC  H14R22119   3.363   0.050   7.916  0.5354 -0.6919 -0.5731
  191SLPC  H14S22120   3.225   0.020   7.798  0.1682 -0.0306  0.0619
  191SLPC  C21522121   3.172   0.019   8.002  0.3602 -0.4446  0.4185
  191SLPC  H15R22122   3.067   0.037   7.971  0.3225 -2.3893 -0.7233
  191SLPC  H15S22123   3.195   0.071   8.097 -0.4411 -1.4780  1.1986
  191SLPC  C21622124   3.191  -0.132   8.028  0.0030  1.0750 -0.2279
  191SLPC  H16R22125   3.279  -0.140   8.095  1.1055 -0.3876 -1.7786
  191SLPC  H16S22126   3.218  -0.192   7.939  1.1332  0.6194  0.4075
  191SLPC  C21722127   3.062  -0.200   8.089 -0.8779  0.1484  0.8412
  191SLPC  H17R22128   2.976  -0.184   8.020  0.1544  0.3445 -0.4306
  191SLPC  H17S22129   3.042  -0.149   8.186 -1.1074  0.5519  0.5855
  191SLPC  C21822130   3.082  -0.350   8.110 -0.3253 -0.1840  0.0182
  191SLPC  H18R22131   3.162  -0.371   8.184  0.5059  0.5653 -0.6494
  191SLPC  H18S22132   3.117  -0.388   8.012 -1.6245 -0.8230 -0.2156
  191SLPC  H18T22133   2.991  -0.404   8.143 -0.5766 -0.3916 -0.9898
  191SLPC   C3322134   3.258   1.189   6.877  0.5573  0.3482  0.5066
  191SLPC   H3X22135   3.178   1.267   6.882 -0.0594 -0.2203 -0.2415
  191SLPC   H3Y22136   3.358   1.227   6.848  0.0631  1.1195 -0.2467
  191SLPC   C3422137   3.284   1.133   7.012 -0.3830 -0.3997  0.5502
  191SLPC   H4X22138   3.362   1.054   7.014  1.2665  1.1652  1.3459
  191SLPC   H4Y22139   3.191   1.077   7.038  0.3268 -1.1280  1.6520
  191SLPC   C3522140   3.317   1.237   7.118 -0.0116  0.9636 -0.2064
  191SLPC   H5X22141   3.230   1.307   7.116 -2.0625 -1.3996  0.6300
  191SLPC   H5Y22142   3.415   1.280   7.090  0.3113  0.1122 -0.3978
  191SLPC   C3622143   3.317   1.195   7.261  0.5136 -0.3285 -0.6022
  191SLPC   H6X22144   3.366   1.097   7.279  1.6117  0.7752  3.3819
  191SLPC   H6Y22145   3.211   1.171   7.287 -0.3505  3.6077  0.0535
  191SLPC   C3722146   3.357   1.307   7.359  0.5645  0.0521  0.0733
  191SLPC   H7X22147   3.306   1.399   7.322 -0.9967 -0.5517  0.6159
  191SLPC   H7Y22148   3.458   1.351   7.354  0.8100 -0.2832  1.7397
  191SLPC   C3822149   3.310   1.270   7.502 -0.3344  0.2120  0.0605
  191SLPC   H8X22150   3.375   1.185   7.531  0.9196  1.2881  0.4857
  191SLPC   H8Y22151   3.203   1.238   7.503 -0.2440 -0.0895  0.7565
  191SLPC   C3922152   3.308   1.391   7.596 -0.7128  0.1953 -0.0985
  191SLPC   H9X22153   3.217   1.446   7.562 -0.5338 -0.4516 -1.6902
  191SLPC   H9Y22154   3.391   1.462   7.578 -1.3482  0.2062 -3.8001
  191SLPC  C31022155   3.314   1.351   7.744 -0.4030 -0.1854 -0.4346
  191SLPC  H10X22156   3.422   1.329   7.759 -0.3044  0.4622 -0.1363
  191SLPC  H10Y22157   3.250   1.263   7.766 -2.2887  1.6051  1.8842
  191SLPC  C31122158   3.253   1.462   7.827  0.0994  0.0908  0.0256
  191SLPC  H11X22159   3.150   1.485   7.793 -0.4646 -2.0391  0.1375
  191SLPC  H11Y22160   3.315   1.553   7.819  1.3232 -0.7295 -0.0207
  191SLPC  C31222161   3.250   1.422   7.980  0.3078 -0.8125  0.4594
  191SLPC  H12X22162   3.190   1.329   7.993  0.5669 -1.0380  0.0450
  191SLPC  H12Y22163   3.175   1.487   8.030 -1.1477 -2.9530  1.2413
  191SLPC  C31322164   3.387   1.415   8.044 -0.3361 -0.0818 -0.5948
  191SLPC  H13X22165   3.422   1.520   8.058  1.0157 -0.9092  3.4560
  191SLPC  H13Y22166   3.467   1.359   7.989 -0.1980 -1.3416  0.8410
  191SLPC  C31422167   3.384   1.349   8.179  0.5765  0.4334  0.4434
  191SLPC  H14X22168   3.334   1.250   8.186  1.1673 -0.0695 -1.7116
  191SLPC  H14Y22169   3.334   1.419   8.248 -0.2009  1.3344 -0.9800
  191SLPC  C31522170   3.525   1.337   8.247 -0.5285 -0.3466  0.5547
  191SLPC  H15X22171   3.586   1.261   8.192 -1.0140 -0.0994 -0.3479
  191SLPC  H15Y22172   3.502   1.296   8.348 -0.1361 -1.9655  0.0222
  191SLPC  C31622173   3.590   1.476   8.264 -0.6494 -0.6813 -0.3012
  191SLPC  H16X22174   3.510   1.551   8.286  1.2498  0.8478  1.9027
  191SLPC  H16Y22175   3.638   1.512   8.170  3.1215  0.6630  1.9047
  191SLPC  C31722176   3.697   1.476   8.378 -0.0994 -0.6122 -0.3233
  191SLPC  H17X22177   3.778   1.402   8.360  0.6820 -0.2043  1.3245
  191SLPC  H17Y22178   3.634   1.431   8.459 -1.5072 -0.6831 -1.4086
  191SLPC  C31822179   3.743   1.616   8.443 -0.2147 -0.3524 -0.6136
  191SLPC  H18X22180   3.824   1.602   8.518 -0.6238  2.2614  0.4323
  191SLPC  H18Y22181   3.654   1.659   8.495  0.4082  2.2028 -1.5148
  191SLPC  H18Z22182   3.788   1.686   8.370  3.5444 -1.8735  0.0158
  192SLPC     N22183   6.243   0.805   6.165 -0.2852 -0.1406  0.4837
  192SLPC   C1322184   6.339   0.922   6.164  0.8567 -0.5811  0.2493
  192SLPC  H13A22185   6.393   0.946   6.254  0.0227 -1.6314  1.0685
  192SLPC  H13B22186   6.406   0.923   6.080 -0.4820  0.8439 -0.8525
  192SLPC  H13C22187   6.276   1.007   6.144 -0.9869 -1.5075  1.7605
  192SLPC   C1422188   6.312   0.687   6.218 -0.2327 -0.5385 -0.3843
  192SLPC  H14A22189   6.233   0.616   6.238  0.9331 -1.5584  0.7807
  192SLPC  H14B22190   6.374   0.646   6.140 -1.9478 -1.1924 -1.4775
  192SLPC  H14C22191   6.369   0.696   6.309 -0.6447 -0.9508 -0.0817
  192SLPC   C1522192   6.201   0.778   6.027 -0.4487 -0.3301  0.5663
  192SLPC  H15A22193   6.124   0.703   6.028 -1.4103  0.6326  0.6515
  192SLPC  H15B22194   6.170   0.872   5.984 -2.2949  0.0738  2.6197
  192SLPC  H15C22195   6.280   0.738   5.966 -0.2186 -0.9857  1.2743
  192SLPC   C1222196   6.124   0.834   6.246  0.4785 -0.3144 -0.4705
  192SLPC  H12A22197   6.157   0.847   6.348  1.2920 -1.4060 -0.5752
  192SLPC  H12B22198   6.061   0.746   6.248 -0.3526  0.2780 -0.1598
  192SLPC   C1122199   6.031   0.949   6.206 -0.6352  0.3846 -0.3594
  192SLPC  H11A22200   5.932   0.935   6.255 -1.2891 -3.0111 -2.3812
  192SLPC  H11B22201   6.010   0.939   6.097 -1.5988  1.4030 -0.2891
  192SLPC     P22202   6.071   1.156   6.361 -0.0986 -0.1041 -0.3529
  192SLPC   O1322203   6.164   1.267   6.377  0.0537  0.5989 -0.4678
  192SLPC   O1422204   5.926   1.201   6.362 -0.3394  0.2151 -0.3589
  192SLPC   O1222205   6.099   1.080   6.224 -0.0047  0.7626  0.1346
  192SLPC   O1122206   6.090   1.050   6.473  0.2560  0.0605  0.0288
  192SLPC    C122207   6.128   1.094   6.608 -0.0854 -0.3121  0.0563
  192SLPC    HA22208   6.162   1.200   6.616  1.6250 -0.8547  0.5429
  192SLPC    HB22209   6.051   1.068   6.683  0.3602 -0.8204  0.3410
  192SLPC    C222210   6.256   1.020   6.647  0.0313 -0.0405  0.3554
  192SLPC    HS22211   6.318   1.036   6.556 -0.4337  1.9741  0.3308
  192SLPC   O2122212   6.213   0.886   6.666  0.3136  0.3181 -0.0874
  192SLPC   C2122213   6.299   0.794   6.628 -0.5020 -0.6996  0.7918
  192SLPC   O2222214   6.396   0.821   6.559  0.0023  0.4593  0.1332
  192SLPC   C2222215   6.256   0.656   6.674 -0.2697  0.1429 -0.0245
  192SLPC   H2R22216   6.160   0.635   6.621  0.9152 -0.3362 -2.0956
  192SLPC   H2S22217   6.334   0.590   6.630  1.1675  1.6592  0.1815
  192SLPC    C322218   6.330   1.087   6.766 -0.2886  0.7969 -0.1107
  192SLPC    HX22219   6.372   1.185   6.736  0.7507  0.5392  0.4667
  192SLPC    HY22220   6.415   1.020   6.788 -0.5420  0.1061 -1.1735
  192SLPC   O3122221   6.239   1.096   6.876  0.5889 -0.0138 -0.2950
  192SLPC   C3122222   6.200   1.217   6.914  0.6204 -0.4079  0.8619
  192SLPC   O3222223   6.238   1.316   6.854  0.0175  0.1274  0.0698
  192SLPC   C3222224   6.106   1.209   7.030 -0.6186 -0.5201  0.3277
  192SLPC   H2X22225   6.113   1.104   7.065 -1.6413 -0.0467  2.0837
  192SLPC   H2Y22226   6.005   1.232   6.991 -0.7837  0.0830  1.0876
  192SLPC   C2322227   6.239   0.644   6.832 -0.0166  0.0676  0.1062
  192SLPC   H3R22228   6.212   0.538   6.850 -2.4508  0.5860 -0.1366
  192SLPC   H3S22229   6.155   0.711   6.861 -0.5584  0.5012 -2.2555
  192SLPC   C2422230   6.361   0.685   6.914  0.2086  0.2766 -0.2732
  192SLPC   H4R22231   6.339   0.687   7.023 -0.6562  2.7461 -0.4413
  192SLPC   H4S22232   6.390   0.791   6.899 -0.1567  0.3954 -0.1627
  192SLPC   C2522233   6.485   0.605   6.883 -0.6416  0.1434 -0.0013
  192SLPC   H5R22234   6.534   0.657   6.797  0.4900 -3.9057 -2.0473
  192SLPC   H5S22235   6.448   0.504   6.855 -1.8242  1.1945 -2.6669
  192SLPC   C2622236   6.593   0.617   6.991 -0.2334  0.3797 -0.4039
  192SLPC   H6R22237   6.602   0.725   7.016 -0.3314  1.2910 -3.8458
  192SLPC   H6S22238   6.693   0.579   6.961 -0.0698 -0.0082  0.5793
  192SLPC   C2722239   6.564   0.523   7.104  0.3310 -0.1202 -0.1647
  192SLPC   H7R22240   6.569   0.415   7.081 -0.4264 -0.2439  0.2535
  192SLPC   H7S22241   6.460   0.553   7.128  0.7716  0.8568  0.5946
  192SLPC   C2822242   6.655   0.562   7.225  0.0066  0.2398  0.2844
  192SLPC   H8R22243   6.650   0.670   7.253  0.4542  0.2151  0.4721
  192SLPC   H8S22244   6.756   0.528   7.193  0.5697  0.8578  1.3493
  192SLPC   C2922245   6.612   0.472   7.340  0.6006  0.1157 -0.8503
  192SLPC   H9R22246   6.595   0.366   7.318  0.6056 -0.5258  1.8180
  192SLPC  C21022247   6.603   0.508   7.472 -0.8076  0.1631  0.2506
  192SLPC  H10R22248   6.587   0.431   7.548 -1.9348 -2.8177 -2.7894
  192SLPC  C21122249   6.622   0.646   7.531 -0.0103  0.2711 -0.4295
  192SLPC  H11R22250   6.542   0.658   7.607  0.9472 -2.8728  1.2419
  192SLPC  H11S22251   6.593   0.728   7.461  0.2780  2.0572  1.4597
  192SLPC  C21222252   6.760   0.677   7.579 -0.3171  0.2072 -0.2164
  192SLPC  H12R22253   6.835   0.635   7.512 -1.3751 -0.4049 -1.0558
  192SLPC  C21322254   6.798   0.738   7.695 -0.0429  0.7142  0.1303
  192SLPC  H13R22255   6.904   0.750   7.719  0.5003 -3.7124  0.9332
  192SLPC  C21422256   6.716   0.787   7.813  0.1431 -0.4284  0.3522
  192SLPC  H14R22257   6.618   0.735   7.805 -1.0529  1.6979  0.1962
  192SLPC  H14S22258   6.700   0.897   7.805 -0.8755 -0.6521 -1.3442
  192SLPC  C21522259   6.792   0.744   7.944 -0.3651  0.5408  0.0993
  192SLPC  H15R22260   6.761   0.823   8.016  0.0292  1.6983 -0.9598
  192SLPC  H15S22261   6.900   0.761   7.927 -0.0924 -1.8816 -1.0197
  192SLPC  C21622262   6.752   0.609   7.992 -0.3388 -0.2934  0.1003
  192SLPC  H16R22263   6.780   0.531   7.918 -0.4425 -0.0413 -0.2086
  192SLPC  H16S22264   6.643   0.612   8.013  0.1128 -0.7975  2.7687
  192SLPC  C21722265   6.816   0.586   8.131  0.1257  0.9979 -0.5878
  192SLPC  H17R22266   6.926   0.581   8.120  0.0690  1.4671 -1.5543
  192SLPC  H17S22267   6.800   0.675   8.195 -0.5288  0.4990 -0.0378
  192SLPC  C21822268   6.758   0.458   8.210 -0.2525  0.0107 -0.0187
  192SLPC  H18R22269   6.710   0.385   8.141 -0.6672  1.3234 -1.1804
  192SLPC  H18S22270   6.681   0.492   8.282 -0.2458  3.8853 -1.5429
  192SLPC  H18T22271   6.844   0.412   8.264  0.5460  1.5077  0.0484
  192SLPC   C3322272   6.136   1.304   7.150 -0.1372  0.4688  0.3487
  192SLPC   H3X22273   6.125   1.411   7.121  0.9545 -0.0757 -2.3630
  192SLPC   H3Y22274   6.243   1.294   7.177 -0.4114  0.8540  1.6482
  192SLPC   C3422275   6.050   1.267   7.275  0.2092 -0.3658  0.5599
  192SLPC   H4X22276   6.094   1.176   7.323 -0.5363 -0.7231  0.5770
  192SLPC   H4Y22277   5.949   1.245   7.236  1.3651 -1.0775 -2.2824
  192SLPC   C3522278   6.046   1.382   7.364  0.6380 -0.5745 -0.5705
  192SLPC   H5X22279   5.993   1.461   7.308 -0.1978 -0.8698 -0.2152
  192SLPC   H5Y22280   6.148   1.424   7.379 -0.1181  1.1599 -0.0097
  192SLPC   C3622281   5.977   1.353   7.503  0.5307 -0.3630  0.4147
  192SLPC   H6X22282   5.867   1.362   7.490  0.7126  0.6338 -0.6259
  192SLPC   H6Y22283   5.995   1.446   7.562 -2.5827  0.8659 -0.3948
  192SLPC   C3722284   6.026   1.232   7.582 -0.1555 -0.0346  0.3468
  192SLPC   H7X22285   6.136   1.225   7.571 -0.1647  1.1006 -0.6151
  192SLPC   H7Y22286   5.986   1.133   7.549  1.1004 -0.1827 -0.8329
  192SLPC   C3822287   5.978   1.247   7.725 -0.1890  0.1344 -0.8600
  192SLPC   H8X22288   5.867   1.252   7.729 -0.1388  1.0160 -0.3615
  192SLPC   H8Y22289   6.006   1.350   7.758  0.5667  0.0335 -1.1676
  192SLPC   C3922290   6.022   1.148   7.829 -0.5520  0.1115  0.2266
  192SLPC   H9X22291   6.131   1.136   7.812 -0.5461 -1.6546  1.2751
  192SLPC   H9Y22292   5.981   1.047   7.809  2.3827 -0.9439 -0.9824
  192SLPC  C31022293   6.001   1.184   7.976 -0.1890  0.0878  0.2709
  192SLPC  H10X22294   6.066   1.273   7.991 -1.0560  0.6844  0.5883
  192SLPC  H10Y22295   6.038   1.104   8.043 -1.6870 -1.5532 -0.7786
  192SLPC  C31122296   5.851   1.209   8.018 -0.1920 -0.4901 -0.3621
  192SLPC  H11X22297   5.789   1.120   7.994 -2.2957  1.4880 -2.9553
  192SLPC  H11Y22298   5.818   1.294   7.953  1.2759  0.0145 -0.4729
  192SLPC  C31222299   5.832   1.258   8.165  0.4372 -0.0973 -0.3112
  192SLPC  H12X22300   5.892   1.351   8.168 -0.4842  0.6040 -1.9830
  192SLPC  H12Y22301   5.865   1.174   8.230 -2.3367  0.1623  1.6328
  192SLPC  C31322302   5.685   1.281   8.218 -0.1297  0.4948  0.9631
  192SLPC  H13X22303   5.639   1.324   8.127  1.3328 -1.2220 -0.6736
  192SLPC  H13Y22304   5.693   1.353   8.302  2.6541  0.5703  0.7218
  192SLPC  C31422305   5.627   1.143   8.258  0.1858 -0.3840  0.3557
  192SLPC  H14X22306   5.660   1.119   8.362 -2.0685  0.3415  1.2932
  192SLPC  H14Y22307   5.664   1.064   8.190  1.2697 -0.4755  1.0260
  192SLPC  C31522308   5.477   1.140   8.257 -0.3328 -0.4082  0.0667
  192SLPC  H15X22309   5.431   1.179   8.164  0.6970  1.7041  0.3816
  192SLPC  H15Y22310   5.441   1.216   8.329 -0.3688 -0.7999  0.4658
  192SLPC  C31622311   5.417   1.010   8.305  0.6414  0.5998  0.0162
  192SLPC  H16X22312   5.433   0.998   8.414  1.6290  0.7269 -0.1052
  192SLPC  H16Y22313   5.473   0.929   8.254  0.7146 -0.5536  1.8458
  192SLPC  C31722314   5.264   0.998   8.277 -0.3026  0.5935  0.1674
  192SLPC  H17X22315   5.221   0.907   8.323 -0.7136  0.9715  0.5412
  192SLPC  H17Y22316   5.257   0.993   8.166  0.1867 -0.5323  0.1777
  192SLPC  C31822317   5.185   1.122   8.324 -1.0663 -0.3253  0.5962
  192SLPC  H18X22318   5.077   1.100   8.310 -0.8188 -1.8734  0.8513
  192SLPC  H18Y22319   5.217   1.215   8.272 -0.4021 -0.3512  0.9512
  192SLPC  H18Z22320   5.200   1.132   8.433 -1.3699  0.5524  0.5627
  193SOD    SOD22321   4.092   5.987   1.346 -0.0542  0.0538  0.3558
  194SOD    SOD22322   4.551   0.701  11.191  0.6437  0.5699 -0.6256
  195SOD    SOD22323   3.265   1.443   5.551 -0.1418  0.0719  0.4170
  196SOD    SOD22324   1.382   4.590   3.064  0.1240 -0.0953 -0.4818
  197SOD    SOD22325   0.147   2.108   5.509  0.1448  0.6020  0.2918
  198SOD    SOD22326   6.089   3.204  14.833  0.3874 -0.2139 -0.2292
  199SOD    SOD22327   4.610   3.665   3.869 -0.2113 -0.1778 -0.2128
  200SOD    SOD22328   0.879   5.353  15.371  0.6315 -0.2320  0.1236
  201SOD    SOD22329   2.910   5.139  16.798  0.2597 -0.2672 -0.1198
  202SOD    SOD22330   6.610   2.623   1.131  0.1529 -0.0176  0.8049
  203SOD    SOD22331   6.257   5.021   5.328  0.1427  0.1017 -0.0228
  204SOD    SOD22332   1.607   0.524  14.048  0.0993 -0.0462 -0.2157
  205SOD    SOD22333   6.327   0.022   3.688  0.0069  0.0629  0.5681
  206SOD    SOD22334   4.512   4.734  14.208 -0.3004  0.2806  0.4949
  207SOD    SOD22335   4.625   0.385   0.132  0.0887 -0.0410 -0.7097
  208SOD    SOD22336   1.249   5.695   4.984 -0.0922 -0.8895  0.0244
  209SOD    SOD22337   6.221   2.604  12.513  0.0499  0.1734 -0.1341
  210SOD    SOD22338   1.051   3.413  11.767 -0.5111 -0.4462  0.1112
  211SOD    SOD22339   6.425   1.570   3.986 -0.1829  0.1204 -0.4266
  212SOD    SOD22340   0.102   0.812   4.464 -0.3881  0.3219 -0.0354
  213SOD    SOD22341   6.445   0.073  11.891 -0.0635 -0.0217 -0.0697
  214SOD    SOD22342   4.108   6.412   3.682  0.1606 -0.8391 -0.1658
  215SOD    SOD22343   0.006   1.619   1.294 -0.2514  0.1026  0.0963
  216SOD    SOD22344   3.205   1.342  14.081  0.0787  0.1233 -0.1386
  217SOD    SOD22345   5.520   6.454  11.728  0.1744  0.2411 -0.6538
  218SOD    SOD22346   1.260   4.862  13.470 -0.3745 -0.4540  0.0836
  219SOD    SOD22347   0.804   4.998  17.105 -0.1298  0.5276 -0.0929
  220SOD    SOD22348   4.668   6.597  11.892  0.2470 -0.5273 -0.3066
  221SOD    SOD22349   3.823   4.758  12.658 -0.3532 -0.2338 -0.1287
  222SOD    SOD22350   4.227   2.315  11.145  0.4353 -0.2367 -0.8431
  223SOD    SOD22351   3.204   3.227  16.016 -0.2444  0.3121  0.5375
  224SOD    SOD22352   0.108   3.887   4.345  0.0704 -0.0943  0.0734
  225SOD    SOD22353   3.432   0.369  10.930  0.1678 -0.3353  0.2436
  226SOD    SOD22354   3.084   6.552   0.852 -0.1871 -0.6652  0.0335
  227SOD    SOD22355   4.557   5.729  14.756  0.0651 -0.2016 -0.1038
  228SOD    SOD22356   3.784   2.838   5.262  0.0318 -0.4386  0.4213
  229SOD    SOD22357   2.573   4.296   2.760 -0.4824 -0.0561 -0.1801
  230SOD    SOD22358   3.606   5.479  12.106 -0.4069 -0.2294  0.0676
  231SOD    SOD22359   1.026   4.068   5.992 -0.4198  0.0849 -0.5493
  232SOD    SOD22360   2.321   6.235  16.541  0.0964  0.0040 -0.2789
  233SOD    SOD22361   6.154   2.786   5.519 -0.3486 -0.3743  0.3979
  234SOD    SOD22362   6.504   0.995  12.203  0.4361  0.0069  0.4978
  235SOD    SOD22363   2.056   1.892   0.575  0.1535  0.1478  0.0899
  236SOD    SOD22364   0.185   5.288   3.858  0.3395 -0.0036  0.3242
  237SOD    SOD22365   2.811   1.762  14.729  0.0585  0.3322  0.3154
  238SOD    SOD22366   6.728   4.853  15.873  0.0129 -0.3102  0.2445
  239SOD    SOD22367   6.578   5.649  10.590 -0.2799 -0.1619 -0.5484
  240SOD    SOD22368   2.840   3.297  11.375 -0.3641 -0.2988  0.2608
  241SOD    SOD22369   5.726   2.207  14.749 -0.6014 -0.4518  0.3176
  242SOD    SOD22370   0.092   5.885  14.821  0.1396  0.1727 -0.2353
  243SOD    SOD22371   2.787   5.259  11.161  0.4017 -0.3060 -0.3161
  244SOD    SOD22372   5.124   2.507  16.323  0.3138  0.3511 -0.5075
  245SOD    SOD22373   2.520   6.766   2.027  0.3277  0.3617 -0.3343
  246SOD    SOD22374   1.163   0.901   2.319  0.4513 -0.1110 -0.1394
  247SOD    SOD22375   2.994   2.786   4.487  0.1964 -0.1440  0.1208
  248SOD    SOD22376   3.470   6.755  14.305 -0.2118 -0.2971  0.4804
  249SOD    SOD22377   1.120   6.619   6.178  0.1038  0.2808 -0.1343
  250SOD    SOD22378   2.314   2.084   2.112 -0.4621  0.5141  0.2870
  251SOD    SOD22379   5.586   5.929  16.350 -0.2124  0.0744 -0.6040
  252SOD    SOD22380   2.005   4.086  13.727 -0.4301 -0.2648  0.0670
  253SOD    SOD22381   3.508   3.444   4.189  0.1127 -0.0798 -0.1014
  254SOD    SOD22382   6.324   0.189  11.297 -0.6483  0.7065  0.0045
  255SOD    SOD22383   1.323   1.862  17.134 -0.2755 -0.5597  0.3318
  256SOD    SOD22384   0.242   4.073  13.877  0.1050  0.4323  0.4307
  257SOD    SOD22385   2.345   5.097   5.222 -0.2236 -0.1437 -0.4314
  258SOD    SOD22386   5.552   3.258   1.499  0.6833  0.3789 -0.4765
  259SOD    SOD22387   2.624   3.142   3.567  0.0485 -0.4458  0.2418
  260SOD    SOD22388   3.425   4.494   6.389 -0.2976 -0.5789  0.0413
  261SOD    SOD22389   0.322   1.193   2.401  0.4737  0.1638  0.3464
  262SOD    SOD22390   5.094   6.040  15.217  0.2864 -0.0994 -0.2860
  263SOD    SOD22391   5.370   1.867  16.400  0.2478 -0.3368  0.0364
  264SOD    SOD22392   2.181   0.098   6.048 -0.4293 -0.2927 -0.2242
  265SOD    SOD22393   3.583   0.158   5.045  0.0121 -0.0416  0.0144
  266CLA    CLA22394   5.679   5.874  17.093 -0.2736 -0.3499  0.5962
  267CLA    CLA22395   3.855   1.472   1.497 -0.2489 -0.0863 -0.1594
  268CLA    CLA22396   0.402   5.275  13.708 -0.6650 -0.0637  0.1414
  269CLA    CLA22397   1.682   6.713   0.687 -0.1650  0.0192 -0.3028
  270CLA    CLA22398   5.641   0.257   1.402 -0.3618 -0.4500  0.2970
  271CLA    CLA22399   3.547   5.943   3.894 -0.1257 -0.3220 -0.1348
  272CLA    CLA22400   0.179   2.483  11.770  0.0087  0.0776 -0.1773
  273CLA    CLA22401   6.057   3.529  11.748 -0.1010 -0.3104 -0.1791
  274CLA    CLA22402   4.130   5.343  13.305  0.0047 -0.1370 -0.3354
  275CLA    CLA22403   0.460   4.343   3.649 -0.3790  0.0903  0.2414
  276CLA    CLA22404   5.073   5.557   3.777  0.3922 -0.0613  0.0307
  277CLA    CLA22405   3.267   4.817  13.568 -0.4834 -0.3757  0.2943
  278CLA    CLA22406   6.263   5.548  14.357 -0.2187  0.0709 -0.4382
  279CLA    CLA22407   4.743   5.790  14.959 -0.1348  0.3027  0.4103
  280CLA    CLA22408   5.411   1.627   4.428  0.1341  0.6420 -0.2340
  281CLA    CLA22409   0.233   0.102   3.975 -0.1124  0.0445 -0.0627
  282CLA    CLA22410   4.851   4.289  13.489  0.0376  0.3171  0.0343
  283CLA    CLA22411   2.649   3.786  15.954  0.2357 -0.1025  0.1222
  284CLA    CLA22412   4.241   5.853   0.937 -0.0764 -0.1682 -0.0250
  285CLA    CLA22413   2.808   6.409   4.341 -0.0127  0.4320  0.0672
  286CLA    CLA22414   4.366   3.523   3.546  0.0846 -0.1244  0.0515
  287CLA    CLA22415   1.947   1.286   3.747  0.4465 -0.1335  0.1373
  288CLA    CLA22416   4.758   3.524  14.603 -0.0549  0.0142  0.0989
  289CLA    CLA22417   1.661   4.639   3.436 -0.1238  0.2645 -0.1430
  290CLA    CLA22418   3.531   4.770  11.189 -0.0474 -0.2779  0.0969
  291CLA    CLA22419   0.703   2.403   4.301 -0.0299  0.3571  0.3019
  292CLA    CLA22420   6.051   6.440   2.017 -0.2151 -0.2822 -0.0043
  293CLA    CLA22421   0.278   1.508  13.973 -0.3143  0.4393  0.5600
  294CLA    CLA22422   5.992   0.964  12.179  0.3542 -0.1262  0.2686
  295CLA    CLA22423   6.467   6.733   5.631  0.1147 -0.2574  0.2823
  296CLA    CLA22424   2.619   1.421  15.299  0.0646 -0.0222  0.3982
  297CLA    CLA22425   0.703   1.740  16.663  0.1572 -0.0938 -0.0472
  298CLA    CLA22426   5.035   0.844   0.449 -0.0875  0.0437 -0.5051
  299CLA    CLA22427   3.904   3.845   0.088 -0.2815 -0.0649  0.7190
  300CLA    CLA22428   3.082   4.021   3.731  0.5036  0.4639 -0.1050
  301CLA    CLA22429   3.698   3.629  14.699 -0.3216 -0.1220  0.5054
  302CLA    CLA22430   1.432   2.952   1.940  0.0167 -0.0894  0.1960
  303CLA    CLA22431   0.983   3.708  13.691  0.2180 -0.1298  0.2118
  304CLA    CLA22432   5.895   3.472   2.600  0.1641  0.1621  0.2268
  305CLA    CLA22433   4.239   0.663  16.068  0.0334 -0.0735  0.1941
  306CLA    CLA22434   1.816   4.410   2.123  0.2357  0.3918 -0.1141
  307CLA    CLA22435   3.680   5.158   5.705  0.2923 -0.3090  0.3845
  308CLA    CLA22436   4.291   6.740  12.255 -0.3866  0.2722 -0.4680
  309CLA    CLA22437   3.388   2.029  14.263 -0.1853 -0.1042  0.2499
  310CLA    CLA22438   5.061   5.669   2.993  0.3188 -0.0895 -0.1202
  311CLA    CLA22439   2.838   3.979   2.370 -0.3323 -0.2208 -0.0937
  312CLA    CLA22440   0.227   1.314  14.636  0.5400  0.0014 -0.1074
  313CLA    CLA22441   1.865   2.352   2.518  0.0661 -0.1733  0.1869
  314CLA    CLA22442   2.211   0.941  15.851  0.3531 -0.3882  0.4195
  315CLA    CLA22443   3.819   1.869  15.502  0.2794  0.1203 -0.3096
  316CLA    CLA22444   0.980   6.668   2.893  0.5483 -0.4446  0.1157
  317CLA    CLA22445   3.758   1.626   2.873  0.0747  0.0955  0.2442
  318CLA    CLA22446   4.055   1.274  12.222  0.1547 -0.4429  0.1616
  319TIP3   OH222447   3.795   6.191  11.425  0.1048 -0.3702 -0.0188
  319TIP3    H122448   3.770   6.269  11.375  0.5916  0.6558  1.2847
  319TIP3    H222449   3.785   6.119  11.363  1.2649  0.9043 -1.7929
  320TIP3   OH222450   0.455   4.622   5.224  0.1103  0.4562  0.3215
  320TIP3    H122451   0.436   4.684   5.295 -1.7061 -0.7820  1.0030
  320TIP3    H222452   0.492   4.676   5.154 -1.8846  2.4342  0.6744
  321TIP3   OH222453   2.614   0.642   3.727  0.4532 -0.4609  0.1023
  321TIP3    H122454   2.655   0.590   3.796  1.8795  0.5787  0.0862
  321TIP3    H222455   2.680   0.649   3.659 -0.0662  0.5187 -0.3284
  322TIP3   OH222456   6.514   3.625  13.924 -0.5201  0.7243 -0.1573
  322TIP3    H122457   6.440   3.634  13.863  0.0038 -0.5610 -1.0317
  322TIP3    H222458   6.550   3.714  13.932 -1.0929  1.0521 -1.1068
  323TIP3   OH222459   2.540   6.031   6.004 -0.3411 -0.0268 -0.7191
  323TIP3    H122460   2.610   6.082   6.045 -1.6492  0.9868  0.3652
  323TIP3    H222461   2.560   5.940   6.025 -0.7720  0.4234  2.0163
  324TIP3   OH222462   3.740   2.945  14.266 -0.3274 -0.0661 -0.3942
  324TIP3    H122463   3.744   2.854  14.298 -0.4282 -0.1635 -0.6520
  324TIP3    H222464   3.706   2.937  14.176  2.9431 -0.0756 -1.7576
  325TIP3   OH222465   1.690   6.156  15.893 -0.6365 -0.5399 -0.2320
  325TIP3    H122466   1.686   6.212  15.970 -1.6100 -1.0291  0.0875
  325TIP3    H222467   1.615   6.096  15.902 -0.5529 -0.8470 -1.3627
  326TIP3   OH222468   6.517   4.806  13.409  0.7994  0.2252  0.0182
  326TIP3    H122469   6.545   4.842  13.324 -0.3523  0.3615 -0.3229
  326TIP3    H222470   6.504   4.883  13.464 -2.9340  0.5926 -1.0966
  327TIP3   OH222471   5.373   2.838  16.007  0.3180  0.8940 -0.5946
  327TIP3    H122472   5.443   2.854  15.943  2.6710  1.2556  1.9171
  327TIP3    H222473   5.356   2.923  16.046 -0.4500  0.5325 -0.1246
  328TIP3   OH222474   3.926   3.112  14.349  1.1317 -0.0604 -0.0173
  328TIP3    H122475   3.848   3.063  14.323  0.9197  1.1561 -1.8455
  328TIP3    H222476   3.994   3.082  14.289  1.2509  1.1562 -0.5100
  329TIP3   OH222477   3.396   6.040  12.583 -0.5000  0.2370  0.3054
  329TIP3    H122478   3.301   6.044  12.593 -0.5336 -1.0700  0.6733
  329TIP3    H222479   3.415   6.099  12.511 -1.7834 -0.7554 -0.9004
  330TIP3   OH222480   5.787   0.591   0.858 -0.8314  0.0270 -0.5331
  330TIP3    H122481   5.791   0.671   0.910 -2.5614  0.2280 -0.6608
  330TIP3    H222482   5.703   0.551   0.881 -0.7352 -0.9070 -1.6861
  331TIP3   OH222483   1.958   2.940  12.748  0.2247  0.0358  0.5146
  331TIP3    H122484   1.976   2.955  12.841  0.2187  0.9327  0.3834
  331TIP3    H222485   1.892   3.006  12.726 -1.5431 -1.6769  0.4250
  332TIP3   OH222486   0.005   3.265   2.632 -0.0977 -0.5236 -0.5566
  332TIP3    H122487  -0.037   3.306   2.556  0.3192 -0.7952 -0.9424
  332TIP3    H222488   0.033   3.338   2.687 -0.2698 -0.3173 -0.7425
  333TIP3   OH222489   4.415   2.923   0.124  0.0876  0.2306 -0.8750
  333TIP3    H122490   4.491   2.898   0.070  0.9808 -0.0748  0.4840
  333TIP3    H222491   4.343   2.930   0.061  1.5038  1.8696 -2.4149
  334TIP3   OH222492   3.073   4.143   0.345 -0.1697  0.0174  0.1904
  334TIP3    H122493   3.161   4.125   0.312  0.6356  1.6506  1.3002
  334TIP3    H222494   3.083   4.149   0.440 -1.5151  0.0371  0.3521
  335TIP3   OH222495   4.041   0.636  15.835  0.3411  0.0815  0.7168
  335TIP3    H122496   3.958   0.644  15.883  0.7794 -0.0697  1.5264
  335TIP3    H222497   4.106   0.623  15.904  0.6413 -3.2124 -0.0680
  336TIP3   OH222498   0.574   2.415   0.968  0.8904 -0.4893 -0.7077
  336TIP3    H122499   0.507   2.425   0.900  0.5086  0.9491 -0.1661
  336TIP3    H222500   0.555   2.485   1.031  2.8918 -0.0495 -0.5219
  337TIP3   OH222501   5.504   1.690   4.737 -0.2525  0.1775 -0.0088
  337TIP3    H122502   5.471   1.666   4.651 -2.8391  1.4788  0.5016
  337TIP3    H222503   5.540   1.778   4.725  2.1280 -0.7543 -0.2910
  338TIP3   OH222504   3.950   1.284  14.453  0.0752 -0.1089  0.1114
  338TIP3    H122505   3.854   1.281  14.456  0.0797 -0.2823  2.4527
  338TIP3    H222506   3.971   1.377  14.460  0.0502 -0.1401  0.7032
  339TIP3   OH222507   0.773   6.003   5.597  0.1284  0.0587  0.7902
  339TIP3    H122508   0.746   6.095   5.604  0.4850  0.0352  3.2119
  339TIP3    H222509   0.860   6.007   5.556  0.2366  0.8211  1.0727
  340TIP3   OH222510   4.911   6.679   4.066 -0.5503  0.1129  0.4282
  340TIP3    H122511   5.001   6.658   4.091  0.4457  1.9275 -1.2967
  340TIP3    H222512   4.875   6.726   4.140  0.9972  2.0057  0.0579
  341TIP3   OH222513   0.605   5.868   1.683  0.3899  0.5967  0.1077
  341TIP3    H122514   0.681   5.860   1.625  0.3449 -0.0510  0.1218
  341TIP3    H222515   0.610   5.956   1.719  2.8928 -0.4085  2.5319
  342TIP3   OH222516   2.068   6.068  13.231 -0.4732  0.4761  0.1040
  342TIP3    H122517   2.128   6.073  13.157 -0.5155 -0.7836 -0.0365
  342TIP3    H222518   2.109   6.121  13.299  0.3483  0.3696 -0.2952
  343TIP3   OH222519   4.051   0.793   3.945  0.3285  0.0038  0.3605
  343TIP3    H122520   4.140   0.773   3.976  0.1767 -0.3236  0.5941
  343TIP3    H222521   4.030   0.721   3.885  1.4158  1.6935 -2.1930
  344TIP3   OH222522   6.613   0.704  15.868 -0.2416  0.1391  0.6678
  344TIP3    H122523   6.561   0.705  15.788 -1.9526  0.0661  1.7295
  344TIP3    H222524   6.703   0.711  15.838 -0.8295 -0.0131 -1.2637
  345TIP3   OH222525   1.864   5.315  10.854 -0.5797  0.1345 -0.3307
  345TIP3    H122526   1.928   5.248  10.829  2.2715  2.7924 -0.8076
  345TIP3    H222527   1.851   5.366  10.774 -0.6013  1.6712  0.6062
  346TIP3   OH222528   5.630   4.711  11.219  0.1760 -0.7140 -0.4107
  346TIP3    H122529   5.619   4.697  11.313  1.2373 -1.7403 -0.4120
  346TIP3    H222530   5.581   4.791  11.200  0.2078 -0.3225  1.0638
  347TIP3   OH222531   3.460   5.649  12.078  0.0528  0.5469 -0.0779
  347TIP3    H122532   3.451   5.699  12.160  0.8538 -1.5812  1.4013
  347TIP3    H222533   3.370   5.638  12.047 -0.3417  0.8053  0.9148
  348TIP3   OH222534   0.001   5.682   3.505  0.2587 -0.1406 -0.8472
  348TIP3    H122535  -0.050   5.657   3.583 -0.3689  0.0891 -1.1754
  348TIP3    H222536  -0.011   5.777   3.498 -1.5306 -0.4242 -2.4720
  349TIP3   OH222537   4.565   1.097   1.322 -0.3357 -0.8031  0.4001
  349TIP3    H122538   4.617   1.031   1.276 -0.1348 -1.1801  1.1613
  349TIP3    H222539   4.625   1.133   1.387 -0.5105 -0.0151  0.1335
  350TIP3   OH222540   5.089   4.560  14.488 -0.0167  0.2145  0.0490
  350TIP3    H122541   5.016   4.536  14.431  1.2936 -1.5565 -1.0102
  350TIP3    H222542   5.102   4.483  14.543  0.0993  1.1006  1.2959
  351TIP3   OH222543   2.123   5.877   2.437  0.4712  0.2875 -0.6418
  351TIP3    H122544   2.038   5.854   2.402  1.1631 -1.7607 -1.1397
  351TIP3    H222545   2.104   5.929   2.515 -1.1925  0.3055 -1.0253
  352TIP3   OH222546   6.111   5.966  15.090  0.3288  0.0984 -0.4008
  352TIP3    H122547   6.141   5.984  15.179 -0.3724  0.0260 -0.1462
  352TIP3    H222548   6.033   6.021  15.079 -0.3189 -0.8176 -0.5239
  353TIP3   OH222549   4.161   3.328   0.777 -0.4374  0.1501 -0.0563
  353TIP3    H122550   4.161   3.272   0.854 -0.6094 -0.3063 -0.3822
  353TIP3    H222551   4.119   3.409   0.806  0.8401  0.5568  0.7262
  354TIP3   OH222552   5.060   5.888   2.014 -0.6504  0.0738  0.1619
  354TIP3    H122553   5.026   5.821   2.073 -0.2529  0.9909  1.4769
  354TIP3    H222554   5.139   5.921   2.057  0.2184  0.0883 -1.3723
  355TIP3   OH222555   5.153   5.420   1.413 -0.1993 -0.1530 -0.5059
  355TIP3    H122556   5.102   5.487   1.368  1.2646  1.1826 -0.2575
  355TIP3    H222557   5.167   5.456   1.501 -2.6441 -2.5060  1.0375
  356TIP3   OH222558   3.764   5.576   4.911 -0.3013 -0.1042 -0.0029
  356TIP3    H122559   3.781   5.504   4.971 -1.2255  0.1722  0.6207
  356TIP3    H222560   3.824   5.562   4.838  0.9038 -0.3970  1.0210
  357TIP3   OH222561   4.771   1.583  13.247 -0.0488  0.1741  0.1076
  357TIP3    H122562   4.719   1.641  13.192 -0.2011 -2.5769 -2.9340
  357TIP3    H222563   4.862   1.610  13.231 -0.1922  1.3236  1.0178
  358TIP3   OH222564   6.526   4.015  12.056 -0.2948  0.2109 -0.1488
  358TIP3    H122565   6.433   4.031  12.071 -0.5258 -0.3310 -0.9602
  358TIP3    H222566   6.564   4.007  12.144 -1.2913 -1.1698  0.1887
  359TIP3   OH222567   0.584   0.745  15.431  0.4670 -0.3296 -0.2919
  359TIP3    H122568   0.502   0.747  15.381  0.2324  0.6819  0.1017
  359TIP3    H222569   0.644   0.693  15.377 -0.3307 -0.8049 -0.7406
  360TIP3   OH222570   1.960   3.805  16.461 -0.0336 -0.0924 -0.2810
  360TIP3    H122571   1.994   3.802  16.550  1.3299 -0.3482 -0.7819
  360TIP3    H222572   1.868   3.826  16.471  0.4682  1.7219  1.0978
  361TIP3   OH222573   0.077   6.490  13.611 -0.4148  0.1297  0.2326
  361TIP3    H122574  -0.016   6.510  13.601 -0.1830  1.7661  1.0990
  361TIP3    H222575   0.089   6.408  13.562 -1.8496  1.0596 -1.7813
  362TIP3   OH222576   1.034   4.888  17.071  0.0944  0.5098  0.0814
  362TIP3    H122577   1.088   4.836  17.010 -0.7319 -2.2298  1.5164
  362TIP3    H222578   1.028   4.834  17.149 -1.0247  2.7827  1.6702
  363TIP3   OH222579   1.148   1.917   6.443 -0.1123  0.2559 -0.1532
  363TIP3    H122580   1.082   1.862   6.485  1.6854 -0.4183  1.9642
  363TIP3    H222581   1.224   1.859   6.432  1.1060  1.7449  0.1517
  364TIP3   OH222582   6.232   2.097   2.292 -0.1211 -0.0910 -0.1412
  364TIP3    H122583   6.225   2.166   2.357 -0.0219  0.6435 -0.8953
  364TIP3    H222584   6.179   2.128   2.218 -1.5565 -1.6156  0.1768
  365TIP3   OH222585   1.862   3.117   2.215 -0.1175  0.0755 -0.2332
  365TIP3    H122586   1.845   3.037   2.165 -0.6076 -0.4971  0.8105
  365TIP3    H222587   1.955   3.112   2.236 -0.1892 -0.3327  0.0038
  366TIP3   OH222588   1.103   6.596   6.616  0.0054 -0.5311  0.3080
  366TIP3    H122589   1.025   6.630   6.572  1.0775 -0.6822 -1.8723
  366TIP3    H222590   1.155   6.558   6.545  0.7863 -2.9987  2.0449
  367TIP3   OH222591   1.212   1.280   0.354  0.3102  0.6033  1.0398
  367TIP3    H122592   1.163   1.309   0.431  0.5109 -0.1508  1.4679
  367TIP3    H222593   1.160   1.208   0.318  1.4297 -0.7537  1.9628
  368TIP3   OH222594   3.889   0.633   3.607  0.7356  0.5081  0.1189
  368TIP3    H122595   3.820   0.628   3.674  1.2748 -1.1724  0.5891
  368TIP3    H222596   3.841   0.641   3.525 -0.0997 -1.4164  0.3644
  369TIP3   OH222597   3.231   3.375  15.832 -0.2813 -0.1269 -0.6805
  369TIP3    H122598   3.203   3.373  15.740  0.1491 -0.3336 -0.8076
  369TIP3    H222599   3.248   3.468  15.850  1.3498 -0.2615 -1.3397
  370TIP3   OH222600   2.619   2.779  13.979  0.2757  0.2434 -0.4067
  370TIP3    H122601   2.613   2.830  14.060  2.6579 -1.2505  0.8186
  370TIP3    H222602   2.704   2.804  13.942  0.4558 -1.1450 -0.9699
  371TIP3   OH222603   5.462   1.075  12.385  0.9017 -0.2415  0.2436
  371TIP3    H122604   5.405   1.053  12.310 -0.3900 -1.3741  1.5006
  371TIP3    H222605   5.548   1.091  12.346 -0.0166  0.4387 -1.6178
  372TIP3   OH222606   4.864   1.812   0.968 -0.1405 -0.0058  0.3678
  372TIP3    H122607   4.820   1.784   1.048 -0.7521  0.5685  0.2472
  372TIP3    H222608   4.793   1.842   0.911  0.3809  0.6890  0.0607
  373TIP3   OH222609   0.405   5.319   3.925  0.3795  0.1440  0.1659
  373TIP3    H122610   0.461   5.266   3.982 -1.1428  1.2909  2.9259
  373TIP3    H222611   0.441   5.407   3.930  1.8196 -0.1058 -2.9650
  374TIP3   OH222612   5.408   5.993   3.058 -0.1478 -0.0807 -0.0497
  374TIP3    H122613   5.346   5.923   3.037 -1.0940  0.7521 -0.0909
  374TIP3    H222614   5.361   6.074   3.036  0.3641  0.6406  1.4253
  375TIP3   OH222615   0.011   2.448  12.975  0.1296  0.2362 -0.1282
  375TIP3    H122616   0.019   2.359  13.007  0.6081  0.5037  0.5145
  375TIP3    H222617  -0.074   2.478  13.006  1.2166  1.0352  2.3579
  376TIP3   OH222618   3.116   1.708   3.558  0.6468  0.0481  0.0723
  376TIP3    H122619   3.032   1.667   3.539  0.3835  0.6570 -0.1129
  376TIP3    H222620   3.178   1.636   3.562  0.4534 -0.2678 -1.6852
  377TIP3   OH222621   0.610   0.647  14.640 -0.0128  0.0631  0.5979
  377TIP3    H122622   0.594   0.741  14.649 -1.2267  0.0357 -0.8616
  377TIP3    H222623   0.525   0.606  14.652  0.3441 -0.7793  0.3563
  378TIP3   OH222624   1.850   2.369  15.902 -0.0994  0.0181 -0.4588
  378TIP3    H122625   1.796   2.424  15.845 -0.8567 -0.3469 -0.1091
  378TIP3    H222626   1.930   2.354  15.851  0.4018  1.9233 -0.3286
  379TIP3   OH222627   2.154   0.524   1.581  0.1524 -0.3432  0.1205
  379TIP3    H122628   2.146   0.612   1.618 -0.8230 -0.7495  0.9344
  379TIP3    H222629   2.072   0.511   1.534  0.3983 -0.7331 -0.2036
  380TIP3   OH222630   4.346   0.459  13.244 -0.3118 -0.0102 -0.7659
  380TIP3    H122631   4.292   0.522  13.197 -0.3203  0.5264 -0.0518
  380TIP3    H222632   4.336   0.483  13.336 -1.9299 -2.2839 -0.2697
  381TIP3   OH222633   4.613   2.368   5.276 -0.0424  0.1790  0.3547
  381TIP3    H122634   4.608   2.308   5.350 -1.8956 -0.5212 -0.2747
  381TIP3    H222635   4.589   2.315   5.200  0.2524  1.2548 -0.5331
  382TIP3   OH222636   6.425   6.123  14.797 -0.3305 -0.0415  0.0650
  382TIP3    H122637   6.352   6.155  14.850 -1.4390 -1.4288 -0.5460
  382TIP3    H222638   6.466   6.202  14.762 -0.5361  0.8265  1.6938
  383TIP3   OH222639   2.952   1.087  11.155 -0.4114  0.3439  0.2246
  383TIP3    H122640   2.979   0.996  11.164  0.0999  0.2713 -1.6501
  383TIP3    H222641   3.033   1.136  11.143 -0.5424  1.3275  2.8459
  384TIP3   OH222642   0.974   1.802   6.630 -0.3200 -0.0713 -0.4660
  384TIP3    H122643   0.893   1.751   6.623 -0.8974  0.8619 -0.7138
  384TIP3    H222644   0.996   1.800   6.723 -0.8552  0.0198 -0.3363
  385TIP3   OH222645   6.726   0.249  14.865  0.1225  0.1299 -0.1719
  385TIP3    H122646   6.649   0.304  14.879  0.6602  0.8265  0.1256
  385TIP3    H222647   6.747   0.260  14.772 -1.5396 -1.9701 -0.8934
  386TIP3   OH222648   2.645   6.095  11.774  0.2827 -0.2042  0.0662
  386TIP3    H122649   2.638   6.006  11.739 -2.3086 -1.1457  2.5708
  386TIP3    H222650   2.598   6.149  11.711 -0.8053 -1.1552  0.0194
  387TIP3   OH222651   3.316   1.474   2.884 -0.6247 -0.1866 -0.3409
  387TIP3    H122652   3.369   1.503   2.810  3.8070  0.8084  2.8301
  387TIP3    H222653   3.283   1.555   2.923  0.0043 -0.3954  0.6625
  388TIP3   OH222654   0.763   2.976   5.744 -0.3929 -0.6692 -0.3867
  388TIP3    H122655   0.700   2.922   5.791  0.3840 -0.8216  0.5332
  388TIP3    H222656   0.807   2.916   5.685 -0.2943 -0.8200 -0.1635
  389TIP3   OH222657   5.026   6.424  11.371  0.3688  0.0048 -0.1153
  389TIP3    H122658   5.091   6.376  11.423  0.2151 -0.3512 -0.2537
  389TIP3    H222659   5.078   6.485  11.318  0.5153  0.5453  0.6292
  390TIP3   OH222660   1.576   5.749  13.256 -0.0564 -0.1636 -0.0795
  390TIP3    H122661   1.641   5.716  13.193  2.0706  1.2150  1.2820
  390TIP3    H222662   1.579   5.844  13.246 -0.9570 -0.0204  0.8838
  391TIP3   OH222663   4.973   5.232   4.870  0.3180  0.2486  0.4028
  391TIP3    H122664   4.942   5.266   4.954 -0.3120  1.3523 -0.2613
  391TIP3    H222665   4.894   5.200   4.826  0.2395  1.9428 -0.7780
  392TIP3   OH222666   2.481   6.532  13.595 -0.1460  0.1548  0.6055
  392TIP3    H122667   2.510   6.462  13.653 -1.4481 -1.7212 -0.8720
  392TIP3    H222668   2.399   6.563  13.633 -0.2103 -0.0012  0.5943
  393TIP3   OH222669   3.804   2.358  17.060 -0.2670  0.7249  0.0362
  393TIP3    H122670   3.800   2.443  17.105 -1.4714  0.7218 -0.0270
  393TIP3    H222671   3.853   2.301  17.120 -0.2524  1.2159  0.5003
  394TIP3   OH222672   1.526   1.531  15.290 -0.4270 -0.4838 -0.2378
  394TIP3    H122673   1.470   1.570  15.358  2.0487  4.6554 -0.6635
  394TIP3    H222674   1.587   1.476  15.339  0.6116  2.2200  1.7880
  395TIP3   OH222675   0.910   3.720   2.507 -0.5576 -0.0156  0.1406
  395TIP3    H122676   0.992   3.716   2.458  0.4961 -1.2933  1.9283
  395TIP3    H222677   0.859   3.788   2.462  1.0571  0.1261 -1.5991
  396TIP3   OH222678   0.936   1.749   5.311 -0.3101  0.4394  0.0493
  396TIP3    H122679   0.878   1.824   5.294  0.0745  1.0536  1.3149
  396TIP3    H222680   0.883   1.688   5.362 -0.7598 -0.3815 -1.3462
  397TIP3   OH222681   5.080   2.983   3.931 -0.0471  0.4391 -0.3531
  397TIP3    H122682   5.036   2.993   4.015 -0.2685 -2.1240 -0.1040
  397TIP3    H222683   5.172   2.970   3.953 -0.0883 -0.1273 -0.5143
  398TIP3   OH222684   4.716   3.464  12.535 -0.3225 -0.1488  0.1644
  398TIP3    H122685   4.714   3.490  12.443 -1.0698 -2.2087 -0.4545
  398TIP3    H222686   4.626   3.441  12.555 -0.4051  1.3993  1.8179
  399TIP3   OH222687   5.200   1.125  13.111 -0.6635 -0.6623 -0.7813
  399TIP3    H122688   5.263   1.073  13.162 -1.7274 -0.6303  0.6245
  399TIP3    H222689   5.238   1.212  13.107 -1.1194 -0.3406  1.0743
  400TIP3   OH222690   3.800   4.202   2.001 -0.0342 -0.3436 -0.2986
  400TIP3    H122691   3.806   4.129   1.940 -0.3847 -0.9292  0.3432
  400TIP3    H222692   3.809   4.280   1.947 -1.6206 -0.8012 -1.2886
  401TIP3   OH222693   5.244   0.898   4.154 -0.2188  0.0528  0.0464
  401TIP3    H122694   5.324   0.951   4.159  1.2000 -1.9120 -0.4516
  401TIP3    H222695   5.178   0.949   4.201  1.4945  1.4782  1.0270
  402TIP3   OH222696   3.434   4.810  15.846 -0.1994  0.1546  0.3001
  402TIP3    H122697   3.452   4.855  15.764  0.1482  0.1201  0.3596
  402TIP3    H222698   3.347   4.842  15.872  0.4884  1.6152  0.9020
  403TIP3   OH222699   6.379   5.634   1.629  0.5243  0.1675  0.4042
  403TIP3    H122700   6.400   5.699   1.562  1.8165 -1.4157 -0.7925
  403TIP3    H222701   6.284   5.621   1.619  0.5179  0.7049 -0.3965
  404TIP3   OH222702   6.536   6.083  15.138 -0.1641 -0.0091  0.1828
  404TIP3    H122703   6.507   6.089  15.047  0.9979  0.5996 -0.1663
  404TIP3    H222704   6.582   6.165  15.155  0.0885 -0.3301  1.1537
  405TIP3   OH222705   4.488   4.722   6.079 -0.2476  0.1114  0.0023
  405TIP3    H122706   4.525   4.789   6.021  0.9890 -0.0357  0.6062
  405TIP3    H222707   4.563   4.679   6.118 -1.0477 -1.1917  0.1485
  406TIP3   OH222708   4.499   6.638   5.692 -0.4569  0.5699 -0.8102
  406TIP3    H122709   4.520   6.708   5.754 -0.9623 -0.4441  0.5525
  406TIP3    H222710   4.422   6.671   5.644 -1.6813  0.3540  0.9095
  407TIP3   OH222711   0.451   4.618  16.124 -0.0262  0.3831  0.1205
  407TIP3    H122712   0.464   4.551  16.057  0.1451  0.0606  0.4693
  407TIP3    H222713   0.403   4.572  16.194 -1.3998  1.0532 -0.3375
  408TIP3   OH222714   3.046   1.644  11.687 -0.1579 -0.2008  0.2088
  408TIP3    H122715   3.076   1.664  11.776  0.6718 -1.3652  0.2056
  408TIP3    H222716   2.987   1.717  11.665  1.2680  1.2111  0.9023
  409TIP3   OH222717   5.522   6.665  14.789 -0.5718  0.7061 -0.2747
  409TIP3    H122718   5.537   6.720  14.866 -0.8407  0.7591 -0.2593
  409TIP3    H222719   5.563   6.581  14.811  3.6018  2.0614 -1.8720
  410TIP3   OH222720   4.452   1.778  11.670  0.7092  0.5043  0.5714
  410TIP3    H122721   4.410   1.814  11.748 -0.7554 -0.1437  0.1105
  410TIP3    H222722   4.458   1.853  11.610  2.5442  1.1953  1.5331
  411TIP3   OH222723   4.042   0.482  16.213 -0.1884 -0.1009  0.6107
  411TIP3    H122724   4.077   0.392  16.211  1.2394  0.4049  1.2323
  411TIP3    H222725   4.107   0.534  16.166 -1.2741  0.5459 -0.2138
  412TIP3   OH222726   4.569   5.037  12.788  1.0104 -0.5251  0.2119
  412TIP3    H122727   4.651   5.073  12.821  1.0546 -0.5168  0.0933
  412TIP3    H222728   4.595   4.961  12.735  1.0666  0.4236 -1.1667
  413TIP3   OH222729   5.330   3.296   0.521  0.0998 -0.0178 -0.5497
  413TIP3    H122730   5.395   3.235   0.556  0.3913 -0.8120 -2.3447
  413TIP3    H222731   5.268   3.310   0.592  0.6560 -1.5338  0.2655
  414TIP3   OH222732   4.503   2.201   2.656  0.4833 -0.7126  0.3606
  414TIP3    H122733   4.566   2.192   2.584  0.8237 -0.1415  0.5740
  414TIP3    H222734   4.509   2.293   2.681 -0.9773 -0.4709 -0.0873
  415TIP3   OH222735   3.497   1.403  15.028 -0.3309  0.6745  0.0947
  415TIP3    H122736   3.541   1.407  14.943  0.5355  1.3895  0.5594
  415TIP3    H222737   3.449   1.485  15.034 -2.0624 -0.2331 -0.5462
  416TIP3   OH222738   5.853   1.532   0.036 -0.2230  0.1085 -0.3622
  416TIP3    H122739   5.873   1.623   0.013  0.1642  0.2799  0.6337
  416TIP3    H222740   5.853   1.486  -0.048  1.9035  0.5763 -0.6692
  417TIP3   OH222741   3.015   5.693  11.735  0.2780 -0.2203  0.5645
  417TIP3    H122742   3.003   5.751  11.810 -0.9809 -0.5070  0.5966
  417TIP3    H222743   2.931   5.694  11.689  0.8047 -0.6018 -0.4547
  418TIP3   OH222744   5.253   1.974  13.679  0.4678 -0.0956 -0.4414
  418TIP3    H122745   5.271   1.881  13.694  2.2433  0.3154  0.2717
  418TIP3    H222746   5.233   1.980  13.586 -1.6527 -1.4504 -0.1278
  419TIP3   OH222747   2.402   5.660   2.672 -0.2993 -0.2219  0.2500
  419TIP3    H122748   2.439   5.577   2.701 -0.0331 -0.1706  0.0671
  419TIP3    H222749   2.329   5.677   2.732  1.1407  0.6103  1.8593
  420TIP3   OH222750   4.661   1.683   3.207  0.3549 -0.4828 -0.2094
  420TIP3    H122751   4.751   1.650   3.215  1.5813  2.6588  0.5505
  420TIP3    H222752   4.627   1.681   3.296  1.1779  1.8768  0.2417
  421TIP3   OH222753   4.356   1.110  14.637  0.3437 -0.0401 -0.0551
  421TIP3    H122754   4.303   1.086  14.713 -1.4807  1.3310 -0.8278
  421TIP3    H222755   4.441   1.134  14.673  0.0122 -0.8932  1.3728
  422TIP3   OH222756   3.894   3.829   6.667  0.3343 -0.4290 -0.7753
  422TIP3    H122757   3.980   3.865   6.691 -0.0970 -0.6731  1.3895
  422TIP3    H222758   3.842   3.906   6.644  0.6779 -0.1038 -0.4895
  423TIP3   OH222759   0.445   2.902  12.236  0.0272 -0.4083  0.7308
  423TIP3    H122760   0.440   2.969  12.304  2.8724  0.6452  0.0359
  423TIP3    H222761   0.452   2.819  12.285  1.4903  0.2782  1.7647
  424TIP3   OH222762   6.374   1.576   2.181  0.2383 -0.5782 -0.4271
  424TIP3    H122763   6.404   1.666   2.190 -1.0482 -0.2437  0.8688
  424TIP3    H222764   6.431   1.525   2.237  1.0843 -0.6174 -1.3013
  425TIP3   OH222765   1.287   0.298   5.884  0.4036  0.4488 -0.8093
  425TIP3    H122766   1.329   0.220   5.921 -0.6974  0.5321  0.7199
  425TIP3    H222767   1.312   0.298   5.792 -0.2428 -2.1586 -1.0334
  426TIP3   OH222768   0.095   1.270  14.160  0.4466  0.4127  0.6492
  426TIP3    H122769   0.129   1.285  14.248  1.9023 -2.3727  0.6734
  426TIP3    H222770   0.148   1.327  14.104  1.8608 -0.2395  1.2607
  427TIP3   OH222771   0.417   4.141   1.080 -0.0067 -0.4134 -0.1644
  427TIP3    H122772   0.368   4.059   1.094 -1.2943  0.5099  1.0237
  427TIP3    H222773   0.493   4.135   1.138 -0.4158 -0.5340  0.3682
  428TIP3   OH222774   0.783   5.457  16.641 -0.1218 -0.2139  0.0478
  428TIP3    H122775   0.822   5.535  16.601  0.0232  0.7371  1.9331
  428TIP3    H222776   0.764   5.399  16.567 -0.6064  1.7649 -1.4700
  429TIP3   OH222777   2.452   4.543  14.530 -0.3645 -0.8134  0.3332
  429TIP3    H122778   2.441   4.571  14.439  4.3329  1.4519  0.1178
  429TIP3    H222779   2.508   4.465  14.524 -2.9049 -2.8538  1.3521
  430TIP3   OH222780   1.227   0.571  16.803  0.1877  0.0266 -0.6586
  430TIP3    H122781   1.262   0.520  16.729 -0.0345  0.1310 -0.8376
  430TIP3    H222782   1.177   0.507  16.854  1.5051 -0.3680  0.1834
  431TIP3   OH222783   2.897   5.916  16.551  0.7689 -0.8530 -0.0003
  431TIP3    H122784   2.861   5.860  16.620 -3.8915 -2.4945 -3.2765
  431TIP3    H222785   2.847   5.997  16.558  0.5919 -0.8558 -1.0498
  432TIP3   OH222786   6.470   4.702  11.880  0.1237  0.1732 -0.3759
  432TIP3    H122787   6.487   4.647  11.957  0.9795 -0.0242 -0.6895
  432TIP3    H222788   6.531   4.669  11.814  0.3506  1.2203 -0.7063
  433TIP3   OH222789   3.573   0.016   6.672  0.5306 -0.4994 -0.6027
  433TIP3    H122790   3.479  -0.003   6.669  0.2730  0.5626  0.1594
  433TIP3    H222791   3.581   0.102   6.631  1.1216 -0.4121 -0.3112
  434TIP3   OH222792   5.287   0.240  15.648 -0.4812  0.0742 -0.6898
  434TIP3    H122793   5.332   0.187  15.582 -0.7624 -0.6581 -0.3119
  434TIP3    H222794   5.213   0.185  15.675 -0.7311  0.6373 -0.2304
  435TIP3   OH222795   1.663   2.637  13.386 -0.1320  0.2753 -0.6708
  435TIP3    H122796   1.673   2.730  13.409  2.3000 -0.3143  1.0325
  435TIP3    H222797   1.621   2.598  13.462  1.6202 -0.4987 -0.0541
  436TIP3   OH222798   3.201   5.069  15.110  0.1994  0.1456  0.2638
  436TIP3    H122799   3.234   5.158  15.097  0.6071  0.0130  0.3928
  436TIP3    H222800   3.131   5.078  15.175  1.7997  0.0526  2.0827
  437TIP3   OH222801   0.949   0.561  15.179 -0.3926 -0.1100 -0.0272
  437TIP3    H122802   1.011   0.560  15.106 -0.3788  0.9249 -0.0471
  437TIP3    H222803   0.982   0.628  15.238 -0.0113 -1.4200  1.3056
  438TIP3   OH222804   5.665   2.958  11.575  0.1328  0.0870  0.4170
  438TIP3    H122805   5.750   2.916  11.590  0.9370  1.8303  1.1049
  438TIP3    H222806   5.619   2.900  11.515  1.3187 -1.5291  1.0207
  439TIP3   OH222807   6.808   3.204   3.629  0.0669  0.2556  0.1155
  439TIP3    H122808   6.768   3.267   3.690 -0.6757  0.3887 -0.4853
  439TIP3    H222809   6.848   3.259   3.561 -0.8734  0.0994 -0.5931
  440TIP3   OH222810   5.259   2.307   4.772  0.3721  0.4013 -0.3336
  440TIP3    H122811   5.299   2.359   4.842 -0.0525  0.2624  0.0126
  440TIP3    H222812   5.249   2.369   4.699  0.0598  0.7539  0.0058
  441TIP3   OH222813   1.452   1.247  14.637 -0.9779 -0.2191 -0.5607
  441TIP3    H122814   1.372   1.235  14.688 -0.0803 -0.4937  0.8606
  441TIP3    H222815   1.462   1.342  14.629 -0.6070 -0.1328  0.6986
  442TIP3   OH222816   6.584   4.803  14.793 -0.0681 -0.5979  0.5037
  442TIP3    H122817   6.591   4.891  14.829  0.1600  0.8911 -2.7683
  442TIP3    H222818   6.540   4.752  14.861  0.3189  1.8495  2.7558
  443TIP3   OH222819   3.083   1.423   4.426  0.3662  0.4693 -0.0171
  443TIP3    H122820   3.126   1.338   4.415  1.2642  0.4031  3.1761
  443TIP3    H222821   3.012   1.422   4.361  1.2548 -2.0479 -1.1067
  444TIP3   OH222822   4.268   6.739  11.514  0.3574 -0.0933 -0.3437
  444TIP3    H122823   4.246   6.669  11.575  0.3677 -0.0587 -0.2995
  444TIP3    H222824   4.342   6.705  11.464  0.0935 -0.2764 -0.6075
  445TIP3   OH222825   5.003   5.648  14.457 -0.2990  0.2766  0.0919
  445TIP3    H122826   5.051   5.684  14.382 -0.2455  1.1220  0.5187
  445TIP3    H222827   4.992   5.723  14.516 -1.4048 -0.1062  0.3839
  446TIP3   OH222828   2.389   2.118  13.006  0.3235  0.0573 -0.3232
  446TIP3    H122829   2.327   2.115  13.079  0.6389 -1.9923 -0.0674
  446TIP3    H222830   2.395   2.210  12.984 -0.1825  0.6990  1.9089
  447TIP3   OH222831   5.703   2.283   1.952  0.2560 -0.4570  0.2408
  447TIP3    H122832   5.636   2.254   2.014 -0.8549  1.0143 -0.2159
  447TIP3    H222833   5.765   2.210   1.948  0.8831 -0.3048  3.7218
  448TIP3   OH222834   1.459   2.500  16.038 -0.3218  0.5920 -0.1508
  448TIP3    H122835   1.435   2.453  15.959  0.1396  1.4073 -0.8000
  448TIP3    H222836   1.389   2.481  16.101 -0.1802 -0.8718 -0.4059
  449TIP3   OH222837   0.070   0.785  11.418  0.3853 -0.2700 -0.4799
  449TIP3    H122838   0.162   0.782  11.390  0.5121 -1.3216 -0.0300
  449TIP3    H222839   0.021   0.750  11.344  0.2515  1.0475 -1.0284
  450TIP3   OH222840   1.886   3.893   6.714 -0.4420 -0.3924 -0.3422
  450TIP3    H122841   1.981   3.903   6.721 -0.3950 -0.6933 -0.5586
  450TIP3    H222842   1.870   3.801   6.736 -0.7329 -0.2143  0.2040
  451TIP3   OH222843   0.017   2.975   3.213  0.2101  0.3678 -0.1068
  451TIP3    H122844  -0.000   3.064   3.243 -1.2586 -0.0944  0.5143
  451TIP3    H222845   0.102   2.953   3.251 -0.3260  0.8112  1.4092
  452TIP3   OH222846   0.584   5.861  16.613 -0.1118  0.7121 -0.1364
  452TIP3    H122847   0.575   5.800  16.686  1.4329  0.3912 -0.1864
  452TIP3    H222848   0.671   5.900  16.624 -0.2639  1.4240 -1.2331
  453TIP3   OH222849   3.523   0.441  11.958  0.5908  0.6470 -0.0511
  453TIP3    H122850   3.438   0.483  11.947 -0.0490 -0.6878 -0.4539
  453TIP3    H222851   3.579   0.480  11.891 -0.4900 -0.3909 -1.6308
  454TIP3   OH222852   6.704   0.503   6.600  1.0185 -0.0934 -0.4094
  454TIP3    H122853   6.757   0.438   6.553  1.8435 -0.8517  1.4571
  454TIP3    H222854   6.618   0.499   6.557  1.4753 -1.3567 -1.2906
  455TIP3   OH222855   3.835   4.128  11.314 -0.2163 -0.0143  0.2998
  455TIP3    H122856   3.924   4.146  11.285 -0.0710  0.4176  0.9907
  455TIP3    H222857   3.781   4.141  11.237  0.4743 -1.8156 -0.5540
  456TIP3   OH222858   1.085   0.961   4.025 -0.0476  0.2891  0.4872
  456TIP3    H122859   1.160   0.997   3.977 -0.7132  0.9992 -0.0356
  456TIP3    H222860   1.028   0.924   3.957  0.4216 -1.4564  0.9751
  457TIP3   OH222861   4.378   6.745   0.784  0.8021  0.3847 -0.6844
  457TIP3    H122862   4.340   6.832   0.787  1.5009  0.7755 -2.0827
  457TIP3    H222863   4.468   6.759   0.754  0.8623 -0.8235 -1.1356
  458TIP3   OH222864   6.694   5.877   3.292  0.1358  0.3948  0.1414
  458TIP3    H122865   6.684   5.812   3.222  1.2762  0.6662 -0.2963
  458TIP3    H222866   6.607   5.915   3.302 -0.2777 -0.3749 -0.4139
  459TIP3   OH222867   5.478   2.269  17.145 -0.4946 -0.2711  0.3728
  459TIP3    H122868   5.469   2.250  17.238  0.0963 -0.7640  0.3377
  459TIP3    H222869   5.407   2.331  17.126 -1.7478 -1.5265  0.7615
  460TIP3   OH222870   0.936   0.254  13.148  0.1700  0.4659  0.2819
  460TIP3    H122871   0.941   0.166  13.186  0.7182 -0.5296 -1.9483
  460TIP3    H222872   0.876   0.302  13.206 -0.5321 -1.5208  1.2808
  461TIP3   OH222873   3.141   4.275   3.930 -0.1391 -0.0963  0.0979
  461TIP3    H122874   3.191   4.356   3.920  0.1730  0.0038  1.9926
  461TIP3    H222875   3.168   4.220   3.857  1.7543  0.4727  0.3243
  462TIP3   OH222876   2.015   1.963   3.933 -0.4875  0.4069  0.0326
  462TIP3    H122877   2.011   2.028   4.004 -3.3724  1.1586 -0.6864
  462TIP3    H222878   2.028   1.880   3.979 -2.9572  0.7730  1.6440
  463TIP3   OH222879   1.228   4.660  13.555 -0.2448 -0.0560  0.2057
  463TIP3    H122880   1.164   4.591  13.568 -0.2740  0.0206  0.4715
  463TIP3    H222881   1.306   4.615  13.524 -0.3958 -0.1606 -0.0241
  464TIP3   OH222882   4.909   0.310   4.217  0.5020 -0.2134  0.2373
  464TIP3    H122883   4.861   0.228   4.209  0.4275 -0.0981 -0.5397
  464TIP3    H222884   4.870   0.353   4.293  2.2039 -1.9762  2.2406
  465TIP3   OH222885   1.462   5.189  16.173  0.0116 -0.1986 -0.3021
  465TIP3    H122886   1.416   5.206  16.091  0.6167 -0.1979 -0.6531
  465TIP3    H222887   1.442   5.265  16.228  0.9969  0.6728 -1.0928
  466TIP3   OH222888   3.234   6.382   0.838 -0.0150  0.3652  0.3154
  466TIP3    H122889   3.325   6.374   0.809 -0.4636 -1.5597 -0.7773
  466TIP3    H222890   3.229   6.328   0.917  0.1617  1.9214  1.4296
  467TIP3   OH222891   4.298   6.182  16.093  0.1080 -0.3737  0.4219
  467TIP3    H122892   4.251   6.129  16.158  0.7458  0.8352  1.9134
  467TIP3    H222893   4.366   6.123  16.059 -1.4535 -1.6538 -0.6544
  468TIP3   OH222894   2.659   2.361   1.920  0.1221  0.6929 -0.2259
  468TIP3    H122895   2.684   2.271   1.902  0.3944  0.6598  0.2874
  468TIP3    H222896   2.742   2.405   1.940  0.0093  1.0945 -0.6164
  469TIP3   OH222897   0.019   4.574  16.596  0.0302 -0.0173  0.5647
  469TIP3    H122898  -0.063   4.550  16.554  0.3699 -0.2485  0.0167
  469TIP3    H222899  -0.007   4.622  16.674 -0.6402 -0.7177  0.7883
  470TIP3   OH222900   5.195   5.844  14.832  0.2087  0.3867  0.6192
  470TIP3    H122901   5.194   5.833  14.927  0.3045  0.2562  0.6051
  470TIP3    H222902   5.283   5.878  14.814 -0.0628  1.1293  0.6579
  471TIP3   OH222903   3.397   3.367   0.264  0.0911  0.1066  0.5734
  471TIP3    H122904   3.452   3.423   0.209 -0.0888  1.8027  2.0328
  471TIP3    H222905   3.456   3.333   0.331 -0.1902  0.1362  0.8376
  472TIP3   OH222906   5.766   3.609  11.625 -0.0180 -0.1003  0.0826
  472TIP3    H122907   5.781   3.596  11.531 -0.3623 -0.5011  0.0768
  472TIP3    H222908   5.847   3.580  11.667 -0.2169 -0.8631 -0.0363
  473TIP3   OH222909   3.782   0.741   4.877  0.2681 -0.5681 -0.0374
  473TIP3    H122910   3.789   0.758   4.783 -0.0302 -3.5624 -0.6869
  473TIP3    H222911   3.869   0.760   4.911  0.6088 -0.2230 -1.0484
  474TIP3   OH222912   4.762   1.512   1.621 -0.0835 -0.0217 -0.1778
  474TIP3    H122913   4.823   1.504   1.547 -0.3841 -1.2198 -0.3288
  474TIP3    H222914   4.789   1.592   1.666  1.1761 -0.1684 -0.6187
  475TIP3   OH222915   3.790   0.320   2.191 -0.3718  0.6363  0.4363
  475TIP3    H122916   3.806   0.228   2.210 -2.3544  0.4149  1.3090
  475TIP3    H222917   3.877   0.357   2.175  0.4716 -1.3519  0.1071
  476TIP3   OH222918   6.371   2.817  13.793  0.3521  0.0079  0.2985
  476TIP3    H122919   6.400   2.886  13.853  0.0173 -1.2463  1.9688
  476TIP3    H222920   6.287   2.847  13.760  0.3108  0.4935  0.8345
  477TIP3   OH222921   4.235   4.708   6.208  0.5037  0.7178 -0.0352
  477TIP3    H122922   4.315   4.721   6.158  0.5490 -1.2722 -0.5434
  477TIP3    H222923   4.246   4.764   6.285  1.3824  2.1539 -1.1498
  478TIP3   OH222924   0.197   4.086  14.109 -0.1680  0.1387 -0.2153
  478TIP3    H122925   0.256   4.028  14.157 -0.0676 -1.1698 -1.8324
  478TIP3    H222926   0.112   4.044  14.114 -0.1241 -0.1137 -1.2725
  479TIP3   OH222927   1.639   1.130   1.641 -0.1509 -0.1151  0.3664
  479TIP3    H122928   1.652   1.042   1.605 -0.5557 -0.6158  1.3765
  479TIP3    H222929   1.720   1.176   1.623  0.2383 -0.8424  0.2108
  480TIP3   OH222930   1.908   6.415  16.718  0.0308  0.0390 -0.1725
  480TIP3    H122931   1.869   6.446  16.800 -2.5697 -1.6748 -0.6552
  480TIP3    H222932   1.902   6.491  16.660  0.4600  0.7974  0.7343
  481TIP3   OH222933   0.266   4.398  16.595 -0.5304 -0.3340 -0.5621
  481TIP3    H122934   0.309   4.415  16.679 -0.8145 -0.1976 -0.4453
  481TIP3    H222935   0.189   4.455  16.595 -1.4675 -1.5600 -0.1872
  482TIP3   OH222936   5.880   5.051  15.729  0.1503  0.0479 -0.0186
  482TIP3    H122937   5.838   4.974  15.692 -0.0670 -0.3217  0.9601
  482TIP3    H222938   5.961   5.019  15.767 -0.2061  0.1803  0.8936
  483TIP3   OH222939   0.818   3.832  13.916  0.6081  0.2212 -0.4003
  483TIP3    H122940   0.734   3.797  13.888  0.6500 -0.6257  0.4896
  483TIP3    H222941   0.879   3.807  13.847  0.5276 -1.0133 -0.0515
  484TIP3   OH222942   6.232   6.439  14.151 -0.1662  0.8389  0.5197
  484TIP3    H122943   6.144   6.401  14.141 -0.2232  1.1689 -0.3472
  484TIP3    H222944   6.290   6.373  14.114 -0.2214  1.3449 -0.5278
  485TIP3   OH222945   1.633   5.527   3.007  0.1592  0.1980  1.0584
  485TIP3    H122946   1.649   5.616   3.038 -1.3554  0.9642 -0.1846
  485TIP3    H222947   1.650   5.531   2.913  0.0051 -0.8035  0.9765
  486TIP3   OH222948   5.106   3.390   5.053  0.5091 -0.6338 -0.4779
  486TIP3    H122949   5.048   3.466   5.062  1.3430  0.0775 -0.9540
  486TIP3    H222950   5.121   3.383   4.959  1.1380 -0.8683 -0.3615
  487TIP3   OH222951   2.293   5.518  11.606  0.0559  0.1686  0.3833
  487TIP3    H122952   2.354   5.474  11.664  0.8396  1.0850  0.2759
  487TIP3    H222953   2.206   5.493  11.639  0.4644 -1.4459  0.3020
  488TIP3   OH222954   0.779   5.194  14.983 -0.3590 -0.6794  0.5691
  488TIP3    H122955   0.830   5.269  14.955  0.8590 -1.7101 -0.0906
  488TIP3    H222956   0.832   5.118  14.957 -2.3858 -1.8118 -0.4967
  489TIP3   OH222957   5.863   2.200   5.876  0.0103 -0.2404 -0.2585
  489TIP3    H122958   5.904   2.284   5.855  3.2466 -1.5508  0.2268
  489TIP3    H222959   5.867   2.150   5.795 -0.5717 -0.4121 -0.1817
  490TIP3   OH222960   4.242   5.647   0.005  0.2890  0.5405 -0.9302
  490TIP3    H122961   4.186   5.607  -0.061 -0.4792  2.0424 -1.2381
  490TIP3    H222962   4.281   5.722  -0.040  1.4742  0.3290 -0.3010
  491TIP3   OH222963   6.503   2.476  14.171  0.0860 -0.6807 -0.1712
  491TIP3    H122964   6.491   2.551  14.113 -1.1166 -0.9902 -0.3552
  491TIP3    H222965   6.458   2.404  14.126 -0.1100 -1.1407  0.7381
  492TIP3   OH222966   0.476   3.464   0.403  0.0227  0.1387  0.2142
  492TIP3    H122967   0.519   3.397   0.456 -1.7841  0.4387  2.2114
  492TIP3    H222968   0.544   3.495   0.344  1.3020 -2.4288  0.1971
  493TIP3   OH222969   5.317   3.397  15.553  0.3200 -0.3352  0.4737
  493TIP3    H122970   5.357   3.331  15.497 -0.1951  0.4439 -0.8560
  493TIP3    H222971   5.360   3.479  15.527 -1.2220  0.3201 -0.0953
  494TIP3   OH222972   5.035   6.065   0.309  0.2950  0.6673  0.0603
  494TIP3    H122973   5.049   5.971   0.310  0.5056  0.6967  0.0409
  494TIP3    H222974   5.065   6.092   0.222 -1.6095  0.4796 -0.7164
  495TIP3   OH222975   4.882   3.818   4.113 -0.0391 -0.1302  0.2433
  495TIP3    H122976   4.903   3.890   4.172  0.5702  0.5333 -0.7616
  495TIP3    H222977   4.794   3.791   4.139 -0.6452  1.5536  0.1091
  496TIP3   OH222978   4.962   3.236  13.872 -0.2740 -0.4942 -0.0484
  496TIP3    H122979   5.026   3.307  13.867  1.6972 -2.1759 -0.3411
  496TIP3    H222980   4.925   3.243  13.960  0.8356  0.1213  0.3888
  497TIP3   OH222981   5.892   5.980   4.695  0.5482 -0.2381 -0.1848
  497TIP3    H122982   5.969   5.924   4.689  1.7076  0.8529  2.7850
  497TIP3    H222983   5.906   6.047   4.628  1.4110 -0.8733 -0.6698
  498TIP3   OH222984   3.841   2.911   4.046  0.4594  0.8776  0.5449
  498TIP3    H122985   3.781   2.934   3.974 -2.9741  0.4304  3.0277
  498TIP3    H222986   3.893   2.839   4.011 -1.8952 -0.1165 -1.2063
  499TIP3   OH222987   1.958   5.393  13.948 -0.2058 -0.1703 -0.0313
  499TIP3    H122988   1.951   5.346  13.865 -1.9489 -0.0723  0.0140
  499TIP3    H222989   1.998   5.477  13.925  1.0645 -0.8559 -0.4338
  500TIP3   OH222990   6.529   0.948  13.164 -0.2471 -0.4105 -0.3540
  500TIP3    H122991   6.568   0.963  13.250 -0.2842 -0.6370 -0.2985
  500TIP3    H222992   6.524   1.035  13.125  0.8757 -0.4449 -0.6127
  501TIP3   OH222993   3.446   0.845  13.272 -0.7505  0.5884 -0.4895
  501TIP3    H122994   3.437   0.754  13.241  3.9496  0.7187 -3.1071
  501TIP3    H222995   3.408   0.898  13.202  0.8769  0.6370 -1.3913
  502TIP3   OH222996   6.650   6.305   4.350  0.4768 -0.2565 -0.4640
  502TIP3    H122997   6.559   6.312   4.322  0.6786 -1.7624 -1.6293
  502TIP3    H222998   6.660   6.212   4.374  1.7499 -0.1467 -0.5322
  503TIP3   OH222999   3.759   1.036  11.646  0.3848  0.3484 -0.2270
  503TIP3    H123000   3.686   1.046  11.584  0.0220 -1.3823 -0.1268
  503TIP3    H223001   3.733   1.089  11.721 -0.6721 -0.0523 -0.2870
  504TIP3   OH223002   2.170   0.346  12.584  0.1912 -0.1214  0.0452
  504TIP3    H123003   2.229   0.306  12.648 -0.7334 -0.3114  0.8162
  504TIP3    H223004   2.199   0.313  12.500  1.5215  0.2352  0.3506
  505TIP3   OH223005   0.718   5.274  13.920 -0.2533  0.4863  0.6831
  505TIP3    H123006   0.652   5.262  13.989  1.4281  0.8918  2.4507
  505TIP3    H223007   0.682   5.344  13.865 -1.5152  0.3590  1.3070
  506TIP3   OH223008   5.088   6.596   3.687 -0.0545  0.2630  0.0027
  506TIP3    H123009   5.007   6.546   3.702  0.1457  0.0915  0.5567
  506TIP3    H223010   5.155   6.529   3.670  0.0302  0.3875 -0.1465
  507TIP3   OH223011   3.410   3.479  17.189  0.6504 -0.4418 -0.5433
  507TIP3    H123012   3.338   3.458  17.249  0.0524 -1.6172 -1.6190
  507TIP3    H223013   3.433   3.569  17.211 -0.6980 -0.2644  0.2911
  508TIP3   OH223014   1.741   5.782  14.458 -0.5841  0.3030  0.2481
  508TIP3    H123015   1.710   5.778  14.548  1.4127  0.8938  1.0107
  508TIP3    H223016   1.764   5.692  14.436  2.1224  0.5630  1.5983
  509TIP3   OH223017   3.434   0.166   5.703  0.4745  0.4471 -0.8069
  509TIP3    H123018   3.413   0.257   5.722  0.5016  0.1267  0.9302
  509TIP3    H223019   3.527   0.158   5.727 -0.1505 -0.6022  1.5675
  510TIP3   OH223020   2.006   0.948  13.854  1.0044 -0.1068 -0.1778
  510TIP3    H123021   2.068   1.019  13.840  0.3851  0.2248 -1.3660
  510TIP3    H223022   1.955   0.944  13.772  2.0748 -2.9530 -0.8194
  511TIP3   OH223023   5.206   4.771  11.893  0.1575  0.4711 -0.7712
  511TIP3    H123024   5.226   4.723  11.813 -0.1779 -0.8714 -0.0861
  511TIP3    H223025   5.273   4.839  11.898  1.9331 -1.1905 -0.7333
  512TIP3   OH223026   1.470   2.322   4.472 -0.0501 -0.1899 -0.1510
  512TIP3    H123027   1.507   2.379   4.405  0.6181  1.1932  1.3209
  512TIP3    H223028   1.382   2.355   4.487 -0.1824 -0.4683 -0.3000
  513TIP3   OH223029   2.631   0.814  14.950  0.5586 -0.0597 -0.2178
  513TIP3    H123030   2.589   0.763  14.880 -1.3034  1.1160 -0.0291
  513TIP3    H223031   2.616   0.762  15.029  1.4516 -0.7187 -0.4663
  514TIP3   OH223032   1.607   0.550  16.406  0.6639  1.1274  0.0526
  514TIP3    H123033   1.596   0.499  16.326 -1.4669  0.6888  0.5752
  514TIP3    H223034   1.559   0.631  16.390  1.1079  1.4949  0.5239
  515TIP3   OH223035   2.177   3.957  12.622 -0.3274 -0.1631 -0.4636
  515TIP3    H123036   2.129   3.896  12.566  1.7460 -1.4601 -0.9617
  515TIP3    H223037   2.255   3.908  12.649  0.9133  1.9192 -0.0466
  516TIP3   OH223038   3.725   0.381   0.604  0.7242 -0.2532  0.2252
  516TIP3    H123039   3.772   0.460   0.629  0.1748  1.1680 -2.7300
  516TIP3    H223040   3.633   0.405   0.607  0.5489 -0.7142 -0.7977
  517TIP3   OH223041   1.964   5.903   0.508  0.3912  0.0427  0.2291
  517TIP3    H123042   2.046   5.894   0.459  0.1780  1.1541 -0.3740
  517TIP3    H223043   1.990   5.939   0.593  0.6481 -0.7762  0.4998
  518TIP3   OH223044   2.312   3.345  14.459 -0.0555 -0.0860 -0.3373
  518TIP3    H123045   2.383   3.355  14.523  0.4861 -2.2206 -0.5239
  518TIP3    H223046   2.249   3.288  14.503 -1.0988  0.8420 -0.6218
  519TIP3   OH223047   4.210   3.044   4.844 -0.0873  0.0892  0.0356
  519TIP3    H123048   4.233   3.136   4.832  0.4811  0.3090  2.2977
  519TIP3    H223049   4.150   3.044   4.918  0.8142 -1.4323  0.8161
  520TIP3   OH223050   1.250   1.578   5.753 -0.4017  0.6340 -0.2866
  520TIP3    H123051   1.283   1.612   5.836 -1.2100  0.2482  0.2072
  520TIP3    H223052   1.279   1.486   5.752 -1.7982  0.1594  0.3655
  521TIP3   OH223053   2.809   5.948  11.170  0.0140 -0.9589  0.0824
  521TIP3    H123054   2.899   5.960  11.142 -0.0508 -0.5044  0.0699
  521TIP3    H223055   2.758   5.947  11.088  0.0590 -1.7247  0.0533
  522TIP3   OH223056   6.395   5.945   3.287  0.4453 -0.2110 -0.4303
  522TIP3    H123057   6.339   5.914   3.216  1.3111 -0.5691 -0.9614
  522TIP3    H223058   6.415   6.036   3.264 -0.8193  0.2981  0.3402
  523TIP3   OH223059   5.913   4.302  16.076 -0.8530  0.4138  0.8011
  523TIP3    H123060   5.835   4.248  16.092  0.7491 -1.7239  1.8330
  523TIP3    H223061   5.987   4.243  16.089  1.0550  2.8658  1.9389
  524TIP3   OH223062   4.543   5.514   2.480  0.0922 -0.6845  0.2953
  524TIP3    H123063   4.467   5.525   2.538 -0.0493 -0.7009  0.1147
  524TIP3    H223064   4.508   5.531   2.393 -0.0026 -2.0148  0.0600
  525TIP3   OH223065   2.192   2.951  11.773 -0.2307  0.1288 -0.0277
  525TIP3    H123066   2.267   2.919  11.822 -0.0529  1.5349  0.6514
  525TIP3    H223067   2.145   3.007  11.834 -0.4174  1.3206 -1.2106
  526TIP3   OH223068   4.680   4.699   5.142  0.5557 -0.4279  0.7380
  526TIP3    H123069   4.726   4.626   5.183  1.8463 -0.3727 -0.5490
  526TIP3    H223070   4.746   4.744   5.090 -0.5142  0.8825  0.4310
  527TIP3   OH223071   6.434   1.059  11.985 -0.0824 -0.5788 -0.5804
  527TIP3    H123072   6.340   1.040  11.990 -0.4405  0.5994 -2.1646
  527TIP3    H223073   6.440   1.154  11.996  1.1598 -0.8402  1.6016
  528TIP3   OH223074   4.046   4.104   5.651  0.6948 -0.4206  0.2665
  528TIP3    H123075   4.036   4.115   5.556 -0.3463 -1.5516  0.2137
  528TIP3    H223076   4.116   4.039   5.660  2.1726  1.1164  0.3679
  529TIP3   OH223077   5.192   1.384  14.466 -0.0458  0.4227 -0.3536
  529TIP3    H123078   5.130   1.406  14.536 -1.6894 -1.6012 -1.0643
  529TIP3    H223079   5.265   1.342  14.511 -1.2258 -1.1324  0.1673
  530TIP3   OH223080   5.559   3.202   2.923  0.2097 -0.2234 -0.6794
  530TIP3    H123081   5.606   3.271   2.971  0.7675 -0.1270 -1.3537
  530TIP3    H223082   5.601   3.121   2.952 -1.6630 -0.4947  1.5442
  531TIP3   OH223083   4.808   5.764   6.644 -0.4251 -0.6938 -0.1777
  531TIP3    H123084   4.897   5.733   6.659 -0.0399  0.5000  0.0494
  531TIP3    H223085   4.771   5.700   6.582  0.9385 -0.6041 -1.1313
  532TIP3   OH223086   1.665   4.520  15.146 -0.4194 -0.1027 -0.6939
  532TIP3    H123087   1.631   4.571  15.072  1.4116 -0.1093 -1.5953
  532TIP3    H223088   1.737   4.469  15.108 -1.5486 -2.6660  0.3734
  533TIP3   OH223089   1.011   1.081  13.376 -0.5720  0.0221  0.3974
  533TIP3    H123090   1.071   1.089  13.449 -0.3136  0.3631  0.1507
  533TIP3    H223091   1.020   1.164  13.328 -0.5511 -0.2967 -0.1604
  534TIP3   OH223092   4.701   1.796  15.727  0.1715  0.2313  0.9223
  534TIP3    H123093   4.624   1.754  15.764  1.7583 -3.5590  0.3346
  534TIP3    H223094   4.667   1.854  15.659 -2.1576 -0.8494  1.0931
  535TIP3   OH223095   6.587   4.631   6.462  0.2195 -0.3829 -0.0243
  535TIP3    H123096   6.588   4.700   6.528 -1.0010  1.3485 -1.7257
  535TIP3    H223097   6.594   4.677   6.378 -0.2816 -2.3509 -1.2223
  536TIP3   OH223098   3.925   0.464   6.153  0.4523 -0.2527  0.1668
  536TIP3    H123099   3.947   0.371   6.157 -0.8301 -0.5905 -0.2468
  536TIP3    H223100   3.991   0.503   6.095  0.5180 -1.0508 -0.2973
  537TIP3   OH223101   1.379   0.704  15.507  0.4026 -0.8990  0.4434
  537TIP3    H123102   1.393   0.790  15.548 -2.2271 -0.3987  0.4945
  537TIP3    H223103   1.396   0.642  15.577 -0.6340 -0.2112  1.3580
  538TIP3   OH223104   3.772   4.466  14.997  0.3089  0.0488  0.3331
  538TIP3    H123105   3.750   4.380  15.032 -1.5509 -0.5584 -2.0976
  538TIP3    H223106   3.768   4.524  15.073 -0.4289 -1.6604  1.6654
  539TIP3   OH223107   0.976   3.338  15.867  0.8931 -0.0806 -0.0760
  539TIP3    H123108   1.029   3.409  15.903  1.8632 -1.1640  0.7150
  539TIP3    H223109   0.932   3.300  15.943 -2.1275  1.5911 -0.8507
  540TIP3   OH223110   2.169   4.996  16.389  0.6877 -0.5511  0.4930
  540TIP3    H123111   2.139   4.905  16.393  1.0733 -0.6883  0.3517
  540TIP3    H223112   2.123   5.033  16.313  0.7935 -0.7273  0.3423
  541TIP3   OH223113   1.890   4.009   4.282  0.2731 -0.2836  0.0992
  541TIP3    H123114   1.807   3.972   4.309 -0.2302 -0.1359 -1.1770
  541TIP3    H223115   1.867   4.093   4.243  1.1421  0.2551  0.6928
  542TIP3   OH223116   2.008   6.297   1.375  0.1483  0.0392  0.7673
  542TIP3    H123117   2.090   6.248   1.378  0.7175  0.9088 -0.1008
  542TIP3    H223118   1.953   6.249   1.314  0.2567 -0.1745  0.8379
  543TIP3   OH223119   5.870   1.651   0.999 -0.1013 -0.0199  0.8284
  543TIP3    H123120   5.951   1.683   1.039  0.2755  0.1520 -0.0608
  543TIP3    H223121   5.845   1.575   1.052  1.5470 -1.0960  0.1203
  544TIP3   OH223122   5.711   2.234  15.479 -0.1299  0.4276  0.1045
  544TIP3    H123123   5.621   2.218  15.451 -0.1563  0.6108  0.0815
  544TIP3    H223124   5.763   2.167  15.436 -0.3449 -0.1073  0.6614
  545TIP3   OH223125   2.360   1.292   4.860 -0.1092  0.0135 -0.5817
  545TIP3    H123126   2.375   1.205   4.897 -2.6515  0.2826  1.4055
  545TIP3    H223127   2.266   1.306   4.870  0.1788  2.9126 -1.0322
  546TIP3   OH223128   5.715   6.300  12.738  0.0058 -0.3410  0.0656
  546TIP3    H123129   5.709   6.315  12.832  1.3505 -0.1027  0.1252
  546TIP3    H223130   5.629   6.265  12.714 -1.4093  2.3688  0.8373
  547TIP3   OH223131   3.337   1.920   5.651 -0.5607 -0.2488 -0.8203
  547TIP3    H123132   3.403   1.879   5.707 -1.4743 -0.8002 -0.1160
  547TIP3    H223133   3.372   1.911   5.562  0.7170  0.2801 -0.3900
  548TIP3   OH223134   1.639   4.396  14.265  0.2416 -0.0311 -0.5348
  548TIP3    H123135   1.654   4.471  14.323 -1.1835  0.1801 -0.4048
  548TIP3    H223136   1.593   4.332  14.320  0.4123 -0.5347 -0.9690
  549TIP3   OH223137   4.073   4.449  16.639  0.1158  0.3897  0.1446
  549TIP3    H123138   4.096   4.405  16.558 -0.9829 -0.4992  0.2794
  549TIP3    H223139   4.144   4.428  16.699  1.3434  1.7221 -0.7893
  550TIP3   OH223140   1.074   3.264   6.006 -0.7409  0.2807  0.1604
  550TIP3    H123141   1.055   3.174   5.978 -0.3784  0.3369 -0.2855
  550TIP3    H223142   1.134   3.255   6.079 -1.1309  0.1487  0.4684
  551TIP3   OH223143   2.520   2.357   4.439  0.2517  0.2237 -0.0886
  551TIP3    H123144   2.462   2.300   4.389 -0.0029  1.6154 -1.4514
  551TIP3    H223145   2.465   2.389   4.512 -0.0403 -0.1331 -0.1528
  552TIP3   OH223146   6.119   0.137  11.417  0.8696 -0.4498  0.3153
  552TIP3    H123147   6.123   0.160  11.510  0.3312 -0.2383  0.2866
  552TIP3    H223148   6.053   0.069  11.412 -0.5444  0.9023 -0.1796
  553TIP3   OH223149   2.852   0.465   4.365  0.4142 -0.0573 -0.3427
  553TIP3    H123150   2.777   0.467   4.305  1.3849  1.2136 -1.5496
  553TIP3    H223151   2.908   0.396   4.331 -0.2846 -1.1942  0.7176
  554TIP3   OH223152   3.204   2.870  14.103 -0.3494  1.3353 -0.2973
  554TIP3    H123153   3.228   2.900  14.016  0.0823  0.0351 -0.6476
  554TIP3    H223154   3.112   2.897  14.113 -0.9662 -0.0120 -1.8662
  555TIP3   OH223155   5.638   3.020   1.033 -0.4031  0.1027  0.4938
  555TIP3    H123156   5.580   3.075   0.980 -0.9191  0.0538  0.9957
  555TIP3    H223157   5.594   3.014   1.118  0.5599  0.4055  1.0165
  556TIP3   OH223158   2.910   6.632   1.493  0.3178  0.6070 -0.2092
  556TIP3    H123159   2.934   6.556   1.546  0.4626  1.0660  0.3962
  556TIP3    H223160   2.838   6.601   1.438  0.7290 -0.1169 -0.3528
  557TIP3   OH223161   4.271   2.980   5.952  0.0955 -1.1164  0.3759
  557TIP3    H123162   4.186   2.944   5.979 -0.8477  0.6051 -0.1039
  557TIP3    H223163   4.249   3.062   5.908  2.0603 -0.2995  0.8012
  558TIP3   OH223164   4.803   5.845  16.672 -0.5597 -0.3631  0.2259
  558TIP3    H123165   4.890   5.809  16.686  0.4137  2.0150  0.7793
  558TIP3    H223166   4.785   5.829  16.580  1.0460  0.2372 -0.2258
  559TIP3   OH223167   0.987   3.654  15.206 -0.1181  0.0125 -0.0022
  559TIP3    H123168   1.081   3.652  15.191  0.2250  0.5503  1.7530
  559TIP3    H223169   0.964   3.747  15.201 -0.3798 -0.0260  0.3971
  560TIP3   OH223170   1.849   1.195   4.517  0.0921  0.3713  0.5446
  560TIP3    H123171   1.843   1.220   4.425  0.4072 -1.6265 -0.0771
  560TIP3    H223172   1.938   1.161   4.526 -0.1155  0.0502  1.4295
  561TIP3   OH223173   0.977   5.041   5.189  0.5123  0.4628  0.0147
  561TIP3    H123174   1.018   5.124   5.215  0.3576  0.4091  0.4333
  561TIP3    H223175   0.977   4.989   5.269  0.4768  0.1107 -0.2141
  562TIP3   OH223176   0.392   0.914   0.459  0.0097  0.4977  0.5958
  562TIP3    H123177   0.426   0.992   0.504  1.3757  0.8606 -0.9544
  562TIP3    H223178   0.469   0.874   0.418 -0.8907 -0.8441  0.1370
  563TIP3   OH223179   5.565   1.622   0.188  0.0905 -0.3288 -0.2904
  563TIP3    H123180   5.469   1.631   0.190  0.0795 -0.6107  1.3161
  563TIP3    H223181   5.582   1.569   0.111 -0.9178  0.9826 -1.4822
  564TIP3   OH223182   6.450   4.710   1.137 -0.0745  0.4415  0.1060
  564TIP3    H123183   6.378   4.647   1.147  1.0095 -0.7791  0.5680
  564TIP3    H223184   6.439   4.770   1.211 -1.4320  1.1404 -0.6383
  565TIP3   OH223185   0.873   2.114  11.467 -0.0846 -0.7180  0.2550
  565TIP3    H123186   0.912   2.195  11.499 -0.3299  0.0296 -1.2797
  565TIP3    H223187   0.937   2.079  11.405 -0.4215 -1.1910  0.1649
  566TIP3   OH223188   5.233   3.205  10.656 -0.5115 -0.1578  0.9165
  566TIP3    H123189   5.230   3.256  10.575  1.1591 -2.2006 -0.5328
  566TIP3    H223190   5.286   3.257  10.716 -2.8789  2.0269  1.3093
  567TIP3   OH223191   0.004   4.236   3.759 -0.3652  0.0188  0.4702
  567TIP3    H123192   0.041   4.278   3.681 -0.6802  2.3812  1.4994
  567TIP3    H223193   0.011   4.142   3.741  0.2553  0.4599 -2.0609
  568TIP3   OH223194   1.690   1.217  13.709  0.4664 -0.2664 -0.4698
  568TIP3    H123195   1.600   1.249  13.698  0.2640  0.2570  2.0202
  568TIP3    H223196   1.743   1.297  13.711  0.7206 -0.4417 -0.0612
  569TIP3   OH223197   2.573   5.519   2.052 -0.4528  0.0698  0.7397
  569TIP3    H123198   2.577   5.499   2.145  0.1160  0.6603  0.8515
  569TIP3    H223199   2.568   5.615   2.048 -2.6498 -0.0069  0.2203
  570TIP3   OH223200   0.016   0.413  13.342  0.4283  0.5052 -0.7215
  570TIP3    H123201  -0.026   0.331  13.318  0.0471 -0.3842  2.5443
  570TIP3    H223202   0.109   0.399  13.323  0.1548  0.0161 -1.7982
  571TIP3   OH223203   3.572   5.245  15.838 -0.0150 -0.3153 -0.2224
  571TIP3    H123204   3.517   5.170  15.862  2.1157 -1.9319 -0.0893
  571TIP3    H223205   3.514   5.321  15.847 -1.6683 -1.6927  1.8624
  572TIP3   OH223206   3.776   1.952   0.132 -0.2584  0.5502 -0.5377
  572TIP3    H123207   3.757   2.035   0.175  2.6252  1.1869 -0.2669
  572TIP3    H223208   3.872   1.945   0.135 -0.2639 -1.7302 -2.5264
  573TIP3   OH223209   0.907   1.909  16.968  0.0807 -0.0559  0.0087
  573TIP3    H123210   0.819   1.873  16.980  0.7197 -0.8451  3.2882
  573TIP3    H223211   0.943   1.860  16.893 -1.9628 -0.2409 -0.9065
  574TIP3   OH223212   5.046   3.618   0.069 -0.7575  0.1385 -0.3721
  574TIP3    H123213   5.019   3.527   0.062 -0.8574  0.1918 -0.7448
  574TIP3    H223214   5.037   3.640   0.162 -0.0594 -0.4322 -0.1649
  575TIP3   OH223215   5.164   2.050   1.451 -0.4066  0.2334  0.3974
  575TIP3    H123216   5.088   2.093   1.491  0.0119  2.6642 -1.1833
  575TIP3    H223217   5.237   2.070   1.510 -0.5925 -0.2378  0.7960
  576TIP3   OH223218   0.951   6.283   5.403  0.2337  0.1861  0.0641
  576TIP3    H123219   1.031   6.303   5.451  1.0960 -2.1231 -0.2692
  576TIP3    H223220   0.979   6.228   5.330 -1.5556  0.0434 -0.5808
  577TIP3   OH223221   2.499   2.606   2.678 -0.2454  0.3525 -0.2901
  577TIP3    H123222   2.547   2.670   2.731  0.9906 -1.9658  1.5417
  577TIP3    H223223   2.433   2.570   2.737 -1.5146  0.4802 -1.5578
  578TIP3   OH223224   4.074   1.188   0.237  0.0397 -0.0326 -0.3935
  578TIP3    H123225   3.998   1.246   0.228 -0.5941 -0.7718  0.0167
  578TIP3    H223226   4.095   1.191   0.330  0.4207  0.0405 -0.4789
  579TIP3   OH223227   4.656   3.174   1.828  0.8039  0.1306  0.0450
  579TIP3    H123228   4.569   3.187   1.867  1.0794  0.1069  0.6795
  579TIP3    H223229   4.638   3.162   1.735  0.0941 -0.2572  0.2201
  580TIP3   OH223230   1.362   4.196   2.339  0.1552 -0.3637 -0.1535
  580TIP3    H123231   1.399   4.284   2.345 -1.4037  0.3182 -0.0627
  580TIP3    H223232   1.366   4.174   2.245 -1.6035  0.8282 -0.5680
  581TIP3   OH223233   2.980   6.322  14.251 -0.2031 -0.4424 -0.6798
  581TIP3    H123234   2.904   6.276  14.217  0.4641 -1.8508 -0.3296
  581TIP3    H223235   2.991   6.397  14.191 -2.1921  0.1508 -0.3712
  582TIP3   OH223236   1.351   5.527  15.770  0.0516 -0.4241 -0.4999
  582TIP3    H123237   1.430   5.573  15.741 -1.3387  1.2220 -1.8051
  582TIP3    H223238   1.372   5.434  15.758  0.9401  0.0467 -3.1834
  583TIP3   OH223239   4.445   3.657  17.147 -0.1307 -0.1268  0.6923
  583TIP3    H123240   4.499   3.737  17.150  1.2046 -0.9450 -0.0507
  583TIP3    H223241   4.473   3.614  17.066 -1.8304 -0.6809  0.3674
  584TIP3   OH223242   5.206   0.920  11.580  0.2812  0.3052  0.0409
  584TIP3    H123243   5.275   0.969  11.535  0.0826 -0.5928 -1.3026
  584TIP3    H223244   5.125   0.955  11.543  0.1552 -1.5435 -1.5701
  585TIP3   OH223245   0.836   5.095  10.758 -0.6435 -0.6506  0.3458
  585TIP3    H123246   0.877   5.153  10.693  2.4447 -2.0243  0.9052
  585TIP3    H223247   0.860   5.133  10.842  0.8995 -2.3421  0.7065
  586TIP3   OH223248   2.656   4.117   2.962 -0.0180  0.5378 -0.2712
  586TIP3    H123249   2.651   4.030   3.001 -0.4771  0.6801 -0.0060
  586TIP3    H223250   2.750   4.132   2.948  0.0818  0.1158 -0.0668
  587TIP3   OH223251   5.375   6.485   1.775  0.1740  0.3052  0.5370
  587TIP3    H123252   5.319   6.410   1.751 -0.3654  0.2587  1.8675
  587TIP3    H223253   5.464   6.457   1.753  0.1051 -1.1534  1.9602
  588TIP3   OH223254   2.099   5.788   5.229 -0.0340 -0.5726  0.0901
  588TIP3    H123255   2.086   5.835   5.311 -0.2169 -1.4185  0.5548
  588TIP3    H223256   2.190   5.806   5.205 -0.0689 -0.0831  0.3218
  589TIP3   OH223257   1.122   6.411  14.822  0.8323 -0.4151 -0.5871
  589TIP3    H123258   1.193   6.390  14.762 -0.5648 -1.5130 -1.9617
  589TIP3    H223259   1.094   6.325  14.855 -2.1535 -0.5202 -2.9107
  590TIP3   OH223260   4.794   3.897  16.854  0.2778  0.1125  0.5669
  590TIP3    H123261   4.814   3.807  16.828  0.1203 -0.0781  1.0869
  590TIP3    H223262   4.717   3.888  16.910 -2.0455  0.9229 -2.2832
  591TIP3   OH223263   1.129   6.684   4.347  0.4442  0.0737 -0.0799
  591TIP3    H123264   1.081   6.766   4.336  0.9101  1.0057  3.5762
  591TIP3    H223265   1.068   6.627   4.393  1.1117 -0.6357 -0.0509
  592TIP3   OH223266   0.693   2.968  14.218 -0.4217 -0.1508 -0.1208
  592TIP3    H123267   0.694   2.876  14.191 -0.2737 -0.1857  0.0029
  592TIP3    H223268   0.704   3.017  14.136 -0.0755 -0.2542 -0.1367
  593TIP3   OH223269   5.353   2.473   2.014 -0.4956  0.2187  0.6222
  593TIP3    H123270   5.444   2.454   2.038 -0.4170  0.0214  0.1818
  593TIP3    H223271   5.302   2.436   2.086 -0.3443 -1.7539 -0.2246
  594TIP3   OH223272   1.280   0.351  10.756  0.5552  0.3944  1.0636
  594TIP3    H123273   1.354   0.376  10.812  1.7866  0.3458 -0.4837
  594TIP3    H223274   1.221   0.426  10.760  0.7387  0.4959  2.2067
  595TIP3   OH223275   6.203   0.649   3.941 -0.0624  0.4862  0.2814
  595TIP3    H123276   6.267   0.671   4.009 -1.2983  1.7332  1.0865
  595TIP3    H223277   6.256   0.634   3.863  1.1773  2.7485  0.5997
  596TIP3   OH223278   0.727   0.859  15.974 -0.1611 -0.5996  0.4951
  596TIP3    H123279   0.684   0.934  15.934  1.5646  0.2193  0.0759
  596TIP3    H223280   0.738   0.796  15.902  0.1089 -0.4418  0.3954
  597TIP3   OH223281   4.107   5.248   0.292  0.6865  0.3493 -0.0111
  597TIP3    H123282   4.089   5.217   0.203  0.5178  0.2276  0.0649
  597TIP3    H223283   4.180   5.309   0.281  0.8228  0.1566 -0.2026
  598TIP3   OH223284   3.146   3.055   4.752  0.2387 -0.4116 -0.5853
  598TIP3    H123285   3.182   3.107   4.680  1.8325  0.1159  0.5310
  598TIP3    H223286   3.210   3.065   4.823 -1.8816  0.0816  1.3497
  599TIP3   OH223287   4.051   4.750   3.130 -0.0675  0.0213  0.0017
  599TIP3    H123288   4.014   4.666   3.157 -0.3951  0.3240  0.5179
  599TIP3    H223289   4.098   4.782   3.207 -0.4612  0.5912  0.0157
  600TIP3   OH223290   0.793   2.518   3.684 -0.2120  0.6761  0.1287
  600TIP3    H123291   0.770   2.469   3.763  0.3128 -0.9203 -0.6510
  600TIP3    H223292   0.888   2.528   3.688  0.1979 -1.7287 -1.4714
  601TIP3   OH223293   2.025   4.820  11.437  0.0739  0.1057  0.2254
  601TIP3    H123294   2.032   4.890  11.373  1.1093 -0.9993 -0.9333
  601TIP3    H223295   1.931   4.814  11.456 -0.2672  0.4820 -1.1977
  602TIP3   OH223296   4.403   0.380  16.037  0.1978 -0.2601  0.0006
  602TIP3    H123297   4.325   0.338  16.001  1.0790 -2.0266  0.0401
  602TIP3    H223298   4.388   0.474  16.025 -2.4267 -0.4641  1.0862
  603TIP3   OH223299   2.618   0.635  13.252  0.0609 -0.1594 -0.2216
  603TIP3    H123300   2.567   0.715  13.265 -0.8353 -0.4130 -1.9328
  603TIP3    H223301   2.701   0.667  13.214 -0.8625 -0.1004 -2.3030
  604TIP3   OH223302   6.236   5.696  12.557  0.7202 -0.6324  0.4692
  604TIP3    H123303   6.239   5.622  12.617  0.7633 -1.3404 -0.3864
  604TIP3    H223304   6.158   5.745  12.584  0.1797 -1.4788  0.4829
  605TIP3   OH223305   6.459   5.403  11.632 -0.3659  0.4421 -0.2743
  605TIP3    H123306   6.481   5.407  11.539 -1.2480 -0.2694 -0.5264
  605TIP3    H223307   6.543   5.412  11.677 -0.2036  3.5802 -1.0301
  606TIP3   OH223308   6.594   6.082   2.658  0.0853 -0.7772  0.6623
  606TIP3    H123309   6.505   6.096   2.625 -0.1559 -2.1353  0.6577
  606TIP3    H223310   6.650   6.085   2.581  0.0421  0.0869  0.6656
  607TIP3   OH223311   0.882   4.180   2.990 -0.0010  0.4483 -0.6255
  607TIP3    H123312   0.868   4.094   2.950  0.6672 -0.0416  0.1616
  607TIP3    H223313   0.838   4.242   2.930 -0.6990 -0.4536 -1.0732
  608TIP3   OH223314   5.256   3.831   3.817  0.3106 -0.1085 -0.4059
  608TIP3    H123315   5.237   3.760   3.879 -2.6917  0.5824 -0.4094
  608TIP3    H223316   5.247   3.791   3.731 -2.4711  0.3978 -0.4334
  609TIP3   OH223317   3.343   2.876  16.820 -0.3430  0.4973 -0.3499
  609TIP3    H123318   3.267   2.933  16.805  0.4072  1.0061 -2.6174
  609TIP3    H223319   3.414   2.917  16.770  1.3854 -0.1114  1.4730
  610TIP3   OH223320   3.279   3.058  16.430 -0.5260  0.2516 -0.3403
  610TIP3    H123321   3.261   2.992  16.497 -0.2157  0.4258 -0.0847
  610TIP3    H223322   3.283   3.141  16.477  2.2383  0.1033 -0.1083
  611TIP3   OH223323   3.437   4.129  15.292  0.2350 -0.2535  0.1750
  611TIP3    H123324   3.431   4.221  15.317  1.8175 -0.0921  0.0458
  611TIP3    H223325   3.387   4.122  15.211  2.9525  1.2875 -1.7643
  612TIP3   OH223326   1.509   3.671  16.856  0.2653 -0.2358  0.6916
  612TIP3    H123327   1.424   3.637  16.826  0.4182 -1.4546  1.5586
  612TIP3    H223328   1.526   3.747  16.800 -1.5704  0.2577  0.7416
  613TIP3   OH223329   6.493   3.525  14.701  1.2857 -0.0489 -0.3863
  613TIP3    H123330   6.551   3.519  14.624  1.2533  0.6919 -0.4769
  613TIP3    H223331   6.406   3.502  14.667  1.7647 -2.9488  0.1136
  614TIP3   OH223332   1.144   5.669   2.313  0.8302  0.7050  0.3778
  614TIP3    H123333   1.204   5.597   2.332  1.0940  1.1117  1.1170
  614TIP3    H223334   1.198   5.732   2.263  1.1633  1.2689  1.4157
  615TIP3   OH223335   3.793   3.396   5.151 -0.3067  0.4705  0.1607
  615TIP3    H123336   3.706   3.389   5.191 -0.3678 -0.5730 -0.1089
  615TIP3    H223337   3.776   3.431   5.064 -0.5934 -0.7169 -0.2790
  616TIP3   OH223338   3.413   2.223  10.578 -0.0594 -0.5135 -1.2163
  616TIP3    H123339   3.476   2.230  10.505  0.6683  0.3731 -0.5200
  616TIP3    H223340   3.366   2.141  10.560  1.1872 -1.1280 -1.8466
  617TIP3   OH223341   1.994   6.167   0.180  0.8959  0.3907 -0.1704
  617TIP3    H123342   1.920   6.113   0.151  1.1506  0.2545 -0.5761
  617TIP3    H223343   1.960   6.257   0.177  0.6601  0.3064 -0.0871
  618TIP3   OH223344   5.712   2.752   2.320  0.5409 -0.5768  0.5743
  618TIP3    H123345   5.684   2.713   2.402  1.1413 -1.2659  0.4679
  618TIP3    H223346   5.671   2.838   2.318 -0.8094 -1.1894  0.8301
  619TIP3   OH223347   0.195   5.377   6.204 -0.3218  0.0575 -0.1046
  619TIP3    H123348   0.262   5.444   6.222  0.1216  0.2971 -2.3076
  619TIP3    H223349   0.115   5.427   6.189 -0.8092 -0.1695  1.5508
  620TIP3   OH223350   4.198   1.932   2.348  0.4321 -0.1638 -0.2868
  620TIP3    H123351   4.203   2.010   2.403  0.8125 -0.7631  0.5578
  620TIP3    H223352   4.108   1.930   2.317  0.4925  0.7567 -0.5480
  621TIP3   OH223353   3.570   1.077  13.850 -0.4037  0.6107 -0.7817
  621TIP3    H123354   3.644   1.023  13.877 -2.3095 -1.6177  0.3501
  621TIP3    H223355   3.579   1.084  13.755  0.7074 -0.4990 -0.7849
  622TIP3   OH223356   2.698   2.093  14.928  0.0517  0.0858 -0.0200
  622TIP3    H123357   2.723   2.168  14.874  0.6195  0.7714  1.1434
  622TIP3    H223358   2.775   2.077  14.983 -0.7236 -0.1659  1.0220
  623TIP3   OH223359   2.814   0.762  13.097  0.9051  0.2444 -0.5239
  623TIP3    H123360   2.755   0.822  13.053  0.5933  0.5013  0.2228
  623TIP3    H223361   2.884   0.817  13.132  1.7627 -0.0910 -1.6524
  624TIP3   OH223362   0.802   6.411   5.221 -0.0647  0.4169  0.0142
  624TIP3    H123363   0.854   6.368   5.289  0.0170  3.4569  2.1030
  624TIP3    H223364   0.864   6.471   5.179 -0.9327  1.0931 -0.3222
  625TIP3   OH223365   6.594   5.561   2.428 -0.2087  0.5268 -0.1180
  625TIP3    H123366   6.653   5.619   2.380 -0.0176 -1.0053 -1.8399
  625TIP3    H223367   6.646   5.483   2.446 -1.4960 -0.6376 -1.2005
  626TIP3   OH223368   6.134   2.222  14.928  0.2373 -0.0233 -0.6747
  626TIP3    H123369   6.084   2.297  14.960  0.0187 -0.2791 -0.4156
  626TIP3    H223370   6.095   2.147  14.971 -0.0671 -0.3813 -1.5414
  627TIP3   OH223371   2.265   1.790  16.281  0.1937 -0.1169 -0.3863
  627TIP3    H123372   2.301   1.853  16.219 -1.2764  0.5403 -0.6156
  627TIP3    H223373   2.220   1.725  16.226  0.4917 -0.5805 -0.0875
  628TIP3   OH223374   5.024   2.924  15.008  0.6327  0.3173 -0.5530
  628TIP3    H123375   4.932   2.905  15.026  0.3710  1.3179 -0.7574
  628TIP3    H223376   5.031   2.919  14.912  0.3427  1.9941 -0.7060
  629TIP3   OH223377   2.601   5.647  14.285  0.1389 -0.0634 -0.1416
  629TIP3    H123378   2.695   5.653  14.268  0.0025  0.7539 -0.7016
  629TIP3    H223379   2.563   5.717  14.232 -0.8209 -0.5899 -0.1709
  630TIP3   OH223380   5.291   0.519  10.389 -0.3689 -0.7954  0.2462
  630TIP3    H123381   5.217   0.566  10.350 -1.5190 -1.3928  1.6330
  630TIP3    H223382   5.255   0.433  10.412  0.3636 -0.6002  2.2320
  631TIP3   OH223383   5.270   0.450   6.490  0.6345  0.3072  0.2075
  631TIP3    H123384   5.204   0.519   6.485 -1.8666 -1.9466 -0.1425
  631TIP3    H223385   5.301   0.440   6.400  1.1153  1.0353  0.2839
  632TIP3   OH223386   2.268   2.637  13.790  0.5513 -0.1433 -0.0538
  632TIP3    H123387   2.197   2.644  13.854  2.0083  0.2578  1.5942
  632TIP3    H223388   2.223   2.623  13.707 -1.4507 -0.0285  0.9313
  633TIP3   OH223389   4.258   5.458   2.954 -0.5263  0.2787  0.1563
  633TIP3    H123390   4.245   5.368   2.923  0.0444  1.1856 -3.0939
  633TIP3    H223391   4.353   5.466   2.964 -0.4141  0.9404 -1.2110
  634TIP3   OH223392   1.043   1.041   3.128  0.9546  0.5223 -0.2569
  634TIP3    H123393   0.985   0.966   3.114 -0.6752  1.8851 -1.2441
  634TIP3    H223394   1.108   1.010   3.191 -0.1586 -1.4437 -0.0002
  635TIP3   OH223395   2.149   0.044  15.301  0.1344 -0.3071  0.0041
  635TIP3    H123396   2.137  -0.042  15.340  0.8875  0.1109  1.2184
  635TIP3    H223397   2.240   0.067  15.320  0.1643  0.4320 -0.9714
  636TIP3   OH223398   2.152   4.956  12.633  0.0030  0.4740  0.0470
  636TIP3    H123399   2.075   4.934  12.686  0.7141 -0.1434  0.8368
  636TIP3    H223400   2.157   5.051  12.637 -1.2647  0.6087 -0.7968
  637TIP3   OH223401   2.756   5.826  16.809 -0.0258  0.3544 -0.0650
  637TIP3    H123402   2.728   5.838  16.900 -1.8276 -0.5312 -0.4427
  637TIP3    H223403   2.851   5.830  16.812 -0.0793  1.4284  1.6837
  638TIP3   OH223404   1.929   6.552  14.410  0.2452 -0.2148 -0.1248
  638TIP3    H123405   1.963   6.494  14.478  0.1876  0.1173  0.1861
  638TIP3    H223406   1.914   6.635  14.454  1.4341  0.3962 -0.8116
  639TIP3   OH223407   3.859   5.999  14.780  0.0370 -0.1265 -0.0088
  639TIP3    H123408   3.832   6.004  14.688  1.9214  1.9292 -0.5519
  639TIP3    H223409   3.778   5.985  14.829 -1.6858  2.9772 -1.6797
  640TIP3   OH223410   1.861   4.535  12.841  0.4531  0.2871 -0.5884
  640TIP3    H123411   1.889   4.573  12.758  0.2782  0.5160 -0.5459
  640TIP3    H223412   1.778   4.578  12.860 -0.3246 -0.9496 -1.0932
  641TIP3   OH223413   3.116   5.859   0.959 -0.3182  0.3590  0.4283
  641TIP3    H123414   3.128   5.772   0.997  2.8555 -0.1389 -1.3025
  641TIP3    H223415   3.058   5.905   1.020  0.1251 -2.0543  2.8626
  642TIP3   OH223416   5.688   4.958  16.093 -0.2827 -0.2248 -0.0117
  642TIP3    H123417   5.626   4.963  16.021  0.9068  1.1102 -1.0058
  642TIP3    H223418   5.767   4.919  16.054 -0.1530 -0.9999  0.9757
  643TIP3   OH223419   4.471   1.158  14.934 -0.4335 -0.3336  0.4806
  643TIP3    H123420   4.561   1.191  14.935 -0.5226  0.2870 -2.5307
  643TIP3    H223421   4.420   1.225  14.980  0.1783  1.1557 -0.9216
  644TIP3   OH223422   4.825   0.446   5.912 -0.0627 -0.0022 -0.2568
  644TIP3    H123423   4.907   0.418   5.952 -0.3269 -3.3777 -1.7478
  644TIP3    H223424   4.845   0.456   5.819 -1.0462  0.3402 -0.4474
  645TIP3   OH223425   5.698   2.196  11.210 -0.2522 -0.6866 -0.4575
  645TIP3    H123426   5.705   2.101  11.208 -0.5307 -0.7349  0.4126
  645TIP3    H223427   5.676   2.217  11.301  0.2594  0.2426 -0.5334
  646TIP3   OH223428   1.135   1.390  15.148 -0.4622  0.3598 -0.3960
  646TIP3    H123429   1.200   1.432  15.093 -0.9819  0.0878 -1.2287
  646TIP3    H223430   1.162   1.299  15.152  1.9143  0.9798  3.1632
  647TIP3   OH223431   2.272   0.966  16.606  0.3064  0.0206 -0.1629
  647TIP3    H123432   2.233   1.044  16.566 -1.3339 -0.1484  1.0027
  647TIP3    H223433   2.236   0.893  16.555 -0.7547 -0.1207  0.7464
  648TIP3   OH223434   0.890   3.793   0.371 -0.3686  0.1515  0.5206
  648TIP3    H123435   0.921   3.769   0.458 -1.5811 -1.5195  0.5380
  648TIP3    H223436   0.794   3.797   0.379 -0.6671 -1.8784 -1.0911
  649TIP3   OH223437   5.625   4.530  15.983 -0.2486  0.0415  0.6838
  649TIP3    H123438   5.546   4.577  16.011  1.0046  2.6199  0.1552
  649TIP3    H223439   5.643   4.565  15.895 -0.5670 -3.2690 -0.8693
  650TIP3   OH223440   4.781   4.491  13.054  0.4832  0.5927 -0.0129
  650TIP3    H123441   4.737   4.415  13.091  0.2833 -1.4777 -4.0048
  650TIP3    H223442   4.875   4.471  13.063  0.4370 -0.6561 -1.7650
  651TIP3   OH223443   1.335   4.271   1.895  0.3760  0.0766 -0.1000
  651TIP3    H123444   1.355   4.219   1.973  0.8307  2.0546  1.1882
  651TIP3    H223445   1.420   4.302   1.864  0.0327  1.1524 -0.0048
  652TIP3   OH223446   4.946   4.497  12.178  0.3422 -0.2810  0.0092
  652TIP3    H123447   5.033   4.459  12.172  0.1325 -0.6945 -0.4586
  652TIP3    H223448   4.925   4.524  12.089  0.8811  1.8572  0.4517
  653TIP3   OH223449   1.008   5.251   4.700 -0.5736 -0.0701  0.3861
  653TIP3    H123450   1.070   5.297   4.643  0.6555 -1.3697  0.6177
  653TIP3    H223451   1.063   5.206   4.764 -1.8862  0.9068  2.3033
  654TIP3   OH223452   5.728   0.906  14.611 -0.9614 -0.3094  0.3416
  654TIP3    H123453   5.677   0.881  14.534 -0.0567  2.2148 -1.1780
  654TIP3    H223454   5.819   0.889  14.587 -0.6480  0.7259  0.7253
  655TIP3   OH223455   4.157   2.999   4.041 -0.1111  0.2825 -0.1583
  655TIP3    H123456   4.145   3.055   3.964 -0.6857  0.8315  0.3128
  655TIP3    H223457   4.114   3.047   4.112  1.2010  0.2203  0.7080
  656TIP3   OH223458   1.255   3.798  16.062  0.2073 -0.0950 -0.3069
  656TIP3    H123459   1.304   3.826  15.985 -1.2646 -1.8402 -1.9797
  656TIP3    H223460   1.176   3.853  16.062 -1.3149 -2.1162 -1.9652
  657TIP3   OH223461   6.577   6.280   5.555  0.1300 -0.2579  0.0484
  657TIP3    H123462   6.576   6.317   5.643 -0.0664  0.2516 -0.1636
  657TIP3    H223463   6.665   6.298   5.523  1.2729 -3.1452  1.2457
  658TIP3   OH223464   3.735   3.824   3.578 -0.0319  0.3257 -0.0914
  658TIP3    H123465   3.830   3.832   3.585  0.2215 -1.7296 -0.4726
  658TIP3    H223466   3.713   3.859   3.492  0.3188  1.0863  0.1192
  659TIP3   OH223467   1.294   5.442   5.787  0.2122  0.3748  0.3351
  659TIP3    H123468   1.362   5.375   5.794 -0.4129 -0.2185  0.8052
  659TIP3    H223469   1.272   5.464   5.878 -0.4933  0.2835  0.1901
  660TIP3   OH223470   3.755   0.338  12.408 -0.2194 -0.1652  0.4246
  660TIP3    H123471   3.807   0.418  12.413  0.4649 -0.6597  1.5949
  660TIP3    H223472   3.769   0.295  12.492 -1.9248 -0.6910  0.4860
  661TIP3   OH223473   1.736   4.453   1.379 -0.0420  0.0377  0.2192
  661TIP3    H123474   1.735   4.396   1.456  1.1876 -0.9753 -0.4724
  661TIP3    H223475   1.737   4.542   1.415 -0.3167 -0.4023  1.3501
  662TIP3   OH223476   0.526   0.254   3.859 -0.4729 -0.3692 -0.0035
  662TIP3    H123477   0.483   0.211   3.933  3.3291 -3.3766  0.7965
  662TIP3    H223478   0.541   0.184   3.795  0.0572  1.2618 -1.7692
  663TIP3   OH223479   3.407   3.949  14.281 -0.1747 -0.2375  0.1284
  663TIP3    H123480   3.350   3.875  14.260 -0.2672 -0.4369  1.0083
  663TIP3    H223481   3.452   3.922  14.362 -0.9144  1.0255  1.0017
  664TIP3   OH223482   0.109   2.951  13.780  0.0895 -0.1754  0.1880
  664TIP3    H123483   0.079   3.004  13.854  0.5493  0.9447 -0.4063
  664TIP3    H223484   0.029   2.913  13.744 -0.0667 -1.5399  1.8135
  665TIP3   OH223485   3.255   0.242  12.343 -0.5917  0.1942 -0.1502
  665TIP3    H123486   3.227   0.194  12.265  2.2824 -1.7793 -0.1319
  665TIP3    H223487   3.327   0.297  12.312  0.9344 -1.0098  1.1397
  666TIP3   OH223488   5.290   5.739   5.874 -0.1435  0.1770  0.1051
  666TIP3    H123489   5.339   5.816   5.845  0.7795  0.2340  1.7419
  666TIP3    H223490   5.248   5.766   5.955 -1.9574 -0.2636 -0.6297
  667TIP3   OH223491   6.323   1.568   1.339 -0.0760 -0.0366 -0.4695
  667TIP3    H123492   6.235   1.533   1.354 -1.3570  3.2296  0.3864
  667TIP3    H223493   6.358   1.582   1.427  0.6655  0.1500 -0.7904
  668TIP3   OH223494   0.641   1.295   1.362 -0.7710  0.0343 -0.4203
  668TIP3    H123495   0.631   1.335   1.276  0.0637  1.0558 -0.0589
  668TIP3    H223496   0.575   1.225   1.363 -0.0553 -0.7432 -2.2985
  669TIP3   OH223497   1.934   0.561  16.918  0.4040 -0.3973  0.1207
  669TIP3    H123498   1.984   0.623  16.970 -0.3715 -0.3951  0.8940
  669TIP3    H223499   1.961   0.577  16.828 -0.0336  1.3088  0.2590
  670TIP3   OH223500   4.536   1.400  13.701 -1.0852 -0.4244 -0.6184
  670TIP3    H123501   4.544   1.458  13.626  0.9653  0.5964  0.3222
  670TIP3    H223502   4.563   1.314  13.669  0.1710  0.0875 -0.9820
  671TIP3   OH223503   0.487   3.504  11.126 -0.1973  0.1566  0.1377
  671TIP3    H123504   0.479   3.562  11.201 -0.1909 -0.9382  1.0050
  671TIP3    H223505   0.458   3.558  11.052 -1.5306  0.8447  1.1037
  672TIP3   OH223506   0.648   0.012   3.717 -0.0990 -0.3389 -0.0516
  672TIP3    H123507   0.718   0.074   3.694 -1.6429  1.6097  0.1654
  672TIP3    H223508   0.617  -0.022   3.633  1.5299 -1.7859 -0.1112
  673TIP3   OH223509   0.686   2.034   3.119 -0.0124  0.4931 -0.7210
  673TIP3    H123510   0.725   1.972   3.181  0.8268  1.2538 -0.4648
  673TIP3    H223511   0.611   1.987   3.083  0.1422 -0.3824  0.0389
  674TIP3   OH223512   4.776   1.248  11.053 -0.1364 -0.3402  0.4814
  674TIP3    H123513   4.720   1.324  11.036  0.3184  0.2440  1.5263
  674TIP3    H223514   4.821   1.233  10.970 -1.8598 -0.8700 -0.4075
  675TIP3   OH223515   6.441   4.176   2.302  0.5516 -0.4118  0.3952
  675TIP3    H123516   6.383   4.114   2.258 -0.3686  0.4698  0.3398
  675TIP3    H223517   6.432   4.155   2.395  0.0383 -0.1977  0.3969
  676TIP3   OH223518   5.778   2.278   1.288  0.2733  0.7052  0.2017
  676TIP3    H123519   5.799   2.196   1.334  0.6096  0.5957 -0.1442
  676TIP3    H223520   5.694   2.305   1.326 -2.3929 -2.2614 -2.8651
  677TIP3   OH223521   3.669   2.824  12.099  0.1899  0.2309  0.4156
  677TIP3    H123522   3.664   2.919  12.094 -0.9882  0.2124  0.7842
  677TIP3    H223523   3.595   2.794  12.046  1.2968 -0.5303 -0.7600
  678TIP3   OH223524   1.847   2.766  13.155 -0.3252 -0.1239  0.8714
  678TIP3    H123525   1.753   2.779  13.140 -0.5342 -1.1651  1.1929
  678TIP3    H223526   1.861   2.796  13.244 -0.7506 -1.6804  1.5069
  679TIP3   OH223527   2.782   3.437   2.781 -0.0718 -0.3205 -0.1645
  679TIP3    H123528   2.693   3.440   2.815 -0.6712  1.2928 -1.6981
  679TIP3    H223529   2.781   3.366   2.717  0.2418 -1.3839  0.9648
  680TIP3   OH223530   0.601   2.379   5.127 -0.3226 -0.4471  0.5243
  680TIP3    H123531   0.589   2.382   5.222 -1.8422 -2.2765  0.4666
  680TIP3    H223532   0.690   2.346   5.115  0.1899  0.6105  1.2714
  681TIP3   OH223533   1.115   5.223   2.760 -0.2969  0.1281  0.4964
  681TIP3    H123534   1.035   5.220   2.813 -2.6666  1.3069 -2.6559
  681TIP3    H223535   1.134   5.316   2.751  0.1038 -0.0531 -0.6139
  682TIP3   OH223536   2.069   1.302   4.875  0.4033 -0.1404 -0.0605
  682TIP3    H123537   2.015   1.231   4.910  1.7215 -1.2179 -0.1055
  682TIP3    H223538   2.018   1.339   4.804 -1.7160  1.1304  1.9966
  683TIP3   OH223539   3.030   4.937  12.967  0.1791  0.2046 -0.5877
  683TIP3    H123540   2.954   4.880  12.977 -0.6305  1.4933  0.8964
  683TIP3    H223541   3.061   4.919  12.878 -0.3574 -2.1235 -0.3693
  684TIP3   OH223542   6.162   5.903   0.378 -0.5714  0.2586 -0.2260
  684TIP3    H123543   6.179   5.932   0.288  0.1915  0.7661  0.0749
  684TIP3    H223544   6.180   5.809   0.376 -1.6172  0.0491 -0.8541
  685TIP3   OH223545   5.668   6.609   6.432  0.5222 -0.0100  0.3204
  685TIP3    H123546   5.750   6.620   6.481  0.2274  0.3409  0.7396
  685TIP3    H223547   5.690   6.545   6.363  2.0106  2.2571 -1.4767
  686TIP3   OH223548   3.816   6.685   4.556 -0.2063  0.4863 -0.2607
  686TIP3    H123549   3.751   6.638   4.609 -0.3566 -0.0385 -0.9086
  686TIP3    H223550   3.776   6.694   4.470  1.0489 -0.9176 -1.0258
  687TIP3   OH223551   0.136   2.810  15.548 -0.5229 -0.2168  0.6100
  687TIP3    H123552   0.111   2.900  15.565 -1.4838 -0.2115 -0.7299
  687TIP3    H223553   0.195   2.814  15.473  0.4248 -0.6150  1.2971
  688TIP3   OH223554   1.792   0.686   3.281  0.2209 -0.2394 -0.2257
  688TIP3    H123555   1.866   0.647   3.327 -0.4708 -1.8326 -0.4066
  688TIP3    H223556   1.716   0.663   3.334 -0.5557 -1.8275 -1.9004
  689TIP3   OH223557   5.861   0.491  15.856  0.0960 -0.2308  0.1568
  689TIP3    H123558   5.894   0.517  15.770 -0.3580 -0.8534 -0.2109
  689TIP3    H223559   5.910   0.546  15.917  0.8912 -0.2337 -0.4524
  690TIP3   OH223560   1.723   4.219  11.547 -0.5267  0.5271 -0.2974
  690TIP3    H123561   1.673   4.292  11.585 -2.1039  0.3013 -1.7915
  690TIP3    H223562   1.668   4.188  11.474  0.0142 -2.2429  0.3542
  691TIP3   OH223563   4.223   0.486   4.845 -0.6166  0.5668  0.1085
  691TIP3    H123564   4.313   0.490   4.812  0.2937 -2.8030  1.7034
  691TIP3    H223565   4.212   0.568   4.893  1.7060  1.0011  0.0378
  692TIP3   OH223566   4.447   4.177  13.769 -0.3228  0.0962 -0.0152
  692TIP3    H123567   4.487   4.169  13.683  1.0916  0.5381  0.5593
  692TIP3    H223568   4.362   4.135  13.761 -0.2825  0.2713 -1.6587
  693TIP3   OH223569   4.828   2.359   2.562  0.0142  0.1310 -0.3880
  693TIP3    H123570   4.883   2.362   2.641  0.8852 -0.4779 -0.9533
  693TIP3    H223571   4.792   2.270   2.561  0.1782  0.0693 -0.7944
  694TIP3   OH223572   6.216   2.637   1.479 -0.2158 -0.4764  0.0829
  694TIP3    H123573   6.210   2.541   1.477 -0.4313 -0.4606 -0.3999
  694TIP3    H223574   6.135   2.666   1.436 -0.7665 -0.0504  1.3495
  695TIP3   OH223575   2.263   6.686   1.586  0.1213 -0.1721 -0.1410
  695TIP3    H123576   2.297   6.754   1.643 -1.9205 -0.2892  1.3085
  695TIP3    H223577   2.262   6.725   1.499  1.7941  0.5582  0.1352
  696TIP3   OH223578   6.090   1.242   2.492  0.5586  0.2042 -0.5699
  696TIP3    H123579   6.013   1.196   2.457  0.2900 -0.5991  0.9715
  696TIP3    H223580   6.115   1.304   2.423  0.3568 -1.5912 -2.3244
  697TIP3   OH223581   5.259   4.349   4.005  0.3698 -0.1336  0.7002
  697TIP3    H123582   5.245   4.396   3.923 -0.4159  0.3645  1.1012
  697TIP3    H223583   5.171   4.338   4.041  0.4636 -2.3705  0.3850
  698TIP3   OH223584   3.061   0.705  11.461 -0.2004 -0.6319 -0.6901
  698TIP3    H123585   3.100   0.789  11.486 -0.0707 -0.4525 -1.4837
  698TIP3    H223586   3.135   0.653  11.429 -0.3620 -0.8772 -0.6728
  699TIP3   OH223587   5.264   2.306   1.801  0.0005 -0.5950  0.3724
  699TIP3    H123588   5.270   2.373   1.869  0.2705 -0.6378  0.3918
  699TIP3    H223589   5.295   2.226   1.844  1.2660 -0.3960 -0.1165
  700TIP3   OH223590   0.515   0.802   5.233 -0.2203  0.1684 -0.1330
  700TIP3    H123591   0.467   0.881   5.211 -0.9591 -0.6103 -1.4490
  700TIP3    H223592   0.565   0.782   5.154  3.1914  1.5259  1.5061
  701TIP3   OH223593   5.165   4.041  15.358  0.1453 -0.0191  0.2356
  701TIP3    H123594   5.162   4.063  15.265  0.5273 -1.0179 -0.0242
  701TIP3    H223595   5.137   3.949  15.361 -0.7524  0.2728  1.2046
  702TIP3   OH223596   3.081   1.371   1.019  0.2046 -0.5144 -0.0302
  702TIP3    H123597   3.137   1.369   0.941  2.2243 -1.9468  1.3468
  702TIP3    H223598   3.109   1.449   1.066  1.3293 -1.3701  0.7877
  703TIP3   OH223599   2.635   2.203   0.335  0.8338 -0.5298 -0.5021
  703TIP3    H123600   2.601   2.275   0.282  1.0498 -0.4475 -0.5315
  703TIP3    H223601   2.646   2.241   0.422 -0.3783 -0.9077 -0.1614
  704TIP3   OH223602   0.294   1.601   4.073 -0.0159  0.4149 -0.1665
  704TIP3    H123603   0.221   1.663   4.080  0.5039  1.2454 -1.5597
  704TIP3    H223604   0.371   1.652   4.096  0.3273  0.0792 -0.5561
  705TIP3   OH223605   6.326   6.212  16.005 -0.1904 -0.3198  0.6536
  705TIP3    H123606   6.287   6.239  15.922 -0.5421 -0.3476  0.8068
  705TIP3    H223607   6.257   6.229  16.070  0.2051  0.0338  0.9847
  706TIP3   OH223608   1.813   2.184   3.925  0.1386 -0.7070  0.2434
  706TIP3    H123609   1.745   2.191   3.858  0.2152 -0.1148  0.2230
  706TIP3    H223610   1.765   2.177   4.007  0.0210  1.3322  0.4007
  707TIP3   OH223611   5.080   4.784   0.549 -0.3016 -0.2947  0.2259
  707TIP3    H123612   5.006   4.752   0.599 -0.3970  0.7816  0.7989
  707TIP3    H223613   5.156   4.769   0.605 -0.0141 -1.7058 -0.4960
  708TIP3   OH223614   2.265   3.085  16.808 -0.4996 -0.1359  0.0247
  708TIP3    H123615   2.322   3.077  16.885 -1.1382 -0.3024  0.4895
  708TIP3    H223616   2.177   3.077  16.843 -0.7698 -1.4999 -0.8833
  709TIP3   OH223617   4.942   4.829  14.667 -0.3972 -0.0828 -0.0009
  709TIP3    H123618   4.900   4.880  14.736  2.0449  1.8167  0.2162
  709TIP3    H223619   4.998   4.767  14.713 -0.6722 -0.5333 -0.2702
  710TIP3   OH223620   6.751   3.079  11.091  0.5650 -0.4367 -0.2882
  710TIP3    H123621   6.733   3.111  11.003 -0.2429  2.0491  0.6672
  710TIP3    H223622   6.672   3.031  11.116 -0.3456  1.1369 -0.0144
  711TIP3   OH223623   5.557   0.991   4.451  0.0656 -0.0484 -0.6544
  711TIP3    H123624   5.468   0.971   4.422 -0.3919 -0.5188  0.9399
  711TIP3    H223625   5.594   0.906   4.475  0.1356  0.3525  0.7836
  712TIP3   OH223626   4.009   3.444   0.449  0.1503  0.1551  0.8263
  712TIP3    H123627   4.036   3.536   0.455 -0.1865  0.4025 -1.0306
  712TIP3    H223628   4.063   3.400   0.514  2.8821  1.1154 -0.6598
  713TIP3   OH223629   3.885   3.793  11.834 -0.2103  0.4864 -0.6547
  713TIP3    H123630   3.870   3.721  11.772 -0.8023  0.0909 -0.0721
  713TIP3    H223631   3.827   3.863  11.803 -2.0729 -0.4179  0.5692
  714TIP3   OH223632   0.471   1.770   3.835 -0.1834 -0.1647 -0.5450
  714TIP3    H123633   0.496   1.681   3.861  0.4741  0.2008  0.1197
  714TIP3    H223634   0.402   1.757   3.770 -0.1597 -1.1588 -0.3968
  715TIP3   OH223635   1.926   2.410  14.539  0.3887  0.4295  0.5305
  715TIP3    H123636   1.914   2.316  14.551 -0.6859  0.7760  2.5873
  715TIP3    H223637   1.850   2.450  14.580 -0.2185  2.1905 -2.0369
  716TIP3   OH223638   0.567   1.133   3.738 -0.4640  0.0362 -0.3253
  716TIP3    H123639   0.596   1.149   3.648 -0.7126  0.1981 -0.3789
  716TIP3    H223640   0.524   1.047   3.735 -1.8245  0.7019 -0.6964
  717TIP3   OH223641   0.902   0.469  13.990  0.2770 -0.3995 -0.3059
  717TIP3    H123642   0.825   0.411  13.989  1.4693 -2.0829  0.3956
  717TIP3    H223643   0.886   0.529  14.064 -0.5901 -0.3821 -0.4969
  718TIP3   OH223644   3.964   0.382   3.675 -0.3712 -0.2674  1.0278
  718TIP3    H123645   3.955   0.312   3.611  0.0929 -0.6928  1.4189
  718TIP3    H223646   3.955   0.463   3.624  4.0057 -0.3837 -0.3822
  719TIP3   OH223647   1.629   1.403   3.743  0.1573 -0.1290 -0.2585
  719TIP3    H123648   1.718   1.374   3.725  1.0543  1.2063  1.6875
  719TIP3    H223649   1.605   1.456   3.667  1.1882 -0.1275 -0.5904
  720TIP3   OH223650   4.517   5.503   2.970 -0.0466  0.4357 -0.3423
  720TIP3    H123651   4.592   5.548   3.008 -0.0804  0.8672 -0.7809
  720TIP3    H223652   4.544   5.482   2.880 -0.4292  0.5639 -0.4926
  721TIP3   OH223653   6.306   0.466  13.663  0.0617 -0.1446  0.4022
  721TIP3    H123654   6.249   0.476  13.587  0.0592 -0.5703  0.3451
  721TIP3    H223655   6.364   0.394  13.640  0.2913 -0.0444  0.6643
  722TIP3   OH223656   3.163   2.017  16.785  0.5671 -0.1963  0.0659
  722TIP3    H123657   3.077   2.044  16.817  0.0067 -1.3583 -0.4170
  722TIP3    H223658   3.145   1.975  16.701  1.6707 -0.0045 -0.2818
  723TIP3   OH223659   3.500   1.716  14.190 -0.0260  0.1056  0.6150
  723TIP3    H123660   3.577   1.737  14.136 -2.6354  1.4844 -2.9548
  723TIP3    H223661   3.468   1.801  14.219 -0.3964 -0.4405  1.8564
  724TIP3   OH223662   2.809   2.244   0.102  0.0800  0.3438  0.1139
  724TIP3    H123663   2.746   2.259   0.173 -0.6369 -0.7595 -0.2619
  724TIP3    H223664   2.874   2.184   0.139  0.4178  0.7687  0.2197
  725TIP3   OH223665   2.624   4.001   4.921 -0.1148  0.2432 -0.2512
  725TIP3    H123666   2.690   3.949   4.876  0.4954  0.7221  0.0745
  725TIP3    H223667   2.614   4.079   4.868 -0.6269  0.0503 -0.4456
  726TIP3   OH223668   5.185   3.390   3.764 -0.2654  0.5931  0.1079
  726TIP3    H123669   5.254   3.369   3.828 -1.0068  1.1906  1.1287
  726TIP3    H223670   5.111   3.418   3.817 -1.4513 -0.4077 -0.9503
  727TIP3   OH223671   5.691   2.326   3.532 -0.3990 -0.2126  0.0758
  727TIP3    H123672   5.770   2.301   3.580 -0.7342 -1.6011 -0.0577
  727TIP3    H223673   5.702   2.287   3.446 -0.2860  1.3747 -0.6752
  728TIP3   OH223674   3.425   1.776   2.175  0.5741 -0.1721 -0.6201
  728TIP3    H123675   3.503   1.728   2.206  0.1009 -0.2861  0.4343
  728TIP3    H223676   3.441   1.867   2.200 -0.0728 -0.3577  0.5452
  729TIP3   OH223677   4.567   2.850   4.752 -0.3566 -0.4942  1.1236
  729TIP3    H123678   4.616   2.780   4.793 -2.1323 -2.4553  0.1198
  729TIP3    H223679   4.586   2.927   4.805  2.8515 -1.3306  1.3940
  730TIP3   OH223680   1.316   3.625  15.800 -0.2295 -0.2980  0.1247
  730TIP3    H123681   1.408   3.602  15.809  0.4088  2.3221  1.0979
  730TIP3    H223682   1.293   3.599  15.711  1.2656 -1.5098  0.0662
  731TIP3   OH223683   1.144   2.200  15.542 -0.0032 -0.6201 -0.0879
  731TIP3    H123684   1.136   2.171  15.633 -1.3980 -0.1850 -0.0614
  731TIP3    H223685   1.062   2.245  15.523  1.0153  0.9431 -0.9872
  732TIP3   OH223686   4.443   1.502  11.690  0.0162 -0.2100  0.0983
  732TIP3    H123687   4.400   1.459  11.616 -0.3364  1.3797 -0.6863
  732TIP3    H223688   4.410   1.592  11.686 -0.5996 -0.2590  2.6514
  733TIP3   OH223689   1.247   4.952  14.855  0.2022 -0.3466  0.4940
  733TIP3    H123690   1.303   4.973  14.929  0.8280  2.2829 -0.6149
  733TIP3    H223691   1.158   4.966  14.887  0.2128 -2.3976  1.6094
  734TIP3   OH223692   2.014   1.305   1.965 -0.3260 -0.6875 -0.1021
  734TIP3    H123693   2.038   1.234   1.905  3.9054 -0.2507  0.7379
  734TIP3    H223694   2.031   1.269   2.052 -1.0013  0.4570  0.5162
  735TIP3   OH223695   0.943   3.662  17.129  0.5193 -0.2696 -0.6097
  735TIP3    H123696   1.027   3.650  17.173  0.0666  0.3955  0.4664
  735TIP3    H223697   0.966   3.691  17.041  1.4244  1.8559  0.2607
  736TIP3   OH223698   1.116   0.685   6.590  0.5240  0.7111 -0.0326
  736TIP3    H123699   1.068   0.766   6.575 -1.0747  0.3104  2.3057
  736TIP3    H223700   1.063   0.617   6.548  0.3827  0.5752  0.3565
  737TIP3   OH223701   5.993   2.215  14.340  0.4048 -0.1010 -0.1459
  737TIP3    H123702   5.928   2.229  14.409  0.4722 -0.7170  0.0468
  737TIP3    H223703   6.071   2.185  14.386  0.3422 -0.8536 -0.5186
  738TIP3   OH223704   5.474   0.561   5.743 -0.6537  0.5094  0.3577
  738TIP3    H123705   5.553   0.595   5.784  0.3011 -2.2345  1.0081
  738TIP3    H223706   5.489   0.571   5.649  1.8329 -2.3954  0.2890
  739TIP3   OH223707   4.322   5.843  16.924  0.2600 -0.0290 -0.8032
  739TIP3    H123708   4.295   5.757  16.955 -1.3695  0.8050  0.1811
  739TIP3    H223709   4.292   5.846  16.833  1.1478 -0.8155 -1.1448
  740TIP3   OH223710   4.718   1.862   2.135 -0.2176  0.3239 -0.4053
  740TIP3    H123711   4.656   1.815   2.079 -1.5522  0.2090  1.0668
  740TIP3    H223712   4.747   1.796   2.199 -0.5748  0.9940  0.4679
  741TIP3   OH223713   4.440   4.445  13.552  0.3385  0.6102  0.9391
  741TIP3    H123714   4.427   4.371  13.611  3.4918 -0.8127  0.1019
  741TIP3    H223715   4.517   4.491  13.588  1.1858  0.7906 -0.9518
  742TIP3   OH223716   6.161   5.206  12.526 -0.1732 -0.0322 -0.6387
  742TIP3    H123717   6.253   5.182  12.529 -0.7012 -2.1220  1.3500
  742TIP3    H223718   6.142   5.215  12.433  2.0096  0.4745 -1.0911
  743TIP3   OH223719   3.076   6.812   2.922 -0.7326 -0.2360 -0.6976
  743TIP3    H123720   3.127   6.842   2.997 -0.0848  1.3719 -1.7217
  743TIP3    H223721   3.099   6.720   2.911  0.4883 -0.0303  0.0218
  744TIP3   OH223722   1.657   2.571  10.983  0.2734  0.1316  0.3093
  744TIP3    H123723   1.637   2.515  11.058 -0.3032 -0.1693 -0.0575
  744TIP3    H223724   1.751   2.589  10.990  0.6880 -1.6795 -0.0779
  745TIP3   OH223725   3.736   0.531  11.830 -0.6643 -0.3064 -0.7139
  745TIP3    H123726   3.691   0.482  11.761 -0.7767  1.2840 -1.8464
  745TIP3    H223727   3.752   0.617  11.791 -0.3317  0.5122  1.1137
  746TIP3   OH223728   6.654   6.652   4.292  0.0703  0.1605 -0.3299
  746TIP3    H123729   6.644   6.688   4.203 -2.7576 -0.2809 -0.2905
  746TIP3    H223730   6.618   6.564   4.287  1.2805 -0.4520  0.9665
  747TIP3   OH223731   0.460   0.731  12.966 -0.0738  0.2501 -0.5690
  747TIP3    H123732   0.510   0.743  13.046 -0.7613  2.7465 -0.4356
  747TIP3    H223733   0.503   0.658  12.921  1.3712 -0.0719  1.2355
  748TIP3   OH223734   5.478   4.696  10.805 -0.2783  0.5277 -0.3752
  748TIP3    H123735   5.438   4.675  10.721  0.3899 -0.8969 -0.3802
  748TIP3    H223736   5.487   4.791  10.805 -1.1269  0.6271 -1.5169
  749TIP3   OH223737   5.886   0.748  16.383  0.8531  0.2711 -0.7864
  749TIP3    H123738   5.974   0.712  16.381  1.1323  0.9352 -1.6245
  749TIP3    H223739   5.834   0.689  16.328  0.7843 -0.0990 -0.3236
  750TIP3   OH223740   1.411   2.964  12.267  0.2878 -0.7418  0.3325
  750TIP3    H123741   1.459   2.941  12.347  2.7183  1.0949 -0.4532
  750TIP3    H223742   1.341   3.022  12.298  1.2056 -0.0351  1.1589
  751TIP3   OH223743   0.254   0.067  11.621  0.1235  0.0989 -0.4370
  751TIP3    H123744   0.233   0.000  11.556 -0.7277 -0.1877  0.1174
  751TIP3    H223745   0.199   0.142  11.597  1.2588  0.7340 -1.2115
  752TIP3   OH223746   0.140   0.975   0.546 -0.1123  0.1081  0.0481
  752TIP3    H123747   0.140   0.887   0.583  0.0057  0.6188  1.3196
  752TIP3    H223748   0.219   0.978   0.491 -1.0608 -1.1275 -1.4360
  753TIP3   OH223749   2.300   1.354  12.904 -0.0475 -0.1405  0.3760
  753TIP3    H123750   2.354   1.394  12.836 -0.1528 -1.9914 -0.8713
  753TIP3    H223751   2.213   1.393  12.892 -0.0071 -0.2771 -0.4164
  754TIP3   OH223752   5.084   2.066   3.530  0.2972  0.4187  0.0895
  754TIP3    H123753   5.063   2.012   3.607 -1.3333 -0.9060 -1.2141
  754TIP3    H223754   5.166   2.028   3.497 -1.3738 -2.2132 -1.4576
  755TIP3   OH223755   3.546   1.020  14.853  0.1761 -0.4012 -0.6090
  755TIP3    H123756   3.540   0.949  14.917 -1.3778 -0.9573 -1.3276
  755TIP3    H223757   3.462   1.065  14.859  0.5182  0.3657 -1.3300
  756TIP3   OH223758   2.870   4.654   4.889 -0.4431 -0.3466  0.2626
  756TIP3    H123759   2.928   4.687   4.958  1.7423 -0.5965 -1.3464
  756TIP3    H223760   2.906   4.691   4.808 -1.8018 -1.5535 -0.9461
  757TIP3   OH223761   2.806   2.016  12.419  0.4382  0.0708 -0.3214
  757TIP3    H123762   2.851   2.100  12.430 -0.6676  0.6456 -0.0222
  757TIP3    H223763   2.841   1.960  12.488 -1.7413  1.6105  2.2346
  758TIP3   OH223764   4.777   1.155   1.507 -0.6384 -0.1444 -0.6550
  758TIP3    H123765   4.866   1.162   1.472 -1.4469  1.3131 -2.6225
  758TIP3    H223766   4.786   1.172   1.601  0.9019  2.3842 -1.1626
  759TIP3   OH223767   6.131   4.624  13.017 -0.1384 -0.1818 -0.3640
  759TIP3    H123768   6.045   4.655  12.987  0.4222  1.0407 -0.7535
  759TIP3    H223769   6.159   4.562  12.950 -0.1803  0.3414 -0.8673
  760TIP3   OH223770   5.277   6.040   1.493 -0.8449 -0.7733 -0.0963
  760TIP3    H123771   5.279   6.092   1.573  0.0378 -0.1170 -0.5258
  760TIP3    H223772   5.335   5.966   1.512  1.4846  0.7136 -0.9609
  761TIP3   OH223773   2.464   4.055  13.249  0.1188 -0.1067  0.1612
  761TIP3    H123774   2.369   4.049  13.250 -0.1374  2.4192 -1.1053
  761TIP3    H223775   2.486   4.070  13.157  1.8857 -1.9288  0.2252
  762TIP3   OH223776   4.467   5.823  16.460  0.7070  0.8235  0.1402
  762TIP3    H123777   4.383   5.838  16.503 -0.5040  1.0694 -2.1347
  762TIP3    H223778   4.505   5.910  16.449  0.8271  0.7986  0.3573
  763TIP3   OH223779   1.495   1.398  10.849 -0.1317 -0.5557 -0.0947
  763TIP3    H123780   1.561   1.331  10.867 -0.2287 -0.2808  1.3435
  763TIP3    H223781   1.423   1.350  10.807  1.4034 -0.6743 -2.8889
  764TIP3   OH223782   1.062   5.637   6.621  0.1000  0.2068 -0.6930
  764TIP3    H123783   1.119   5.676   6.555 -2.4601 -1.7558 -4.3854
  764TIP3    H223784   0.985   5.694   6.623 -0.0874 -0.0647  0.2541
  765TIP3   OH223785   5.965   2.136  12.575 -0.1769  0.1403 -0.1127
  765TIP3    H123786   5.922   2.115  12.658 -0.6751  3.1094  0.5263
  765TIP3    H223787   5.899   2.186  12.527  0.8745  0.4196 -1.3182
  766TIP3   OH223788   5.159   0.824  14.606 -0.6117 -0.3684 -0.6777
  766TIP3    H123789   5.191   0.737  14.583  1.0487  0.2466 -0.8157
  766TIP3    H223790   5.237   0.871  14.636 -1.5481  0.9466 -0.2303
  767TIP3   OH223791   5.819   3.027  16.644 -0.0172  0.2863 -0.3341
  767TIP3    H123792   5.807   2.981  16.561  1.1210 -1.2151  0.2828
  767TIP3    H223793   5.892   2.981  16.686 -1.0855  0.4712  1.8491
  768TIP3   OH223794   5.840   1.260  13.062 -0.2681  0.0569 -0.6291
  768TIP3    H123795   5.858   1.178  13.017  0.0913 -0.1953 -0.0492
  768TIP3    H223796   5.856   1.240  13.155  0.0010  0.8259 -0.5013
  769TIP3   OH223797   4.646   2.626   0.247  0.2364 -0.2277  0.2490
  769TIP3    H123798   4.706   2.552   0.236  1.5223  0.7518  0.3230
  769TIP3    H223799   4.593   2.603   0.323 -0.5857 -1.8121 -0.7460
  770TIP3   OH223800   0.985   5.971   1.855 -0.1665  0.6399 -0.2579
  770TIP3    H123801   0.943   6.018   1.783 -0.0116  0.5918 -0.3833
  770TIP3    H223802   1.039   5.905   1.811 -0.0154  0.6561 -0.0982
  771TIP3   OH223803   6.411   2.203  14.290  0.1206 -0.0679  0.2631
  771TIP3    H123804   6.473   2.137  14.319  1.6370  0.6181 -1.2874
  771TIP3    H223805   6.453   2.246  14.215 -1.8458  1.0176 -0.3071
  772TIP3   OH223806   1.554   5.307  11.910 -0.2876 -0.1313 -0.2527
  772TIP3    H123807   1.519   5.245  11.845  1.0342 -2.0332  0.7574
  772TIP3    H223808   1.528   5.393  11.877 -0.4495 -1.0722 -2.8165
  773TIP3   OH223809   3.229   6.632   1.029 -0.2067 -0.8744 -0.1116
  773TIP3    H123810   3.268   6.579   1.099  1.2942 -0.0552 -0.2912
  773TIP3    H223811   3.260   6.721   1.046 -1.7406 -0.2425 -0.4852
  774TIP3   OH223812   0.199   4.337  14.213  0.1992 -0.8156 -0.7422
  774TIP3    H123813   0.204   4.251  14.171  0.0354 -0.5008 -1.4101
  774TIP3    H223814   0.121   4.377  14.175  1.4162  0.4526 -1.9836
  775TIP3   OH223815   2.768   6.013   3.595  0.3322  0.2536  0.1811
  775TIP3    H123816   2.713   6.059   3.658  1.1493  0.3474  0.8278
  775TIP3    H223817   2.753   5.920   3.614 -0.0599  0.2692 -0.0428
  776TIP3   OH223818   2.718   2.677   1.627 -0.1678  0.2852 -0.1241
  776TIP3    H123819   2.786   2.639   1.572  1.3102  2.9323 -0.3001
  776TIP3    H223820   2.683   2.750   1.575 -1.0356  0.8154  1.1591
  777TIP3   OH223821   1.815   3.204   4.176  0.5185 -0.5624  0.0135
  777TIP3    H123822   1.732   3.218   4.221  0.6221 -2.4101  0.8802
  777TIP3    H223823   1.852   3.292   4.165 -2.1730  0.4501 -1.7120
  778TIP3   OH223824   4.229   6.219  15.590 -0.1842  0.7647 -0.3537
  778TIP3    H123825   4.146   6.223  15.542  1.2215  0.9042 -2.9491
  778TIP3    H223826   4.245   6.309  15.618  0.5546  1.4064 -2.6398
  779TIP3   OH223827   1.582   5.343  13.729  0.0413 -0.2677  0.5505
  779TIP3    H123828   1.541   5.430  13.726  0.0945 -0.2439  0.5125
  779TIP3    H223829   1.509   5.282  13.715 -0.2476 -0.3096  2.0702
  780TIP3   OH223830   2.924   4.420  14.053  0.1660 -0.5268  0.4599
  780TIP3    H123831   2.889   4.381  14.133  0.8433 -0.8348  0.6105
  780TIP3    H223832   3.015   4.390  14.049 -0.0944 -1.2147 -0.8810
  781TIP3   OH223833   3.303   5.201   5.261 -1.0791  0.4346 -0.8440
  781TIP3    H123834   3.393   5.232   5.276 -1.1219  0.1247  0.1071
  781TIP3    H223835   3.288   5.217   5.168 -0.6797  2.1586 -0.6439
  782TIP3   OH223836   1.368   5.111  15.337 -0.1772  0.1839  0.2607
  782TIP3    H123837   1.394   5.203  15.335  1.7572 -0.3261 -0.5005
  782TIP3    H223838   1.333   5.098  15.425  1.2278  1.2472  1.0232
  783TIP3   OH223839   2.401   4.397   2.859 -0.1993  0.0717 -0.0759
  783TIP3    H123840   2.386   4.390   2.954 -1.3448 -1.5574 -0.3379
  783TIP3    H223841   2.382   4.489   2.839  0.7118  0.6176  1.3627
  784TIP3   OH223842   4.602   2.096  16.806  0.3570  0.1622  0.1438
  784TIP3    H123843   4.649   2.176  16.782 -1.2975  0.8678 -1.0390
  784TIP3    H223844   4.631   2.031  16.742  1.4598 -0.1069  0.9006
  785TIP3   OH223845   2.128   1.040  13.620  0.4312 -0.9276 -0.1111
  785TIP3    H123846   2.167   1.124  13.595  1.2191 -1.0139  0.7900
  785TIP3    H223847   2.097   1.003  13.537 -1.3877  0.9505 -0.3509
  786TIP3   OH223848   1.851   4.188   6.236 -0.1790  0.3726 -0.3022
  786TIP3    H123849   1.784   4.246   6.272 -1.1038 -0.9708  0.2287
  786TIP3    H223850   1.833   4.103   6.276  0.5557 -0.5163 -1.7644
  787TIP3   OH223851   2.977   5.670   1.947  0.0790 -0.3543 -0.4856
  787TIP3    H123852   2.931   5.720   1.881 -0.1485 -0.2245 -0.2287
  787TIP3    H223853   2.927   5.588   1.955  0.1834 -0.4268 -0.5708
  788TIP3   OH223854   4.069   0.063  10.220  0.7685  0.2841  0.0126
  788TIP3    H123855   4.033   0.115  10.292 -2.9958  0.2155 -1.5933
  788TIP3    H223856   4.141   0.015  10.260 -1.0396  0.2964  3.7716
  789TIP3   OH223857   6.267   5.775  11.703  0.6912 -0.0324 -0.0814
  789TIP3    H123858   6.325   5.838  11.746 -1.5312  2.0486  0.0860
  789TIP3    H223859   6.222   5.730  11.775 -0.1211  0.6001 -0.1743
  790TIP3   OH223860   5.273   4.107  13.823  0.0041 -0.3500 -0.0237
  790TIP3    H123861   5.248   4.187  13.869 -0.4581 -0.7093  0.3579
  790TIP3    H223862   5.215   4.104  13.747  1.6426  0.9439 -1.4413
  791TIP3   OH223863   3.918   2.766   3.363 -0.3368 -0.2702 -0.0013
  791TIP3    H123864   3.858   2.752   3.290  0.4437  0.6765 -0.8753
  791TIP3    H223865   3.863   2.769   3.441 -1.2601 -0.6924 -0.6299
  792TIP3   OH223866   2.246   1.634  11.980  0.7073  0.4237 -0.1092
  792TIP3    H123867   2.162   1.588  11.990  0.5393  0.7997  0.2278
  792TIP3    H223868   2.312   1.567  11.999  0.5147 -0.0561 -1.0335
  793TIP3   OH223869   5.514   0.927  14.014 -0.3972 -0.3448  0.0949
  793TIP3    H123870   5.517   0.991  13.943 -1.0939 -0.7486 -0.3176
  793TIP3    H223871   5.572   0.962  14.081 -0.4813  0.5270 -0.2772
  794TIP3   OH223872   2.670   2.889  16.270 -0.1171 -0.7600  0.3226
  794TIP3    H123873   2.696   2.853  16.355 -0.4169 -0.8435  0.3823
  794TIP3    H223874   2.729   2.963  16.255  0.0349 -0.8393  0.5318
  795TIP3   OH223875   3.173   4.698   3.814 -0.7003  0.2386  0.4803
  795TIP3    H123876   3.184   4.673   3.906  0.4479  0.1069  0.3109
  795TIP3    H223877   3.149   4.791   3.818 -0.6045  0.2497  0.9076
  796TIP3   OH223878   6.229   5.747   2.850 -0.1910  0.3590  0.4389
  796TIP3    H123879   6.163   5.746   2.781  2.0556 -0.3763 -1.8796
  796TIP3    H223880   6.279   5.666   2.837  2.3382  1.7434  0.7749
  797TIP3   OH223881   3.641   6.766  11.526  0.4015  0.8000  0.4585
  797TIP3    H123882   3.684   6.839  11.572  0.8436  0.3472  0.7820
  797TIP3    H223883   3.663   6.689  11.579  0.3772  0.3584 -0.1707
  798TIP3   OH223884   4.730   6.212  16.905  0.4314  0.6425  0.3179
  798TIP3    H123885   4.824   6.225  16.917  0.3714  4.6978 -1.8071
  798TIP3    H223886   4.723   6.170  16.819  0.2814  0.6896  0.3092
  799TIP3   OH223887   2.577   0.466   6.046  0.0674  0.0208 -0.5167
  799TIP3    H123888   2.619   0.425   6.121 -0.9018 -0.2023 -0.0740
  799TIP3    H223889   2.578   0.398   5.978  1.2197  0.3266 -0.8282
  800TIP3   OH223890   2.540   3.820  14.690  0.2848  0.3377  0.4929
  800TIP3    H123891   2.552   3.753  14.757  0.0516  1.0768  1.3026
  800TIP3    H223892   2.505   3.896  14.738  0.7596  1.1127 -0.3451
  801TIP3   OH223893   1.322   2.982   1.504 -0.6469  0.1819 -0.2309
  801TIP3    H123894   1.297   3.074   1.508  0.6735  0.5289  2.2813
  801TIP3    H223895   1.248   2.935   1.543  0.1747  0.6605  2.1204
  802TIP3   OH223896   6.296   4.150  11.884  0.5428 -0.5819 -0.1496
  802TIP3    H123897   6.342   4.233  11.876  1.2782 -0.8726  0.8583
  802TIP3    H223898   6.283   4.121  11.794  2.4833 -0.5449 -0.4883
  803TIP3   OH223899   1.345   1.390  14.395 -0.1948 -0.2468 -0.1848
  803TIP3    H123900   1.369   1.444  14.320  1.9260 -1.1564 -0.2345
  803TIP3    H223901   1.399   1.311  14.386 -1.1217 -1.1197  1.3994
  804TIP3   OH223902   1.500   4.592   0.949  0.1927  0.0329  0.5025
  804TIP3    H123903   1.506   4.562   0.858  0.2551 -0.3007  0.6151
  804TIP3    H223904   1.407   4.615   0.960 -0.0082 -0.8005  0.6231
  805TIP3   OH223905   1.069   3.083  16.959  0.0366  0.0396  0.3348
  805TIP3    H123906   0.986   3.035  16.957 -0.1701  0.2467  2.0375
  805TIP3    H223907   1.132   3.023  16.919 -0.9831  0.0469 -1.3930
  806TIP3   OH223908   3.067   5.613   4.923  0.2800 -0.0499  0.6763
  806TIP3    H123909   3.005   5.544   4.899  0.8881  0.1619 -1.7027
  806TIP3    H223910   3.136   5.567   4.970 -0.0825 -0.7986  0.4943
  807TIP3   OH223911   2.785   5.990  13.483  0.2050 -0.3302 -0.0408
  807TIP3    H123912   2.856   6.009  13.421  1.0857 -0.1743  0.9942
  807TIP3    H223913   2.749   5.906  13.452 -1.7809  1.3945 -2.8839
  808TIP3   OH223914   5.237   5.199   5.473  0.2471  0.2424 -0.0979
  808TIP3    H123915   5.327   5.183   5.504  0.3328  2.3606  0.9476
  808TIP3    H223916   5.190   5.229   5.550 -1.3976 -0.8200 -0.6382
  809TIP3   OH223917   3.709   2.562   1.541 -0.0670  0.6801  0.1587
  809TIP3    H123918   3.703   2.631   1.474 -2.6025 -0.0929 -0.5307
  809TIP3    H223919   3.766   2.496   1.502 -0.3565  0.8865 -0.6433
  810TIP3   OH223920   6.813   1.940  17.126  0.4698 -0.2668  0.6069
  810TIP3    H123921   6.837   1.956  17.217  2.1876  0.8586  0.0139
  810TIP3    H223922   6.895   1.910  17.085  0.2204  1.0019 -0.9314
  811TIP3   OH223923   3.181   5.463  16.719 -0.2025  0.2267 -0.5018
  811TIP3    H123924   3.112   5.529  16.711 -1.0825 -0.8551 -2.6854
  811TIP3    H223925   3.255   5.501  16.671 -0.2748  0.1929 -0.6436
  812TIP3   OH223926   1.798   4.237   3.006 -0.2705 -0.0639 -0.2789
  812TIP3    H123927   1.738   4.221   2.933 -2.3967  0.6216  1.2289
  812TIP3    H223928   1.859   4.303   2.972 -1.4240  0.5061 -1.3094
  813TIP3   OH223929   4.849   6.195   3.043 -0.2244  0.3239  0.0505
  813TIP3    H123930   4.789   6.198   2.969 -1.0554 -2.0223  0.5229
  813TIP3    H223931   4.934   6.220   3.007 -0.5169 -1.1696 -1.8136
  814TIP3   OH223932   3.645   0.395   1.967  0.6857  0.0375 -0.3149
  814TIP3    H123933   3.704   0.375   2.039  0.3570 -0.0920 -0.0793
  814TIP3    H223934   3.621   0.310   1.931  3.5868  0.1448 -2.8455
  815TIP3   OH223935   0.813   1.279  17.228  0.3016  0.3218 -0.3024
  815TIP3    H123936   0.875   1.289  17.156 -0.0893 -1.7284 -0.9827
  815TIP3    H223937   0.840   1.199  17.273 -1.6339 -0.4650 -0.4344
  816TIP3   OH223938   5.301   0.392  11.099 -0.2671 -0.5255  0.2341
  816TIP3    H123939   5.288   0.323  11.164  1.1639 -1.0042  0.0513
  816TIP3    H223940   5.238   0.373  11.030 -0.0542 -1.5183  0.3030
  817TIP3   OH223941   0.806   2.581   4.833 -0.2557 -0.3695 -0.1129
  817TIP3    H123942   0.866   2.534   4.891 -0.3976  1.0191  1.2306
  817TIP3    H223943   0.863   2.619   4.766  1.1616  3.8648  3.0106
  818TIP3   OH223944   3.145   2.423   2.203 -0.6976 -0.0771 -0.0801
  818TIP3    H123945   3.191   2.343   2.231  1.1339  1.6503  2.2199
  818TIP3    H223946   3.212   2.491   2.205 -1.7699  1.3212 -3.6868
  819TIP3   OH223947   4.986   3.902  12.902 -0.1405 -0.2826 -0.5179
  819TIP3    H123948   4.974   3.918  12.996 -0.1120  1.5599 -0.7889
  819TIP3    H223949   5.068   3.946  12.880 -0.4012 -0.2630 -1.4977
  820TIP3   OH223950   5.387   3.537   4.632 -0.4313  0.1203  0.2828
  820TIP3    H123951   5.367   3.444   4.620 -0.3746  0.2980 -1.5091
  820TIP3    H223952   5.357   3.557   4.720  0.5415 -1.8406  1.1279
  821TIP3   OH223953   2.912   6.279   1.146 -0.6699 -0.1003 -0.3737
  821TIP3    H123954   2.929   6.369   1.171 -2.2910 -0.1998  1.2654
  821TIP3    H223955   2.830   6.282   1.096 -0.7899 -0.6694 -0.2259
  822TIP3   OH223956   5.944   3.063  14.741 -0.2200 -0.1603  0.0768
  822TIP3    H123957   5.883   3.049  14.669 -0.3737 -0.0237  0.1800
  822TIP3    H223958   5.908   3.013  14.814  0.1260 -0.5901 -0.0432
  823TIP3   OH223959   5.591   5.061   4.597  0.4835 -0.3027  0.5882
  823TIP3    H123960   5.614   5.152   4.617  1.3277 -0.3886  0.0702
  823TIP3    H223961   5.528   5.037   4.665 -1.2486  1.2661 -0.3777
  824TIP3   OH223962   0.700   0.391  16.116  0.0240  0.3495  0.0507
  824TIP3    H123963   0.785   0.360  16.146 -0.1648 -1.4153 -1.0591
  824TIP3    H223964   0.646   0.398  16.195 -0.1009 -2.9224  0.3928
  825TIP3   OH223965   1.659   2.350  15.610  0.4549 -0.2346 -0.2400
  825TIP3    H123966   1.605   2.428  15.613 -0.5364 -0.7286 -2.6304
  825TIP3    H223967   1.608   2.283  15.656 -0.1323 -0.2297 -0.8700
  826TIP3   OH223968   3.243   6.063  11.383 -0.1383  0.1352  0.1761
  826TIP3    H123969   3.298   5.998  11.425  0.9705  1.5707  1.0464
  826TIP3    H223970   3.158   6.056  11.427 -0.0202 -0.6860  0.2790
  827TIP3   OH223971   6.468   0.426  15.862 -0.5691  0.3743 -0.0498
  827TIP3    H123972   6.377   0.399  15.848 -0.7564  1.7992 -2.1193
  827TIP3    H223973   6.473   0.443  15.955 -2.9586  1.8750 -0.0944
  828TIP3   OH223974   2.013   2.731  11.220  0.1801 -0.9340  0.0084
  828TIP3    H123975   2.070   2.656  11.209 -0.0665 -1.3032  1.1325
  828TIP3    H223976   2.002   2.766  11.132 -0.4847 -2.7910 -0.6871
  829TIP3   OH223977   0.625   1.605   6.173 -0.3242 -0.0101 -0.3160
  829TIP3    H123978   0.659   1.516   6.186  0.2284  0.2200 -0.1609
  829TIP3    H223979   0.531   1.593   6.159 -0.3657 -0.5637  0.3748
  830TIP3   OH223980   6.415   6.528   2.482  0.1802 -0.3227  0.1435
  830TIP3    H123981   6.413   6.604   2.424 -0.4269 -0.5346 -0.1181
  830TIP3    H223982   6.327   6.524   2.520  0.4335 -0.4548  0.7327
  831TIP3   OH223983   0.600   3.101  13.143  0.8390  0.0030  0.2687
  831TIP3    H123984   0.608   3.069  13.233  1.9880 -2.7549 -0.6954
  831TIP3    H223985   0.506   3.102  13.126  0.6716 -1.9173  0.7865
  832TIP3   OH223986   1.190   3.168   2.971 -0.3516 -0.2453 -0.1492
  832TIP3    H123987   1.237   3.117   2.905  0.4919  1.5453 -0.9924
  832TIP3    H223988   1.108   3.192   2.928  0.1616  0.8494 -0.5386
  833TIP3   OH223989   3.533   1.717  13.419  0.3840 -0.5529 -0.1100
  833TIP3    H123990   3.530   1.813  13.420 -1.2381 -0.5742  0.4455
  833TIP3    H223991   3.625   1.696  13.402  1.3269  1.1105  2.2803
  834TIP3   OH223992   5.831   5.969   2.081 -0.1561 -0.7489  0.1698
  834TIP3    H123993   5.901   5.906   2.066  0.3898 -0.5752  1.7785
  834TIP3    H223994   5.874   6.045   2.120 -1.2020 -0.5909  1.0738
  835TIP3   OH223995   1.095   1.816  11.489  0.2745  0.3907 -0.2517
  835TIP3    H123996   1.002   1.813  11.511  0.2754  1.1389 -0.0926
  835TIP3    H223997   1.137   1.760  11.554  0.2212  2.2014  1.4479
  836TIP3   OH223998   0.261   0.274   5.518  0.3687 -0.0786 -0.4064
  836TIP3    H123999   0.320   0.317   5.579 -0.3294 -0.4542  0.5521
  836TIP3    H224000   0.189   0.337   5.506  0.4782 -0.0276 -0.8039
  837TIP3   OH224001   3.871   6.169  13.445  0.7202  0.1110  0.1980
  837TIP3    H124002   3.851   6.209  13.360  2.7193  0.1710 -0.2794
  837TIP3    H224003   3.850   6.076  13.433  0.9201  0.1311 -0.3477
  838TIP3   OH224004   0.509   0.786  14.370 -0.4231  0.3261 -0.0301
  838TIP3    H124005   0.495   0.733  14.449 -1.5513  0.1491 -0.3261
  838TIP3    H224006   0.457   0.866  14.386 -0.3160  0.4736 -0.4135
  839TIP3   OH224007   2.814   5.490  17.149 -0.0318 -0.0886  0.3506
  839TIP3    H124008   2.737   5.506  17.204  0.5638 -1.1906  1.5628
  839TIP3    H224009   2.867   5.569  17.158 -0.2713  0.0205  0.8149
  840TIP3   OH224010   6.407   4.321   5.069  0.1552  0.3544  0.2880
  840TIP3    H124011   6.466   4.396   5.077  0.1523  0.2178  1.7972
  840TIP3    H224012   6.465   4.247   5.051  0.4271  0.2892  1.3632
  841TIP3   OH224013   1.768   3.808   4.783 -0.3813  0.1238  0.1676
  841TIP3    H124014   1.734   3.758   4.709 -1.1191  0.7405  0.0866
  841TIP3    H224015   1.858   3.829   4.757 -0.8520  0.9338 -0.8706
  842TIP3   OH224016   1.601   3.922  13.603 -0.1310  0.2480  0.2281
  842TIP3    H124017   1.573   3.831  13.607  0.9057 -0.0586  0.9510
  842TIP3    H224018   1.567   3.961  13.684 -1.1061  0.6835 -0.3696
  843TIP3   OH224019   2.853   2.082  11.762 -0.4763  0.0168 -0.1182
  843TIP3    H124020   2.795   2.141  11.714 -0.8397 -0.2792 -0.0498
  843TIP3    H224021   2.796   2.035  11.823  0.1604  1.2639  1.5071
  844TIP3   OH224022   0.555   5.129   5.568  0.3896  0.1106 -0.2990
  844TIP3    H124023   0.531   5.115   5.660 -0.6763 -0.5571 -0.6533
  844TIP3    H224024   0.474   5.163   5.528 -0.1545 -2.5500 -1.6384
  845TIP3   OH224025   5.753   1.770   3.849 -0.4498 -0.6106  0.2094
  845TIP3    H124026   5.740   1.748   3.756 -1.4467 -0.7617  0.3697
  845TIP3    H224027   5.799   1.695   3.885 -0.1489 -0.5966 -0.1432
  846TIP3   OH224028   2.106   6.492   1.696 -0.5014 -0.0620 -0.3288
  846TIP3    H124029   2.172   6.426   1.676  1.6658  1.5168  1.1984
  846TIP3    H224030   2.135   6.570   1.648 -1.6364  0.4859 -0.1559
  847TIP3   OH224031   2.026   6.674  10.631 -0.1675  0.2024 -0.3432
  847TIP3    H124032   2.121   6.669  10.620  0.2591  1.4534  2.1136
  847TIP3    H224033   2.005   6.604  10.693 -0.3450  1.7671  1.4549
  848TIP3   OH224034   5.404   1.132  11.971 -0.0975  0.6407  0.7054
  848TIP3    H124035   5.370   1.216  11.942  0.4805 -0.1410 -2.7294
  848TIP3    H224036   5.333   1.070  11.954  0.0280  0.2040  1.7170
  849TIP3   OH224037   4.763   5.602  11.802 -0.2308  0.0609 -0.0873
  849TIP3    H124038   4.747   5.568  11.714 -0.4896  0.7110 -0.2974
  849TIP3    H224039   4.779   5.696  11.789 -0.7195  0.2461  0.6051
  850TIP3   OH224040   5.865   2.244   3.988 -0.2991  0.1158  0.0508
  850TIP3    H124041   5.791   2.199   3.947  0.7554 -0.6337 -1.1075
  850TIP3    H224042   5.914   2.174   4.031 -0.3527  0.6334  0.9702
  851TIP3   OH224043   4.330   5.869  10.297 -0.0266  0.3726  0.6946
  851TIP3    H124044   4.413   5.836  10.261 -0.6099 -1.6237  1.0306
  851TIP3    H224045   4.352   5.953  10.336  1.6974  0.1942  0.1763
  852TIP3   OH224046   2.463   1.030   3.909  0.0641  0.2589  0.0951
  852TIP3    H124047   2.557   1.026   3.889 -0.1796 -1.8144 -1.0177
  852TIP3    H224048   2.421   1.003   3.827 -1.5152  1.1166  0.5906
  853TIP3   OH224049   6.744   6.162  14.479 -1.1397 -0.3599  0.3667
  853TIP3    H124050   6.694   6.097  14.429 -0.7274 -0.3504 -0.0539
  853TIP3    H224051   6.833   6.154  14.447 -1.4111  1.7425 -1.0963
  854TIP3   OH224052   5.481   6.050   3.449  0.7312 -0.2976  0.0509
  854TIP3    H124053   5.524   6.078   3.369 -0.1417  0.4730 -0.1672
  854TIP3    H224054   5.537   6.082   3.520  2.7520 -2.9604 -0.1941
  855TIP3   OH224055   2.904   2.408   2.726  0.3272 -0.0710  0.6782
  855TIP3    H124056   2.980   2.387   2.671  0.5905 -0.5791  1.2227
  855TIP3    H224057   2.839   2.341   2.703  0.5956 -0.5446  1.2938
  856TIP3   OH224058   6.502   1.072  15.702  0.4104 -0.7643 -0.1396
  856TIP3    H124059   6.435   1.086  15.768  1.0782 -3.5289  1.2764
  856TIP3    H224060   6.479   1.132  15.631 -1.9624  0.2874  1.3953
  857TIP3   OH224061   4.055   3.935  12.489  0.1944  0.0832 -0.3964
  857TIP3    H124062   3.988   3.869  12.469  0.9735 -1.3705  1.4370
  857TIP3    H224063   4.068   3.928  12.584  1.2903  1.9603 -0.3521
  858TIP3   OH224064   1.232   0.134  10.570 -0.2454  0.4030 -0.1850
  858TIP3    H124065   1.140   0.109  10.560  0.1241 -0.8342 -0.6669
  858TIP3    H224066   1.231   0.202  10.638 -1.5242  0.5168 -0.2894
  859TIP3   OH224067   5.135   0.708   2.614  0.0714 -0.0047  0.0237
  859TIP3    H124068   5.193   0.714   2.690 -0.2101 -0.0388  0.2424
  859TIP3    H224069   5.134   0.616   2.591  0.0837 -0.0079  0.0357
  860TIP3   OH224070   1.945   6.787   1.657 -0.1722 -0.1518  0.1874
  860TIP3    H124071   1.919   6.826   1.573  1.1237  1.5247  0.5202
  860TIP3    H224072   1.886   6.828   1.721 -0.7166 -0.9339  0.2029
  861TIP3   OH224073   2.431   5.202  15.520 -0.5544 -0.0417 -0.0858
  861TIP3    H124074   2.373   5.179  15.447  0.4833 -0.4801 -0.7993
  861TIP3    H224075   2.491   5.128  15.526  1.5202  1.4811 -1.0120
  862TIP3   OH224076   4.242   4.395   3.570  0.2117  0.2416 -0.1793
  862TIP3    H124077   4.282   4.361   3.491 -0.9485  0.4653 -0.8876
  862TIP3    H224078   4.254   4.326   3.635  1.5821  0.2445 -0.4006
  863TIP3   OH224079   6.208   4.824   3.647  0.0024 -0.2227 -0.6432
  863TIP3    H124080   6.200   4.898   3.587  0.2946  0.5169  0.2020
  863TIP3    H224081   6.137   4.765   3.622 -0.1223  0.2564 -1.4538
  864TIP3   OH224082   5.400   6.661  16.075  0.0557 -0.3119  0.3017
  864TIP3    H124083   5.409   6.581  16.023 -0.7201  0.3602 -0.9067
  864TIP3    H224084   5.463   6.722  16.036 -1.7640  0.7916 -1.0977
  865TIP3   OH224085   2.848   4.204   1.123 -0.5402  0.0647 -0.0810
  865TIP3    H124086   2.847   4.274   1.189 -0.5073  1.1699 -1.2028
  865TIP3    H224087   2.850   4.123   1.173  0.4422  0.8907  1.2684
  866TIP3   OH224088   1.493   5.579   2.540 -0.7657  0.1102  0.0283
  866TIP3    H124089   1.427   5.646   2.560 -2.0723 -1.0365 -0.2335
  866TIP3    H224090   1.492   5.572   2.445  1.0197  1.2801 -0.1109
  867TIP3   OH224091   1.398   6.263   0.039  0.1473  0.4892 -0.4616
  867TIP3    H124092   1.332   6.193   0.038  0.6509 -0.0138 -1.7446
  867TIP3    H224093   1.412   6.282   0.132  1.0594 -2.1846  0.0552
  868TIP3   OH224094   3.454   4.716  14.820 -0.0547 -0.2703 -0.4349
  868TIP3    H124095   3.450   4.710  14.724  1.9320 -0.4851 -0.5441
  868TIP3    H224096   3.399   4.791  14.841 -0.4237 -0.1394 -1.7430
  869TIP3   OH224097   6.476   5.303   2.608  0.2493  0.0526  0.0977
  869TIP3    H124098   6.385   5.331   2.620  1.3359  3.5382  1.4096
  869TIP3    H224099   6.491   5.308   2.514 -1.0327 -1.1709 -0.1990
  870TIP3   OH224100   4.470   5.008  11.506  0.1499 -0.0523  0.0181
  870TIP3    H124101   4.375   4.994  11.495  0.2593 -1.2369  0.3921
  870TIP3    H224102   4.493   4.956  11.583  0.7070  2.1162  1.4203
  871TIP3   OH224103   5.270   6.098  13.116  0.2383 -0.4620  0.5985
  871TIP3    H124104   5.316   6.034  13.061 -0.7021  0.2492 -1.1088
  871TIP3    H224105   5.186   6.111  13.071  1.3256  3.8329 -0.6492
  872TIP3   OH224106   3.389   1.290   6.436 -0.1905  0.0644 -0.3326
  872TIP3    H124107   3.352   1.210   6.399  2.5433 -1.0857 -0.8299
  872TIP3    H224108   3.436   1.260   6.514  1.5630  1.0164 -0.9778
  873TIP3   OH224109   3.677   2.084   3.861  0.0086 -0.0082 -0.0548
  873TIP3    H124110   3.763   2.043   3.876 -0.3169 -0.2724  1.1899
  873TIP3    H224111   3.634   2.027   3.797 -0.6457 -1.9928  2.0325
  874TIP3   OH224112   3.168   5.027   0.802 -0.4579  0.2427 -0.0374
  874TIP3    H124113   3.179   5.043   0.708  2.8275 -1.2211 -0.0432
  874TIP3    H224114   3.238   4.966   0.824 -1.3265  0.2804  3.3309
  875TIP3   OH224115   2.224   6.788   6.231  0.4284  0.2117  0.4736
  875TIP3    H124116   2.279   6.717   6.264 -0.7513 -1.9571 -1.8758
  875TIP3    H224117   2.190   6.830   6.310  1.9995 -1.1220  1.9569
  876TIP3   OH224118   5.020   0.174  12.548 -0.1896 -0.1254 -0.4798
  876TIP3    H124119   5.006   0.215  12.633 -0.7384  0.4804 -0.8613
  876TIP3    H224120   5.020   0.080  12.567 -0.3792  0.0042  0.1789
  877TIP3   OH224121   4.758   5.125  10.960  0.4427  0.1453 -0.1097
  877TIP3    H124122   4.742   5.099  10.869 -2.0840  1.9077 -0.2558
  877TIP3    H224123   4.694   5.193  10.978  3.3420  2.6559  1.8359
  878TIP3   OH224124   4.883   4.478  14.772  0.4543  0.3037  0.1840
  878TIP3    H124125   4.907   4.389  14.745  2.9956  1.3570 -1.4183
  878TIP3    H224126   4.915   4.485  14.863 -1.2310 -0.8729  0.9078
  879TIP3   OH224127   1.117   3.665  12.191 -0.0750  0.2795 -0.0900
  879TIP3    H124128   1.022   3.669  12.190 -0.0678  0.8611 -1.8283
  879TIP3    H224129   1.144   3.725  12.122  1.4450 -2.2697 -1.8847
  880TIP3   OH224130   1.550   1.919   3.975 -0.3077  0.3692  0.3773
  880TIP3    H124131   1.548   2.010   4.004  0.3502  0.4674  0.1328
  880TIP3    H224132   1.550   1.867   4.056 -1.3148  0.5588  0.5155
  881TIP3   OH224133   1.051   6.176  13.517  0.1410  0.0602  0.0811
  881TIP3    H124134   1.111   6.170  13.442  0.0630 -0.1472  0.0340
  881TIP3    H224135   1.099   6.228  13.581 -0.3258  1.4119 -0.6266
  882TIP3   OH224136   2.386   2.637  12.433  0.0055  0.1613 -0.4196
  882TIP3    H124137   2.382   2.732  12.428 -0.0473  0.1883  0.0990
  882TIP3    H224138   2.466   2.618  12.482 -0.8067 -0.0056  0.8903
  883TIP3   OH224139   6.129   3.729   4.609 -0.5312 -0.3872 -0.0209
  883TIP3    H124140   6.047   3.737   4.658 -1.8278 -1.2460 -1.8903
  883TIP3    H224141   6.162   3.642   4.632 -1.6493 -1.1995 -1.2941
  884TIP3   OH224142   0.338   3.797   1.269 -0.7728  0.4329  0.0901
  884TIP3    H124143   0.251   3.761   1.286 -0.3025 -0.4800  0.6585
  884TIP3    H224144   0.369   3.826   1.355 -1.2743  2.6067 -0.3914
  885TIP3   OH224145   5.381   4.693  10.531  0.4018  0.5803  0.1202
  885TIP3    H124146   5.305   4.637  10.519  2.1870 -1.7386 -1.1799
  885TIP3    H224147   5.353   4.779  10.499 -1.6456 -0.1750 -0.2601
  886TIP3   OH224148   6.276   1.118   3.684 -0.0167 -0.0767 -0.4440
  886TIP3    H124149   6.338   1.045   3.674 -2.3220 -2.3940  1.0116
  886TIP3    H224150   6.199   1.090   3.634 -1.3797  0.7878  1.0813
  887TIP3   OH224151   0.812   4.561   4.152 -0.1204 -0.1812 -0.1133
  887TIP3    H124152   0.838   4.653   4.157 -1.1915  0.0741  1.6533
  887TIP3    H224153   0.782   4.549   4.062 -0.5220  1.3702 -0.2137
  888TIP3   OH224154   5.318   1.025   4.903  0.0410  0.3076 -0.0718
  888TIP3    H124155   5.400   1.050   4.862  0.1787  2.0463  1.1555
  888TIP3    H224156   5.252   1.079   4.860 -0.1115  0.5809  0.4893
  889TIP3   OH224157   0.603   2.431  13.583  0.3372  0.5415  0.2866
  889TIP3    H124158   0.680   2.438  13.526 -0.4877 -0.4457 -0.9909
  889TIP3    H224159   0.580   2.338  13.582 -0.6554  0.7624  0.9332
  890TIP3   OH224160   5.081   0.131  13.625  0.1241 -0.1776  0.3751
  890TIP3    H124161   5.151   0.128  13.560  0.0676 -0.3839  0.3229
  890TIP3    H224162   5.097   0.055  13.682  0.8416  0.6403  1.3023
  891TIP3   OH224163   3.378   3.649  11.918 -0.3093  0.3219 -0.4957
  891TIP3    H124164   3.350   3.694  11.838  2.0518  0.2310 -1.4578
  891TIP3    H224165   3.430   3.575  11.887 -0.5762 -0.5942  1.1407
  892TIP3   OH224166   6.086   1.541  16.425  0.0937 -0.2606  0.2598
  892TIP3    H124167   6.010   1.514  16.476  1.0593  0.9260  2.4279
  892TIP3    H224168   6.049   1.596  16.355 -1.1370 -0.7463  0.4948
  893TIP3   OH224169   3.400   4.828  12.784  0.3197  0.3398 -0.3114
  893TIP3    H124170   3.392   4.899  12.848  1.0537  0.7496 -0.6650
  893TIP3    H224171   3.311   4.817  12.750 -0.1495 -0.1147  1.0079
  894TIP3   OH224172   5.136   2.181  15.829 -0.4010 -0.3960  0.5384
  894TIP3    H124173   5.071   2.202  15.761  0.7913  2.8003  0.2214
  894TIP3    H224174   5.201   2.127  15.784  0.4178  1.7368 -1.0181
  895TIP3   OH224175   1.323   1.059   3.931  0.4075  0.4229  0.0015
  895TIP3    H124176   1.405   1.045   3.979  1.1418  0.3107 -1.2308
  895TIP3    H224177   1.325   1.151   3.907 -0.2037  0.6003  0.6208
  896TIP3   OH224178   5.772   3.322   3.080  0.0347  0.3431 -0.3639
  896TIP3    H124179   5.826   3.387   3.035  2.6667 -2.1350 -1.1339
  896TIP3    H224180   5.808   3.317   3.169  0.5997 -0.7542 -0.6318
  897TIP3   OH224181   2.763   4.068  11.658  0.2029  0.1944  0.1979
  897TIP3    H124182   2.854   4.042  11.649  0.2123 -0.1173  1.1183
  897TIP3    H224183   2.739   4.103  11.572  0.4860 -1.9188 -0.8065
  898TIP3   OH224184   2.846   4.102  15.239 -0.6978 -0.0775 -0.5757
  898TIP3    H124185   2.871   4.028  15.184 -1.0881  0.4261 -1.4656
  898TIP3    H224186   2.780   4.066  15.299 -1.2926 -0.3493 -1.3650
  899TIP3   OH224187   2.577   3.996   1.388 -0.3191  0.4808 -0.0951
  899TIP3    H124188   2.553   3.909   1.356 -0.5156  0.5017 -0.0033
  899TIP3    H224189   2.494   4.040   1.404 -0.2169  0.4522  0.5101
  900TIP3   OH224190   5.205   0.368   4.366 -0.3847 -0.4406  0.1102
  900TIP3    H124191   5.142   0.381   4.437 -0.0827  2.9855 -0.0631
  900TIP3    H224192   5.194   0.445   4.310  0.9883 -1.8811 -2.3153
  901TIP3   OH224193   0.772   3.060   2.834  0.6532  0.1890 -0.6727
  901TIP3    H124194   0.828   3.067   2.757  0.0186  0.3194 -1.1248
  901TIP3    H224195   0.786   2.971   2.865  1.0192  0.1808 -0.8527
  902TIP3   OH224196   2.059   4.888   2.053  0.2485  0.7499 -0.2237
  902TIP3    H124197   2.093   4.967   2.095 -0.0702  0.8916 -0.2298
  902TIP3    H224198   2.107   4.816   2.095  0.4374  0.9361 -0.1181
  903TIP3   OH224199   1.028   5.454  15.517  0.0081  0.2326 -0.3190
  903TIP3    H124200   1.098   5.493  15.465  0.1670 -0.8477 -0.9443
  903TIP3    H224201   1.063   5.451  15.606  0.9030 -0.6181 -0.6871
  904TIP3   OH224202   3.894   1.011   4.032  0.3995  0.0373 -0.0082
  904TIP3    H124203   3.949   0.939   4.004  3.1855  1.6364  0.9943
  904TIP3    H224204   3.845   1.036   3.953  0.9402 -1.5573 -0.8892
  905TIP3   OH224205   3.789   2.233  16.814 -0.2434  0.5232 -0.1533
  905TIP3    H124206   3.706   2.242  16.767 -0.2557 -0.0238 -0.2391
  905TIP3    H224207   3.780   2.292  16.888 -0.9886 -0.0356  0.2176
  906TIP3   OH224208   4.235   3.067   5.460  0.2422  0.3992  0.2485
  906TIP3    H124209   4.290   3.103   5.390 -0.7278  0.3823 -0.5464
  906TIP3    H224210   4.297   3.039   5.527  1.1318  1.8038  0.0660
  907TIP3   OH224211   5.041   2.968   3.401 -0.3096 -0.3189  0.5808
  907TIP3    H124212   5.093   2.995   3.325 -0.3971 -0.1063  0.5987
  907TIP3    H224213   5.074   3.021   3.473  0.8171 -1.5687  1.0313
  908TIP3   OH224214   2.348   0.756   1.888 -0.6285  0.1998  0.5491
  908TIP3    H124215   2.374   0.706   1.966  0.8783 -1.0599 -0.6795
  908TIP3    H224216   2.429   0.799   1.859 -1.8663  3.5198  1.5574
  909TIP3   OH224217   5.193   5.236  12.469 -0.2489 -0.1738  0.3073
  909TIP3    H124218   5.202   5.214  12.377 -0.1877 -2.0684  0.7272
  909TIP3    H224219   5.167   5.154  12.511 -2.6894  1.1709  1.6441
  910TIP3   OH224220   3.177   6.540  16.268  0.7686 -0.0389  0.4103
  910TIP3    H124221   3.258   6.508  16.308  1.7427  1.1269 -0.5582
  910TIP3    H224222   3.206   6.609  16.208 -0.4485 -2.4866 -3.2959
  911TIP3   OH224223   0.477   4.759   5.508 -0.3323  0.3644  0.3389
  911TIP3    H124224   0.415   4.807   5.564 -1.7029  0.5342 -1.2403
  911TIP3    H224225   0.428   4.681   5.481 -0.8544  1.6317 -2.8314
  912TIP3   OH224226   4.671   1.724  14.947  0.0762  0.3491 -0.3214
  912TIP3    H124227   4.645   1.654  14.886  1.8346 -0.4921 -0.1761
  912TIP3    H224228   4.679   1.802  14.892 -0.3370  0.0740 -0.7839
  913TIP3   OH224229   3.637   0.290  11.072  0.1284 -0.1551 -0.2135
  913TIP3    H124230   3.707   0.243  11.028  0.8385 -1.0261  1.7209
  913TIP3    H224231   3.670   0.379  11.083  1.8031 -0.9841  2.2846
  914TIP3   OH224232   4.470   1.537  15.483  0.3255 -0.9893 -1.0297
  914TIP3    H124233   4.486   1.495  15.568  1.8396  1.0559 -0.2047
  914TIP3    H224234   4.411   1.478  15.437 -1.4611 -1.6605  1.8810
  915TIP3   OH224235   5.535   4.160   5.150 -0.0540 -0.3509 -0.1190
  915TIP3    H124236   5.586   4.235   5.117  0.2959 -0.8540 -0.7391
  915TIP3    H224237   5.538   4.096   5.079  0.9313 -1.5644  0.9549
  916TIP3   OH224238   5.211   5.630  15.730  0.3517  0.3464  0.2896
  916TIP3    H124239   5.271   5.663  15.796 -0.3855  1.7794  0.2917
  916TIP3    H224240   5.207   5.536  15.745  2.8441  0.1415  0.0580
  917TIP3   OH224241   5.854   4.939   0.503  0.4862 -0.2214  0.7496
  917TIP3    H124242   5.892   4.948   0.591  0.6593  1.8310  0.5141
  917TIP3    H224243   5.920   4.977   0.445 -0.2584 -0.2164 -0.1034
  918TIP3   OH224244   6.593   3.075  14.826 -0.2505  0.4680 -0.0756
  918TIP3    H124245   6.688   3.061  14.825 -0.4915 -1.4526  0.0457
  918TIP3    H224246   6.581   3.156  14.876  1.4516  2.2239 -2.3250
  919TIP3   OH224247   2.907   1.854   4.374 -0.0884 -0.0316 -0.3838
  919TIP3    H124248   2.858   1.937   4.381 -0.5486 -0.3447  0.1849
  919TIP3    H224249   2.993   1.874   4.411  0.2560  0.5401 -1.4382
  920TIP3   OH224250   4.014   3.172  16.172 -0.5337 -0.3956  0.0676
  920TIP3    H124251   4.108   3.189  16.161 -0.6247 -0.3360 -0.6912
  920TIP3    H224252   3.993   3.208  16.258  0.0831 -0.1642  0.1284
  921TIP3   OH224253   1.952   0.304   1.890 -0.4899 -0.7944  0.2669
  921TIP3    H124254   1.958   0.258   1.806  1.1158 -0.0311 -0.0653
  921TIP3    H224255   1.866   0.345   1.889 -0.7800 -1.3973 -0.6811
  922TIP3   OH224256   4.168   3.738  14.973  0.6348 -0.1963 -0.2037
  922TIP3    H124257   4.072   3.740  14.972  0.6113 -0.5382  0.4045
  922TIP3    H224258   4.194   3.751  14.882  0.0236  0.4486 -0.2925
  923TIP3   OH224259   0.116   1.206   2.471 -0.0810  0.0319  0.3343
  923TIP3    H124260   0.050   1.153   2.516 -0.6921 -0.4230 -1.0365
  923TIP3    H224261   0.118   1.288   2.520  0.3057 -0.9428  2.0076
  924TIP3   OH224262   3.478   1.188   4.577 -0.1848 -0.3083 -0.2822
  924TIP3    H124263   3.518   1.101   4.583  0.2154 -0.0372  1.3431
  924TIP3    H224264   3.551   1.246   4.556 -0.3808 -0.2885 -0.9438
  925TIP3   OH224265   4.182   3.367  14.063  0.3577  0.1800 -0.2170
  925TIP3    H124266   4.195   3.306  14.136 -0.4468  2.2969  1.8051
  925TIP3    H224267   4.088   3.365  14.046  0.5950 -0.6448 -1.5734
  926TIP3   OH224268   6.540   1.268   2.454  0.3321  0.4847 -0.1568
  926TIP3    H124269   6.475   1.233   2.392 -0.0537  2.0232 -0.6495
  926TIP3    H224270   6.493   1.274   2.537  0.3394  0.0753 -0.1168
  927TIP3   OH224271   0.429   2.451   6.329 -0.2735  0.6120 -0.3697
  927TIP3    H124272   0.412   2.364   6.292 -1.5395  0.0494  1.3878
  927TIP3    H224273   0.414   2.511   6.256 -3.1559 -0.3983 -0.7613
  928TIP3   OH224274   6.451   6.469   3.977  0.2963 -0.3518  0.0359
  928TIP3    H124275   6.362   6.452   3.949  0.3450 -1.0696  0.3122
  928TIP3    H224276   6.506   6.435   3.906  0.4061 -1.7925  0.7863
  929TIP3   OH224277   3.837   2.793  14.740  0.2528 -0.5704 -0.1605
  929TIP3    H124278   3.863   2.706  14.708  1.2083 -0.2948 -0.1748
  929TIP3    H224279   3.780   2.775  14.814 -0.8992 -1.2095 -1.1691
  930TIP3   OH224280   6.585   6.252   2.388 -0.2210  0.4656  0.1308
  930TIP3    H124281   6.661   6.291   2.431 -1.1942  2.7061 -0.0185
  930TIP3    H224282   6.546   6.324   2.339 -4.2664  0.3843  2.7286
  931TIP3   OH224283   4.433   1.885   4.538  0.3646 -0.3092  0.0913
  931TIP3    H124284   4.351   1.885   4.489  0.1283 -1.8203  0.4486
  931TIP3    H224285   4.427   1.963   4.594 -0.2009  0.3622 -0.8796
  932TIP3   OH224286   1.185   1.235  15.437 -0.8248  0.3768  0.2907
  932TIP3    H124287   1.270   1.232  15.392 -1.5147  1.7556 -1.1990
  932TIP3    H224288   1.137   1.161  15.402 -0.1827 -0.5569  1.3226
  933TIP3   OH224289   5.124   3.253   0.704 -0.7447 -0.2278  0.5682
  933TIP3    H124290   5.149   3.222   0.791 -0.3743 -1.1407  0.1467
  933TIP3    H224291   5.072   3.182   0.667 -1.4099  0.4027  0.2617
  934TIP3   OH224292   1.638   3.660   4.594  0.4075  0.4720 -0.2721
  934TIP3    H124293   1.560   3.709   4.566 -0.7043 -0.4646  1.0013
  934TIP3    H224294   1.668   3.615   4.515 -1.3730 -0.4578 -0.4881
  935TIP3   OH224295   4.855   5.944  12.650  0.5883 -0.2732 -0.2068
  935TIP3    H124296   4.935   5.980  12.612  0.3493  1.4911  0.8317
  935TIP3    H224297   4.836   6.002  12.724 -1.5347 -0.7831 -0.3030
  936TIP3   OH224298   0.884   5.707   0.462 -0.4602 -0.3653  0.3400
  936TIP3    H124299   0.918   5.796   0.448  0.3057 -0.8979 -1.6051
  936TIP3    H224300   0.790   5.715   0.447 -0.3184  0.0456 -0.4256
  937TIP3   OH224301   2.303   0.363  15.584  0.1821 -0.3786 -0.2754
  937TIP3    H124302   2.333   0.442  15.540 -0.5833 -0.4295 -0.9150
  937TIP3    H224303   2.317   0.381  15.677 -1.3914  1.1481 -0.2770
  938TIP3   OH224304   2.190   5.631   2.826 -0.0624  0.4817  0.0610
  938TIP3    H124305   2.177   5.662   2.916  1.4485 -0.7834  0.7661
  938TIP3    H224306   2.159   5.703   2.771 -0.0673  1.7086  1.5939
  939TIP3   OH224307   3.123   2.157   2.498 -0.0507 -0.1803  0.1446
  939TIP3    H124308   3.035   2.129   2.473 -0.5918  0.9490  0.7212
  939TIP3    H224309   3.172   2.075   2.506 -0.9943 -0.8223 -0.3350
  940TIP3   OH224310   6.632   4.381   3.390 -0.0246  0.1108 -0.1941
  940TIP3    H124311   6.560   4.425   3.344  0.4652  1.0890 -0.0343
  940TIP3    H224312   6.624   4.410   3.481  1.6185  1.6459 -0.5005
  941TIP3   OH224313   3.084   5.584   3.720 -0.3768 -0.0623 -0.1753
  941TIP3    H124314   3.014   5.563   3.781  0.5477  0.2889  1.0568
  941TIP3    H224315   3.067   5.675   3.694 -1.4720 -0.6044 -1.4606
  942TIP3   OH224316   2.321   3.119   2.023 -0.5419 -0.1908  0.2308
  942TIP3    H124317   2.314   3.054   2.092  0.6158  0.9159  1.4705
  942TIP3    H224318   2.391   3.178   2.053 -0.4114  0.6673 -1.6104
  943TIP3   OH224319   5.279   2.537  16.497  0.1237  0.5110 -0.6909
  943TIP3    H124320   5.265   2.621  16.541 -0.2155  0.3926 -0.5646
  943TIP3    H224321   5.359   2.502  16.536 -0.2824  0.3161 -0.0183
  944TIP3   OH224322   2.952   2.029  15.036  0.1314 -0.4396 -0.3119
  944TIP3    H124323   3.040   2.052  15.065 -0.2222 -0.1597  0.5935
  944TIP3    H224324   2.964   1.993  14.948  1.2843 -1.5374  0.2613
  945TIP3   OH224325   5.121   3.772  12.688  0.3391 -1.1907 -0.0782
  945TIP3    H124326   5.103   3.827  12.764 -0.6593 -0.7236 -0.6378
  945TIP3    H224327   5.070   3.692  12.703 -0.4218 -0.8073 -0.5824
  946TIP3   OH224328   0.926   3.534  11.630  0.3951 -0.4430  0.0690
  946TIP3    H124329   0.868   3.502  11.562 -0.9005  0.1001  0.8725
  946TIP3    H224330   0.977   3.604  11.588 -1.5566  1.0327  0.0222
  947TIP3   OH224331   4.419   3.882  12.850 -0.0621  0.4929 -0.6639
  947TIP3    H124332   4.468   3.809  12.814  1.7920  0.8122  1.0573
  947TIP3    H224333   4.482   3.954  12.855 -0.7487  1.0243  1.3214
  948TIP3   OH224334   2.243   1.616  13.809 -0.0010 -0.5043 -0.3853
  948TIP3    H124335   2.190   1.601  13.887 -0.2718 -0.5647 -0.5750
  948TIP3    H224336   2.205   1.557  13.743  0.5217 -0.7916 -0.4260
  949TIP3   OH224337   5.097   0.287   3.764  0.2160  0.0953  0.1232
  949TIP3    H124338   5.082   0.310   3.856 -0.4540  1.1111 -0.2178
  949TIP3    H224339   5.065   0.197   3.756  0.7495 -0.1832  0.9873
  950TIP3   OH224340   2.972   3.394   5.866  0.2298 -0.6047  0.2345
  950TIP3    H124341   2.892   3.440   5.890  0.8513  1.2757 -1.0490
  950TIP3    H224342   3.026   3.397   5.944 -0.3431 -0.5037  0.6316
  951TIP3   OH224343   5.913   4.875  13.413 -0.3041 -0.5957  0.3921
  951TIP3    H124344   5.851   4.923  13.358 -0.4682 -0.0852  1.0072
  951TIP3    H224345   5.872   4.790  13.429 -1.8856  0.4651  2.5344
  952TIP3   OH224346   6.143   6.417  12.320  0.4713  0.3667  0.0093
  952TIP3    H124347   6.164   6.510  12.306 -1.5038  0.7898 -0.4595
  952TIP3    H224348   6.135   6.409  12.415 -0.8690  1.0732 -0.0219
  953TIP3   OH224349   6.678   1.370  12.352  0.0842 -0.3591  0.1332
  953TIP3    H124350   6.757   1.315  12.345  0.8230  0.7016 -0.0969
  953TIP3    H224351   6.706   1.455  12.319 -0.3255  0.8736  2.7586
  954TIP3   OH224352   0.622   2.041   0.786  0.0200 -0.5282 -0.6133
  954TIP3    H124353   0.609   1.977   0.856 -1.1629  0.4163  0.0859
  954TIP3    H224354   0.599   2.125   0.826  0.8875  0.2576 -1.6882
  955TIP3   OH224355   6.009   6.685  12.275 -0.4579  0.3079 -0.0951
  955TIP3    H124356   6.038   6.751  12.338 -1.1486  0.1944  0.3525
  955TIP3    H224357   5.915   6.676  12.291 -0.6215  0.1998 -1.0757
  956TIP3   OH224358   2.475   3.093   4.972  0.1614 -0.1330 -0.4129
  956TIP3    H124359   2.455   3.003   4.945 -0.8269  0.7336 -2.8211
  956TIP3    H224360   2.400   3.119   5.025 -0.3799 -0.1731 -1.1505
  957TIP3   OH224361   4.581   1.605  12.656 -0.3892  0.1928 -0.6160
  957TIP3    H124362   4.510   1.585  12.594  0.5647 -0.7724 -1.4378
  957TIP3    H224363   4.656   1.625  12.601  0.2614  0.1362  0.2328
  958TIP3   OH224364   4.487   1.421  10.753  0.4827 -0.6233 -0.0263
  958TIP3    H124365   4.404   1.375  10.764  0.9622 -0.9527  3.7949
  958TIP3    H224366   4.540   1.362  10.700 -1.0305 -1.3948 -0.7327
  959TIP3   OH224367   1.809   0.825   6.140 -0.2177  0.3434  0.1176
  959TIP3    H124368   1.726   0.824   6.093  1.1862  0.7063 -2.5022
  959TIP3    H224369   1.823   0.917   6.163 -1.1699  0.0985  1.9064
  960TIP3   OH224370   4.241   0.396   2.634 -0.1948 -0.2767 -0.0031
  960TIP3    H124371   4.317   0.366   2.585  0.5806 -1.0278  1.5811
  960TIP3    H224372   4.277   0.453   2.702 -0.8414 -1.7270  1.6234
  961TIP3   OH224373   0.477   0.099  13.275  0.2189  0.7785 -0.4944
  961TIP3    H124374   0.488   0.036  13.345  2.1685  1.0377 -0.4978
  961TIP3    H224375   0.521   0.178  13.307  1.6756  0.7218 -2.1762
  962TIP3   OH224376   0.906   6.066   4.200 -0.2801 -0.0119  0.4397
  962TIP3    H124377   0.819   6.033   4.220 -1.3968  0.7625 -2.6640
  962TIP3    H224378   0.965   6.000   4.235 -2.2145 -1.9191  0.2944
  963TIP3   OH224379   0.237   5.464  14.844  0.2218 -0.1380  0.6498
  963TIP3    H124380   0.328   5.445  14.821  0.2881 -1.2277  1.6804
  963TIP3    H224381   0.185   5.423  14.775  0.4954 -0.4975  0.6551
  964TIP3   OH224382   0.897   0.230   3.260  0.0826  0.2340 -0.0959
  964TIP3    H124383   0.977   0.235   3.207  0.9516 -0.3640  1.0983
  964TIP3    H224384   0.830   0.270   3.206  1.4272  1.8042 -0.6945
  965TIP3   OH224385   3.500   6.127  14.829  0.8008  0.1423  0.2094
  965TIP3    H124386   3.526   6.196  14.767  0.8638  0.9541  1.1187
  965TIP3    H224387   3.515   6.165  14.915 -0.9498 -0.3167  0.7533
  966TIP3   OH224388   6.592   1.387  11.291  0.5605 -0.1773  0.1357
  966TIP3    H124389   6.669   1.437  11.265  0.2624  0.8286  1.1374
  966TIP3    H224390   6.526   1.406  11.224  0.6172  0.3513  0.2331
  967TIP3   OH224391   5.844   3.953  13.577  0.4838 -0.1463 -0.0677
  967TIP3    H124392   5.815   4.045  13.574  0.0208 -0.2821  0.0914
  967TIP3    H224393   5.817   3.923  13.664 -0.2640 -0.7226 -0.4942
  968TIP3   OH224394   4.349   3.566   3.834 -0.1300  0.6406  0.2695
  968TIP3    H124395   4.257   3.590   3.829 -0.1629  0.7412  1.2010
  968TIP3    H224396   4.383   3.583   3.746 -1.3236 -0.8649 -0.5311
  969TIP3   OH224397   6.054   4.418  16.366  0.7610 -0.3454 -0.2776
  969TIP3    H124398   6.093   4.476  16.431  0.3187 -0.7003  0.3175
  969TIP3    H224399   6.031   4.339  16.415 -1.4716  0.1668 -0.3879
  970TIP3   OH224400   3.655   1.955  10.457 -0.1078 -0.4754 -0.0012
  970TIP3    H124401   3.695   2.036  10.424  0.4205 -0.8653 -0.3393
  970TIP3    H224402   3.729   1.901  10.486 -0.4380 -0.9150  0.0393
  971TIP3   OH224403   0.605   4.757  13.573 -0.1999 -0.5128 -0.0920
  971TIP3    H124404   0.542   4.685  13.574  0.1525 -0.8260  0.4865
  971TIP3    H224405   0.688   4.715  13.550 -0.4115  0.1034 -2.2128
  972TIP3   OH224406   4.269   4.099   2.818 -0.5892  0.5680  0.4108
  972TIP3    H124407   4.332   4.169   2.835  2.2667 -1.2413 -1.6990
  972TIP3    H224408   4.256   4.057   2.903  1.0681  1.0343  0.9375
  973TIP3   OH224409   0.470   3.971  11.970 -0.3518  0.3123  0.4122
  973TIP3    H124410   0.402   3.909  11.945 -0.7965  0.3696  1.4269
  973TIP3    H224411   0.423   4.040  12.017  0.5377 -0.2496  2.1955
  974TIP3   OH224412   0.829   6.084  15.419  0.6145 -0.0995  0.3418
  974TIP3    H124413   0.879   6.085  15.501 -1.8560  2.2216  2.0046
  974TIP3    H224414   0.768   6.011  15.429 -0.2922  0.7347  1.0169
  975TIP3   OH224415   5.062   5.877  17.174 -0.2046 -0.1689  0.1662
  975TIP3    H124416   4.980   5.849  17.133  1.2121 -0.9197 -2.3264
  975TIP3    H224417   5.131   5.838  17.121  1.8221  1.1805  1.6295
  976TIP3   OH224418   0.636   1.109  16.943 -0.2018  0.6643 -0.3673
  976TIP3    H124419   0.706   1.066  16.992 -0.0558 -1.4173 -2.2149
  976TIP3    H224420   0.559   1.055  16.958 -0.8191  1.5546 -0.2718
  977TIP3   OH224421   2.799   4.000   0.426 -0.1740  0.5055  0.1645
  977TIP3    H124422   2.855   3.928   0.455 -1.8699 -0.1935  1.9346
  977TIP3    H224423   2.859   4.073   0.413  1.7249 -1.2997 -2.3036
  978TIP3   OH224424   2.727   1.908  16.927 -0.0621  0.7790  0.5124
  978TIP3    H124425   2.715   1.975  16.860 -0.2069  0.9303  0.6903
  978TIP3    H224426   2.699   1.827  16.884  0.3351  0.7928  0.2178
  979TIP3   OH224427   6.814   4.570   6.333  0.6526 -0.1726  0.0867
  979TIP3    H124428   6.738   4.596   6.384  1.6174  1.6670  0.7092
  979TIP3    H224429   6.808   4.622   6.253 -0.0389 -1.9062 -1.0478
  980TIP3   OH224430   0.521   2.862   1.295  0.3641  0.1405 -0.3584
  980TIP3    H124431   0.500   2.940   1.243 -0.4846  0.5534  0.5835
  980TIP3    H224432   0.616   2.866   1.306  0.2023  1.7230  0.7282
  981TIP3   OH224433   1.008   4.599   0.051 -0.0348 -0.6240  0.4372
  981TIP3    H124434   0.925   4.552   0.055 -0.9378  0.9300  0.8458
  981TIP3    H224435   1.067   4.547   0.105 -1.4679 -0.4414  2.2969
  982TIP3   OH224436   0.731   4.248   5.281 -0.4360 -0.3972 -0.3630
  982TIP3    H124437   0.812   4.293   5.260  0.3674 -1.1402  1.0507
  982TIP3    H224438   0.694   4.297   5.354 -1.3552  0.0086 -1.0704
  983TIP3   OH224439   2.985   1.570   1.390 -0.0667 -0.2368 -0.7253
  983TIP3    H124440   2.953   1.652   1.429 -3.3307 -1.1505 -1.2383
  983TIP3    H224441   3.005   1.514   1.464  0.7458  0.4580 -0.3920
  984TIP3   OH224442   3.615   5.984  16.266  0.2393 -0.0748 -0.1278
  984TIP3    H124443   3.673   6.036  16.210 -1.8015  2.1098 -0.3719
  984TIP3    H224444   3.542   5.961  16.208 -0.5832 -0.1527  0.9194
  985TIP3   OH224445   6.420   0.964   0.797  0.1132 -0.1070  0.0678
  985TIP3    H124446   6.514   0.946   0.792  0.2485  0.5849 -0.0045
  985TIP3    H224447   6.380   0.878   0.804  0.6208 -0.5273 -1.7016
  986TIP3   OH224448   5.909   1.815   5.655 -0.0253  0.0694  0.8677
  986TIP3    H124449   5.825   1.775   5.635 -1.1969  2.0257  1.4921
  986TIP3    H224450   5.956   1.749   5.706 -1.4482 -0.8317  1.0610
  987TIP3   OH224451   1.761   3.122   6.066  0.0301 -0.2924  0.2226
  987TIP3    H124452   1.723   3.110   6.154 -1.3914 -0.9643 -0.4471
  987TIP3    H224453   1.691   3.163   6.016  0.9966  0.5072 -0.4904
  988TIP3   OH224454   4.585   3.467   5.132  0.0829  0.0598  0.2026
  988TIP3    H124455   4.647   3.469   5.205  1.4891  0.9515 -0.9681
  988TIP3    H224456   4.590   3.554   5.094 -1.0414 -0.2217 -0.6386
  989TIP3   OH224457   4.018   0.616  11.640  0.0200  0.0618  0.2853
  989TIP3    H124458   3.968   0.560  11.581  0.2656 -1.7359  1.6850
  989TIP3    H224459   3.953   0.674  11.679 -0.5757 -0.5481  0.2184
  990TIP3   OH224460   1.810   3.934  15.517  0.3625  0.3187 -0.2528
  990TIP3    H124461   1.852   3.852  15.491 -2.3258 -1.6257  1.1470
  990TIP3    H224462   1.771   3.968  15.436 -0.9422 -1.3609 -0.3865
  991TIP3   OH224463   1.725   2.438   4.258 -0.3903 -0.1791  0.1880
  991TIP3    H124464   1.795   2.491   4.297  0.6261 -0.3361 -1.3138
  991TIP3    H224465   1.755   2.348   4.267 -0.1795 -0.2252 -0.8072
  992TIP3   OH224466   4.906   4.585  13.479  0.2799 -0.0551 -0.0582
  992TIP3    H124467   4.897   4.490  13.474 -1.6571  0.0337  0.8228
  992TIP3    H224468   4.889   4.615  13.390  0.0843 -0.4830 -0.1701
  993TIP3   OH224469   1.767   6.643   5.498 -0.3517 -0.3600  0.0410
  993TIP3    H124470   1.832   6.573   5.489 -0.8718 -0.9517  0.7889
  993TIP3    H224471   1.809   6.720   5.459  0.9108 -0.6600  0.7411
  994TIP3   OH224472   5.080   0.641  15.347  0.3807  0.5245  0.4169
  994TIP3    H124473   5.145   0.579  15.381  1.0564  1.7985  1.5787
  994TIP3    H224474   5.129   0.722  15.332 -0.7434  1.2341  0.3958
  995TIP3   OH224475   3.643   1.394  14.301  0.3576 -0.6099 -0.0984
  995TIP3    H124476   3.711   1.462  14.309 -0.0306 -0.0856 -1.1001
  995TIP3    H224477   3.686   1.323  14.254  0.3976 -0.5393 -0.1691
  996TIP3   OH224478   0.673   4.099   3.783  0.4871  0.3765  0.1096
  996TIP3    H124479   0.740   4.152   3.826 -1.2264  0.2688  3.2222
  996TIP3    H224480   0.618   4.163   3.738  0.5154  0.8801  0.7749
  997TIP3   OH224481   3.507   4.165  11.257 -0.2607  0.5179  0.6371
  997TIP3    H124482   3.578   4.157  11.193  0.3299 -0.1848  1.3512
  997TIP3    H224483   3.466   4.249  11.237  1.4003  1.4132  0.8123
  998TIP3   OH224484   1.629   5.903  16.352  0.1913  0.2680 -0.0270
  998TIP3    H124485   1.582   5.861  16.425 -1.5508 -1.2037 -1.8723
  998TIP3    H224486   1.561   5.949  16.303  1.0620  0.0766 -1.4734
  999TIP3   OH224487   2.338   1.691   0.224  0.5093  0.0770 -0.1424
  999TIP3    H124488   2.302   1.604   0.243  0.5094  0.1945  0.4093
  999TIP3    H224489   2.357   1.689   0.130  0.4868 -0.5118 -0.1396
 1000TIP3   OH224490   3.459   6.122   1.805  0.2275  0.1932  0.4874
 1000TIP3    H124491   3.391   6.055   1.810 -1.6557  1.9420 -0.1026
 1000TIP3    H224492   3.412   6.205   1.816  2.4578  1.4494  1.3302
 1001TIP3   OH224493   0.348   2.376  12.227 -0.0038  0.4810 -0.3709
 1001TIP3    H124494   0.282   2.332  12.280  1.7445 -1.5632  0.2410
 1001TIP3    H224495   0.344   2.331  12.143  1.3962 -0.5093  0.0672
 1002TIP3   OH224496   4.805   5.529  11.485  0.1108 -0.2972  0.0886
 1002TIP3    H124497   4.746   5.490  11.421  1.4103 -3.3258  0.5610
 1002TIP3    H224498   4.798   5.623  11.470 -2.4839 -0.6894 -1.8759
 1003TIP3   OH224499   3.473   4.679   0.339 -0.1812 -0.1158  0.2232
 1003TIP3    H124500   3.397   4.732   0.359 -0.6102 -0.6111 -0.0709
 1003TIP3    H224501   3.515   4.723   0.264 -0.0247  0.3034  0.5561
 1004TIP3   OH224502   5.997   6.645   1.547 -0.3211  0.2341  0.1439
 1004TIP3    H124503   6.084   6.652   1.506 -0.2411  1.2102  0.4444
 1004TIP3    H224504   5.988   6.727   1.596 -0.4467 -0.8587  2.0286
 1005TIP3   OH224505   2.599   2.219  10.656 -0.0179 -0.0050  0.3825
 1005TIP3    H124506   2.605   2.144  10.716 -1.2134 -1.6540 -1.4203
 1005TIP3    H224507   2.505   2.233  10.645  0.1434 -0.3595 -1.7546
 1006TIP3   OH224508   1.878   0.209  13.895  0.5623 -0.1018 -0.2941
 1006TIP3    H124509   1.924   0.275  13.844  0.3638 -0.8920 -1.5312
 1006TIP3    H224510   1.920   0.127  13.871 -0.5727 -0.6733 -0.3931
 1007TIP3   OH224511   5.685   6.631  16.747 -0.2556  0.2388  0.3098
 1007TIP3    H124512   5.721   6.702  16.799  0.1750 -0.1735  0.5887
 1007TIP3    H224513   5.664   6.562  16.810 -1.8491  0.5756  0.1878
 1008TIP3   OH224514   5.194   2.475  11.745  0.5812 -0.1014  0.1734
 1008TIP3    H124515   5.273   2.434  11.709  0.3496  0.3888 -0.9405
 1008TIP3    H224516   5.181   2.553  11.691  0.1678  0.6314  1.2998
 1009TIP3   OH224517   6.450   5.176   6.413  0.3563 -0.1492 -0.3281
 1009TIP3    H124518   6.499   5.143   6.338 -1.9852 -0.7703 -1.6520
 1009TIP3    H224519   6.391   5.105   6.437  0.7704  0.1669  1.9270
 1010TIP3   OH224520   6.387   3.361  16.300 -0.0590  0.4323 -0.0485
 1010TIP3    H124521   6.460   3.307  16.328 -0.6550 -0.0549  0.5976
 1010TIP3    H224522   6.362   3.324  16.215  0.6111  0.7780 -0.4043
 1011TIP3   OH224523   2.581   0.500  12.006 -0.4656 -0.1262  0.4281
 1011TIP3    H124524   2.493   0.473  12.034 -0.7584 -0.4517 -0.7423
 1011TIP3    H224525   2.616   0.548  12.081 -2.0557  0.9586  0.5309
 1012TIP3   OH224526   3.994   2.856   1.092 -0.3027  0.5433  0.1098
 1012TIP3    H124527   4.053   2.793   1.050  1.1500  0.7842  1.6584
 1012TIP3    H224528   3.993   2.829   1.184 -0.9469  1.8139  0.4931
 1013TIP3   OH224529   1.380   0.679  13.101 -0.3508  0.2696 -0.2926
 1013TIP3    H124530   1.396   0.728  13.020  0.3581 -0.1660 -0.4309
 1013TIP3    H224531   1.305   0.623  13.081  0.7933 -1.0048 -1.2053
 1014TIP3   OH224532   2.747   4.116   4.448  0.0907 -0.4215 -0.1811
 1014TIP3    H124533   2.717   4.205   4.427  0.5536 -0.0383  0.7307
 1014TIP3    H224534   2.667   4.070   4.474  0.0750  0.2161  0.9607
 1015TIP3   OH224535   6.508   0.587  14.574 -0.1763  0.1203 -0.1903
 1015TIP3    H124536   6.499   0.682  14.581  2.3709  0.4680 -0.7049
 1015TIP3    H224537   6.459   0.563  14.495 -0.0437  1.1349 -0.5882
 1016TIP3   OH224538   2.391   0.313  16.152  0.3129  0.0575 -0.3140
 1016TIP3    H124539   2.453   0.241  16.144  0.1194 -0.1046 -0.3610
 1016TIP3    H224540   2.313   0.274  16.190 -0.2869 -0.0597 -1.5942
 1017TIP3   OH224541   0.958   2.359  12.923  0.0798 -0.4046  0.0096
 1017TIP3    H124542   0.909   2.314  12.855 -1.6422  0.5416  0.5779
 1017TIP3    H224543   1.037   2.391  12.879  1.2335 -3.5875 -0.4913
 1018TIP3   OH224544   2.618   6.100  15.041 -0.0812  0.0708  0.2239
 1018TIP3    H124545   2.596   6.159  15.113  0.9276  0.7329  0.0023
 1018TIP3    H224546   2.673   6.152  14.983 -0.1799 -0.7221 -0.6007
 1019TIP3   OH224547   5.681   1.104   1.651 -0.3618  0.3777  0.5960
 1019TIP3    H124548   5.613   1.123   1.716 -0.6890  0.4074  0.2539
 1019TIP3    H224549   5.706   1.014   1.667 -1.9007 -0.2988 -0.5205
 1020TIP3   OH224550   4.262   5.415  15.241 -0.0678 -0.4840 -0.0110
 1020TIP3    H124551   4.219   5.346  15.190  1.7629 -1.8935  0.2497
 1020TIP3    H224552   4.325   5.369  15.296  2.7365  1.5006 -1.3382
 1021TIP3   OH224553   3.399   6.267   5.065 -0.0094 -0.0921  0.3810
 1021TIP3    H124554   3.412   6.362   5.061 -2.0156  0.2247 -2.7249
 1021TIP3    H224555   3.485   6.230   5.049  0.3211  1.3423 -1.5288
 1022TIP3   OH224556   5.070   6.455  13.842 -0.4349 -0.3898 -0.4026
 1022TIP3    H124557   5.046   6.544  13.868 -0.6195  0.2352 -2.5396
 1022TIP3    H224558   5.007   6.399  13.889 -0.4257  0.5872  0.8265
 1023TIP3   OH224559   2.688   0.696  14.560  0.3196  0.2362  0.1773
 1023TIP3    H124560   2.690   0.686  14.465  2.2781  2.4876 -0.0954
 1023TIP3    H224561   2.635   0.774  14.574  2.0325  1.3506  0.7125
 1024TIP3   OH224562   2.189   1.448   3.903  0.1872  0.5104  0.3989
 1024TIP3    H124563   2.206   1.499   3.982 -1.0975 -1.3950  2.0067
 1024TIP3    H224564   2.112   1.396   3.924 -0.0493 -0.2663 -2.0548
 1025TIP3   OH224565   1.243   5.651  12.784 -0.6622  0.6231 -0.8705
 1025TIP3    H124566   1.286   5.733  12.762  3.4251 -1.3839 -1.4076
 1025TIP3    H224567   1.258   5.595  12.707 -1.8503 -1.1112  0.0823
 1026TIP3   OH224568   1.102   0.591  10.885 -0.3568  0.1637 -0.1650
 1026TIP3    H124569   1.175   0.646  10.914  0.1473 -0.7301  0.3257
 1026TIP3    H224570   1.024   0.644  10.901  0.1539  1.0031 -0.3753
 1027TIP3   OH224571   1.663   0.035  14.193 -0.4088 -0.0745  0.1864
 1027TIP3    H124572   1.604  -0.010  14.253 -1.0375 -0.4311 -0.6716
 1027TIP3    H224573   1.738  -0.023  14.185 -0.2059  0.0969  0.8201
 1028TIP3   OH224574   5.447   2.507   3.379 -0.8670  0.5210  0.1702
 1028TIP3    H124575   5.421   2.598   3.394 -0.8396  0.3980  1.0133
 1028TIP3    H224576   5.486   2.479   3.461  0.2818  0.1288 -0.4852
 1029TIP3   OH224577   2.650   4.293   6.435 -0.0055 -0.2482 -0.0829
 1029TIP3    H124578   2.588   4.266   6.502 -0.1910 -0.2029 -0.2351
 1029TIP3    H224579   2.596   4.309   6.357  0.2750 -0.9369 -0.4337
 1030TIP3   OH224580   4.598   2.126   5.433  0.1136 -0.7127 -0.2766
 1030TIP3    H124581   4.503   2.128   5.451 -0.0427  1.0960 -1.1714
 1030TIP3    H224582   4.611   2.042   5.389 -1.0819 -0.9776 -0.1808
 1031TIP3   OH224583   5.658   0.485   6.005  0.5518 -0.3745 -0.0848
 1031TIP3    H124584   5.672   0.461   6.097 -2.2508  0.1920  0.5779
 1031TIP3    H224585   5.656   0.581   6.006 -2.6303 -0.3555 -0.0897
 1032TIP3   OH224586   5.656   0.247   4.202 -0.0243  0.3439  0.0086
 1032TIP3    H124587   5.576   0.256   4.253 -1.0901 -0.0945 -1.5097
 1032TIP3    H224588   5.633   0.187   4.131  2.1507 -1.1932  0.5018
 1033TIP3   OH224589   4.000   6.775  17.189 -0.5066  0.0475  0.3918
 1033TIP3    H124590   3.945   6.778  17.267  1.0281  1.7018  1.4954
 1033TIP3    H224591   3.938   6.761  17.117 -2.3403  1.4212  1.6056
 1034TIP3   OH224592   6.472   2.029  15.425 -0.3635 -0.5228 -0.0642
 1034TIP3    H124593   6.450   2.114  15.387  1.0411  0.2488  0.7563
 1034TIP3    H224594   6.396   1.974  15.406 -1.0789  0.7532 -1.0814
 1035TIP3   OH224595   1.084   6.799   6.025 -0.1530  0.5962  0.0962
 1035TIP3    H124596   1.003   6.849   6.033 -1.9500 -1.9689 -0.6184
 1035TIP3    H224597   1.077   6.756   5.939  0.9959 -1.2534  0.8780
 1036TIP3   OH224598   3.983   1.826   4.649 -0.3855 -0.1912 -0.0714
 1036TIP3    H124599   4.027   1.860   4.727 -2.0129 -1.4705  1.4621
 1036TIP3    H224600   3.967   1.734   4.668  0.5846 -0.9748 -2.6165
 1037TIP3   OH224601   6.643   4.777  15.665 -0.0507 -1.1807 -0.3608
 1037TIP3    H124602   6.568   4.823  15.627  0.8255  1.2359  0.6242
 1037TIP3    H224603   6.707   4.773  15.594  0.5800  0.9282  0.0394
 1038TIP3   OH224604   5.508   3.784   5.282 -0.0111  0.3315  0.1982
 1038TIP3    H124605   5.556   3.782   5.199  0.1399  1.1337  0.2556
 1038TIP3    H224606   5.571   3.819   5.345 -0.1175 -0.3115  0.6600
 1039TIP3   OH224607   3.404   4.859   1.877 -0.0927 -0.3800 -0.0825
 1039TIP3    H124608   3.375   4.848   1.787 -2.5205  0.5125  0.4892
 1039TIP3    H224609   3.361   4.788   1.925  2.0450 -1.5077  0.2581
 1040TIP3   OH224610   6.751   6.415   2.604 -0.4971 -0.2978  0.0567
 1040TIP3    H124611   6.794   6.406   2.519  0.5190 -1.4143  0.6610
 1040TIP3    H224612   6.765   6.506   2.628 -1.2170  0.1654 -1.1738
 1041TIP3   OH224613   0.365   3.322  15.084  0.2823  0.4405 -0.0735
 1041TIP3    H124614   0.407   3.242  15.117 -2.0990 -1.4747 -1.2905
 1041TIP3    H224615   0.431   3.364  15.030  0.9355 -2.0105 -1.3052
 1042TIP3   OH224616   0.527   1.559  11.275  0.8268  0.0243 -0.6766
 1042TIP3    H124617   0.569   1.535  11.193  0.3087 -0.4021 -0.8194
 1042TIP3    H224618   0.440   1.592  11.250 -0.4758 -2.7085 -0.1575
 1043TIP3   OH224619   0.207   4.800   5.332 -0.2383 -0.0127  0.0452
 1043TIP3    H124620   0.204   4.773   5.240  3.3284 -0.9088  0.0470
 1043TIP3    H224621   0.149   4.738   5.377  0.9124 -2.0594 -1.1517
 1044TIP3   OH224622   5.700   4.758  16.874 -0.0899 -0.5561  0.1054
 1044TIP3    H124623   5.672   4.749  16.965 -2.2655 -4.0794 -0.7198
 1044TIP3    H224624   5.649   4.831  16.839 -0.1248  0.0423  1.3584
 1045TIP3   OH224625   4.554   1.317   0.016 -0.3245 -0.1520 -0.3872
 1045TIP3    H124626   4.563   1.228  -0.017 -0.0172  1.0087 -3.7823
 1045TIP3    H224627   4.644   1.349   0.023 -0.4883  0.3899 -0.7097
 1046TIP3   OH224628   4.843   0.025  13.273 -0.1195 -0.0509 -0.1188
 1046TIP3    H124629   4.783  -0.045  13.297 -0.4516  0.2104 -0.1858
 1046TIP3    H224630   4.833   0.035  13.179  0.7997 -0.7163 -0.3046
 1047TIP3   OH224631   5.015   4.991   1.091  0.2555  0.3486  0.1824
 1047TIP3    H124632   5.098   5.024   1.058 -0.4292  0.6090 -1.3687
 1047TIP3    H224633   4.980   5.063   1.145  2.3228 -0.8308  3.3716
 1048TIP3   OH224634   6.317   3.237   0.760 -0.5292  0.5629 -0.1776
 1048TIP3    H124635   6.367   3.279   0.690  0.1204  0.0751 -0.0172
 1048TIP3    H224636   6.339   3.287   0.839  1.8685 -1.2597  0.4071
 1049TIP3   OH224637   4.687   1.805  17.233 -0.8386 -0.0426 -0.1776
 1049TIP3    H124638   4.771   1.829  17.271 -0.9484  0.4666 -0.2562
 1049TIP3    H224639   4.708   1.732  17.174 -0.5342 -0.2547  0.1877
 1050TIP3   OH224640   3.365   5.644  16.614 -0.1209 -0.1917  0.3069
 1050TIP3    H124641   3.421   5.642  16.536  0.4123  1.8945  0.5560
 1050TIP3    H224642   3.299   5.710  16.595 -2.4040 -2.3990  0.1529
 1051TIP3   OH224643   5.654   0.186   3.644 -0.6889 -0.1064 -0.1602
 1051TIP3    H124644   5.683   0.222   3.560 -0.2966 -1.2656 -0.5491
 1051TIP3    H224645   5.561   0.207   3.649 -1.1972 -1.6593 -1.8144
 1052TIP3   OH224646   0.390   6.311   4.296  0.1752  0.6076  0.2117
 1052TIP3    H124647   0.424   6.326   4.208  1.2800 -0.2812  0.4685
 1052TIP3    H224648   0.371   6.399   4.330  0.7987  1.0247 -0.4965
 1053TIP3   OH224649   1.364   5.692   0.275  0.1585  0.3394 -0.2952
 1053TIP3    H124650   1.327   5.742   0.202  0.3767 -1.5256 -1.7479
 1053TIP3    H224651   1.452   5.668   0.246  1.6185  2.3426  1.9891
 1054TIP3   OH224652   1.133   2.008  13.643  0.0376 -0.2571 -0.0383
 1054TIP3    H124653   1.197   2.076  13.622  0.2438 -0.5808 -0.4934
 1054TIP3    H224654   1.161   1.975  13.729  0.7893 -0.7233 -0.4401
 1055TIP3   OH224655   3.776   4.026  14.952  0.2188 -0.1133 -0.4661
 1055TIP3    H124656   3.807   3.935  14.956 -1.5638 -0.7724 -0.8286
 1055TIP3    H224657   3.737   4.034  14.865  0.7363  1.1461 -0.5929
 1056TIP3   OH224658   3.787   5.655  13.728  0.2571 -0.2798 -0.1590
 1056TIP3    H124659   3.853   5.644  13.659  0.1654 -1.9863 -0.0188
 1056TIP3    H224660   3.835   5.638  13.809  0.0838  0.4751  0.1062
 1057TIP3   OH224661   2.384   3.544   1.201  0.5262  0.5849  0.3928
 1057TIP3    H124662   2.434   3.622   1.225 -0.1101  0.6624  1.5497
 1057TIP3    H224663   2.450   3.476   1.188  1.0082  0.9922  0.6735
 1058TIP3   OH224664   2.087   0.287   3.179  0.2382 -0.0058 -0.0999
 1058TIP3    H124665   2.145   0.212   3.187  1.7247  0.9752 -1.1274
 1058TIP3    H224666   2.015   0.256   3.123 -0.2201 -1.1965  1.0932
 1059TIP3   OH224667   5.905   3.169   0.987 -0.5732 -0.3881  0.5108
 1059TIP3    H124668   5.846   3.187   1.060  2.3178  1.7526  2.5648
 1059TIP3    H224669   5.881   3.234   0.921 -1.1052 -0.1434  0.9380
 1060TIP3   OH224670   2.819   1.455   5.415 -0.0964 -0.1599 -0.2191
 1060TIP3    H124671   2.827   1.540   5.459  1.3557 -0.8215  0.8929
 1060TIP3    H224672   2.776   1.398   5.478  0.1532 -0.6015 -0.4402
 1061TIP3   OH224673   3.929   2.284  14.090  0.2197  0.3315  0.2232
 1061TIP3    H124674   3.978   2.222  14.144  0.9407  1.2897  0.6956
 1061TIP3    H224675   3.849   2.301  14.140 -1.3950 -2.3586 -1.2205
 1062TIP3   OH224676   3.349   6.477  13.983 -0.3729  0.0355  0.2182
 1062TIP3    H124677   3.372   6.406  13.923 -0.3075 -0.7109  1.1169
 1062TIP3    H224678   3.415   6.545  13.966  1.4369 -1.3274  1.4471
 1063TIP3   OH224679   1.825   2.171  14.861 -0.4794  0.4014  0.0554
 1063TIP3    H124680   1.877   2.145  14.784  0.8860 -3.2329  1.9570
 1063TIP3    H224681   1.890   2.205  14.922 -1.0424  0.2515  0.7458
 1064TIP3   OH224682   1.820   0.981  11.767 -0.5982 -0.0555 -0.1934
 1064TIP3    H124683   1.873   1.060  11.767 -1.5076  0.5776  0.1485
 1064TIP3    H224684   1.756   0.995  11.697 -0.4998 -0.6703 -0.4080
 1065TIP3   OH224685   0.159   6.632   2.099 -0.1036 -0.0628 -0.1584
 1065TIP3    H124686   0.177   6.668   2.186  0.5078  0.1420 -0.3655
 1065TIP3    H224687   0.186   6.701   2.038 -0.9602 -0.0189 -0.5032
 1066TIP3   OH224688   1.960   0.860  16.196 -0.0521 -0.3895  0.1878
 1066TIP3    H124689   2.001   0.879  16.111  1.8039 -0.9188  0.8980
 1066TIP3    H224690   1.916   0.941  16.220 -2.7266 -0.9542 -2.3402
 1067TIP3   OH224691   0.882   6.033  14.454 -0.3724 -0.0200 -0.3386
 1067TIP3    H124692   0.940   5.986  14.395  1.6209  3.4214 -1.4560
 1067TIP3    H224693   0.935   6.105  14.488 -2.9062  1.0563  1.7906
 1068TIP3   OH224694   4.100   1.938  15.630 -0.1923 -0.5764  0.1008
 1068TIP3    H124695   4.127   1.848  15.609 -1.9466 -0.8290 -1.3501
 1068TIP3    H224696   4.015   1.948  15.586  0.0227  1.8375  0.1057
 1069TIP3   OH224697   6.138   2.734  15.314  0.3352  0.3473  0.4275
 1069TIP3    H124698   6.217   2.787  15.329  0.5654  0.2434 -0.3995
 1069TIP3    H224699   6.117   2.699  15.401  0.8146  0.9028  0.7813
 1070TIP3   OH224700   4.951   2.253  13.044 -0.2500  0.0143 -0.1657
 1070TIP3    H124701   5.013   2.284  13.110 -2.0212  2.9913  0.2522
 1070TIP3    H224702   5.004   2.241  12.965  1.3307 -0.4768  0.9175
 1071TIP3   OH224703   3.384   4.587   0.593  0.4128  0.1438 -0.2297
 1071TIP3    H124704   3.420   4.498   0.592  0.4665  0.1709 -0.8049
 1071TIP3    H224705   3.448   4.640   0.547  1.7849  1.0605  2.4926
 1072TIP3   OH224706   5.661   5.355  16.245 -0.0837 -0.2637 -0.6099
 1072TIP3    H124707   5.625   5.328  16.160 -1.3588 -0.4465 -0.0349
 1072TIP3    H224708   5.654   5.276  16.299 -1.0224  0.3590  0.2030
 1073TIP3   OH224709   0.975   0.724  12.199 -0.0360  0.1015  0.0925
 1073TIP3    H124710   1.029   0.789  12.244  1.4811  0.4375 -2.0339
 1073TIP3    H224711   0.917   0.777  12.143  1.2172 -0.2832 -1.6631
 1074TIP3   OH224712   3.701   4.918   4.266 -0.1244  0.1765  0.4199
 1074TIP3    H124713   3.682   4.837   4.312 -1.6366  0.5773  0.5614
 1074TIP3    H224714   3.796   4.920   4.257 -0.0708 -1.6346  0.3533
 1075TIP3   OH224715   0.292   2.037   5.976 -0.5555  0.6778 -0.2337
 1075TIP3    H124716   0.258   2.118   6.015 -4.5481 -1.0189  0.2683
 1075TIP3    H224717   0.346   1.998   6.044 -0.2654  1.9265  0.2745
 1076TIP3   OH224718   4.746   1.145  14.355  0.0092  0.0018  0.1056
 1076TIP3    H124719   4.839   1.143  14.332 -0.2096 -0.2698 -0.8069
 1076TIP3    H224720   4.712   1.224  14.313 -0.1869  0.0707  0.3895
 1077TIP3   OH224721   5.021   0.563   3.014 -0.2537  0.7560  0.3399
 1077TIP3    H124722   5.004   0.603   3.100 -1.2185 -1.2353  1.1449
 1077TIP3    H224723   4.935   0.534   2.984  0.3545 -0.4349 -0.3214
 1078TIP3   OH224724   6.254   1.883  17.174 -0.4198  0.4813 -0.1987
 1078TIP3    H124725   6.346   1.857  17.163 -0.3163  0.3457  0.8691
 1078TIP3    H224726   6.240   1.950  17.107 -0.2434 -1.1788 -1.9708
 1079TIP3   OH224727   3.260   2.185   5.513  0.5688 -0.3307 -0.3108
 1079TIP3    H124728   3.280   2.217   5.600 -0.6402  0.6933 -0.3866
 1079TIP3    H224729   3.342   2.196   5.463  0.7423  0.7719  0.2049
 1080TIP3   OH224730   6.634   6.801  13.556  0.0565  0.0331  0.0880
 1080TIP3    H124731   6.588   6.721  13.583 -0.5155  0.6360  0.9763
 1080TIP3    H224732   6.694   6.773  13.488  2.1469 -1.7662  2.4863
 1081TIP3   OH224733   3.275   6.284  15.419  0.0986 -0.3718  0.2121
 1081TIP3    H124734   3.344   6.278  15.353  0.5195  1.0688  0.4930
 1081TIP3    H224735   3.205   6.334  15.377 -0.4732 -1.1511  0.2006
 1082TIP3   OH224736   6.711   1.935  14.621  0.4076  0.3697 -0.0294
 1082TIP3    H124737   6.804   1.927  14.597  0.3291  1.7367 -0.8654
 1082TIP3    H224738   6.703   1.882  14.700  1.3699 -1.7777 -1.2655
 1083TIP3   OH224739   2.027   3.450  14.420 -0.4994 -0.0555  0.4207
 1083TIP3    H124740   2.121   3.437  14.413 -0.3124  1.2299  0.3276
 1083TIP3    H224741   2.006   3.514  14.352 -1.1764  0.8300  1.4115
 1084TIP3   OH224742   3.840   2.908   4.724 -0.4783 -0.4857  0.0195
 1084TIP3    H124743   3.776   2.836   4.714 -0.1683 -0.8708  0.7191
 1084TIP3    H224744   3.924   2.868   4.702 -0.6111  0.4004 -2.3961
 1085TIP3   OH224745   5.251   2.864   2.632  0.3488 -0.2604  0.4933
 1085TIP3    H124746   5.271   2.921   2.558 -0.4881  0.0312  0.4774
 1085TIP3    H224747   5.200   2.919   2.692  0.5391 -0.6527  1.0299
 1086TIP3   OH224748   5.994   1.839  11.045 -0.0842 -0.2020 -0.3325
 1086TIP3    H124749   6.041   1.832  10.962  0.1139  0.4211 -0.2757
 1086TIP3    H224750   5.933   1.764  11.044  2.5833 -2.5450  0.6817
 1087TIP3   OH224751   4.522   4.562   4.064  0.2780 -0.0186  0.1492
 1087TIP3    H124752   4.496   4.616   3.989  1.4599  0.5126  0.0988
 1087TIP3    H224753   4.455   4.579   4.130 -2.2795 -2.4340 -1.5597
 1088TIP3   OH224754   5.077   0.076  15.681  0.6312  0.0012 -0.1147
 1088TIP3    H124755   5.015   0.119  15.621 -0.2309  2.4712  2.3491
 1088TIP3    H224756   5.090  -0.011  15.643 -2.5485  0.1958 -2.0138
 1089TIP3   OH224757   4.626   6.771   0.690  0.0897 -0.0362 -0.4144
 1089TIP3    H124758   4.685   6.701   0.665 -0.1593 -0.2263 -0.4782
 1089TIP3    H224759   4.657   6.799   0.776  0.7119  0.3630 -0.7711
 1090TIP3   OH224760   1.972   3.855   3.084 -0.3446 -0.1153 -0.2052
 1090TIP3    H124761   1.880   3.878   3.071 -1.0340 -2.2344  0.4861
 1090TIP3    H224762   1.978   3.832   3.177  0.3966 -1.8667 -0.6403
 1091TIP3   OH224763   0.343   4.433  15.573 -0.1004  0.7259 -0.0789
 1091TIP3    H124764   0.362   4.356  15.518 -0.8779 -0.8233  1.7284
 1091TIP3    H224765   0.251   4.452  15.555  0.3470  1.9304 -1.2806
 1092TIP3   OH224766   6.655   2.508   4.030  0.1620 -0.2454 -0.0782
 1092TIP3    H124767   6.745   2.508   4.063 -0.1444 -0.3235  0.7713
 1092TIP3    H224768   6.663   2.541   3.940  0.9015  0.8815  0.3785
 1093TIP3   OH224769   4.460   1.030  15.659  0.1639 -0.2262 -0.1021
 1093TIP3    H124770   4.543   1.045  15.615 -0.0581  1.6379  0.0200
 1093TIP3    H224771   4.401   1.000  15.590  0.7451 -0.8473 -0.3352
 1094TIP3   OH224772   0.865   0.851   3.553  0.1445 -0.3584 -0.2809
 1094TIP3    H124773   0.861   0.927   3.495 -1.2980  0.2500  0.5638
 1094TIP3    H224774   0.781   0.808   3.542 -0.7809  0.5821  2.3550
 1095TIP3   OH224775   2.045   4.356   6.159 -0.1978 -0.1414 -0.4066
 1095TIP3    H124776   1.970   4.415   6.167 -2.1667 -2.4410 -0.3651
 1095TIP3    H224777   2.009   4.270   6.182  2.2871 -1.4981 -1.2343
 1096TIP3   OH224778   6.242   5.412  13.867 -0.1933  0.6289  0.1190
 1096TIP3    H124779   6.278   5.370  13.945 -0.2497 -1.3123 -0.8288
 1096TIP3    H224780   6.319   5.438  13.816 -0.0549 -1.6071 -0.9227
 1097TIP3   OH224781   3.735   0.179  11.673  0.3263 -0.2504  0.3467
 1097TIP3    H124782   3.750   0.170  11.767  1.2810 -2.6811  0.0362
 1097TIP3    H224783   3.805   0.238  11.644  0.2112  0.2779  1.0945
 1098TIP3   OH224784   6.756   1.669  15.465  0.1861  0.0120 -0.4193
 1098TIP3    H124785   6.682   1.654  15.524  1.1532  0.2856  0.8917
 1098TIP3    H224786   6.799   1.584  15.459  0.4256  0.1241 -0.2713
 1099TIP3   OH224787   3.771   4.601   2.964 -0.4662  0.6452 -0.1322
 1099TIP3    H124788   3.722   4.523   2.989  1.4756  0.1693  2.7468
 1099TIP3    H224789   3.844   4.568   2.911  0.3512  0.4080  1.0798
 1100TIP3   OH224790   2.053   4.264   4.377  0.5262 -0.3962 -0.5442
 1100TIP3    H124791   2.106   4.330   4.333 -0.4035 -0.1102 -1.2822
 1100TIP3    H224792   1.999   4.226   4.307  0.2327 -1.1402  0.0639
 1101TIP3   OH224793   4.624   1.481  12.254  0.4961 -0.1078  1.1590
 1101TIP3    H124794   4.538   1.462  12.290 -1.2071  1.9373 -1.4755
 1101TIP3    H224795   4.662   1.395  12.235 -2.7221 -1.1602 -1.3635
 1102TIP3   OH224796   3.828   2.939  11.519  0.4986 -0.0538 -0.0754
 1102TIP3    H124797   3.867   2.886  11.588 -1.7401 -1.9696 -0.1264
 1102TIP3    H224798   3.760   2.882  11.481 -0.9139  2.2741 -1.2890
 1103TIP3   OH224799   5.305   6.138  15.237 -0.2230  0.1416 -0.1235
 1103TIP3    H124800   5.382   6.106  15.190 -0.1205  0.2320 -0.0155
 1103TIP3    H224801   5.336   6.213  15.287 -0.3153 -0.0042  0.1539
 1104TIP3   OH224802   4.907   5.684  12.703 -0.3629  0.1034 -0.0525
 1104TIP3    H124803   4.886   5.770  12.667  1.2457  0.8539  0.7144
 1104TIP3    H224804   4.908   5.625  12.627  0.6255  1.1823 -0.9042
 1105TIP3   OH224805   0.675   5.704  11.710 -0.3287 -0.1654  0.3226
 1105TIP3    H124806   0.676   5.658  11.626  1.2968  1.6622 -0.7345
 1105TIP3    H224807   0.767   5.711  11.734 -0.6665  0.8363  1.3961
 1106TIP3   OH224808   3.271   1.593   5.937  0.3241 -0.1040  0.1659
 1106TIP3    H124809   3.224   1.602   5.854  0.0923 -1.9568  0.0526
 1106TIP3    H224810   3.207   1.556   5.997  0.0154  2.6628  1.6922
 1107TIP3   OH224811   4.911   0.377  11.026 -0.4255  0.5909 -0.8712
 1107TIP3    H124812   4.984   0.327  10.988 -0.4839  0.4866 -0.8458
 1107TIP3    H224813   4.953   0.449  11.073 -0.2086 -0.7452  1.0915
 1108TIP3   OH224814   0.928   5.385   1.266  0.0920  0.2237  0.0924
 1108TIP3    H124815   0.998   5.431   1.221  0.5852 -0.3055  0.2906
 1108TIP3    H224816   0.902   5.315   1.206 -1.9262  1.8273 -0.9986
 1109TIP3   OH224817   0.398   1.636  16.630 -0.5232  0.6813 -0.3410
 1109TIP3    H124818   0.353   1.599  16.706 -0.3260  0.7168 -0.2075
 1109TIP3    H224819   0.487   1.654  16.661  0.0514 -0.7990 -1.0020
 1110TIP3   OH224820   0.797   4.793   2.457  0.0767  0.5839  0.3395
 1110TIP3    H124821   0.766   4.710   2.420  1.9985 -0.7421  1.5199
 1110TIP3    H224822   0.748   4.860   2.410 -2.9538 -1.2439  0.6266
 1111TIP3   OH224823   0.033   3.470  15.542 -0.0967  0.4179  0.0412
 1111TIP3    H124824   0.059   3.433  15.626  0.2593  0.0200 -0.2417
 1111TIP3    H224825   0.114   3.476  15.492  0.0409  2.5388  0.4288
 1112TIP3   OH224826   6.675   5.279  13.898  0.0285  0.3016 -0.0929
 1112TIP3    H124827   6.605   5.216  13.908  0.5164 -0.3548 -0.7321
 1112TIP3    H224828   6.728   5.246  13.826 -0.0437  1.7534 -0.8587
 1113TIP3   OH224829   5.155   4.717   3.644 -0.5890 -0.2591  0.4971
 1113TIP3    H124830   5.123   4.627   3.647 -1.2495 -0.0770 -0.5490
 1113TIP3    H224831   5.231   4.717   3.702  0.6026 -1.9841 -0.9600
 1114TIP3   OH224832   6.744   6.790   2.000 -0.0275 -0.2943  0.0881
 1114TIP3    H124833   6.831   6.829   1.998 -0.6812  1.3508  1.1884
 1114TIP3    H224834   6.744   6.736   2.079  0.2032 -0.8817 -0.3038
 1115TIP3   OH224835   3.228   5.213   4.741 -0.4277  0.1034  0.3262
 1115TIP3    H124836   3.225   5.276   4.668 -1.7203 -1.4234 -1.0195
 1115TIP3    H224837   3.317   5.222   4.776  0.3562  0.6992 -1.6352
 1116TIP3   OH224838   5.810   3.729  12.255  0.0004 -0.1677  0.1295
 1116TIP3    H124839   5.871   3.678  12.203  2.4500  2.0986  0.5626
 1116TIP3    H224840   5.776   3.668  12.320  2.2663 -1.3991  0.2367
 1117TIP3   OH224841   6.776   2.915  11.934 -0.0129 -0.1349 -0.2272
 1117TIP3    H124842   6.835   2.840  11.922  1.5251  0.3796  3.1502
 1117TIP3    H224843   6.693   2.876  11.962  1.3667 -0.7330  3.6322
 1118TIP3   OH224844   5.529   5.657  12.232 -0.4372 -0.5314 -0.2652
 1118TIP3    H124845   5.581   5.736  12.241  0.5755 -1.2494  0.2708
 1118TIP3    H224846   5.467   5.660  12.305 -0.8401  0.0819 -0.6258
 1119TIP3   OH224847   3.960   1.248  13.085  0.1824 -0.0393 -0.2844
 1119TIP3    H124848   3.945   1.335  13.047  0.4470 -0.3887 -1.1973
 1119TIP3    H224849   4.055   1.245  13.100  0.2181 -0.2933 -0.5598
 1120TIP3   OH224850   1.486   2.187  13.836  0.3449  0.2266  0.8255
 1120TIP3    H124851   1.579   2.168  13.851  0.7525 -0.2414 -1.7718
 1120TIP3    H224852   1.451   2.207  13.923  2.2701 -2.1534  2.2769
 1121TIP3   OH224853   5.184   1.062  14.116 -0.3016 -0.2898 -0.0097
 1121TIP3    H124854   5.196   1.003  14.042 -2.0696 -0.0237 -0.5698
 1121TIP3    H224855   5.271   1.095  14.136  0.2303 -0.4552 -1.9139
 1122TIP3   OH224856   3.286   4.999  16.787  0.2742  0.3738  0.1662
 1122TIP3    H124857   3.300   5.029  16.698  0.9317  1.5679  0.6421
 1122TIP3    H224858   3.365   4.951  16.810 -0.3844 -0.9736 -0.2694
 1123TIP3   OH224859   3.268   4.405  11.726 -0.1546  0.1401 -0.0635
 1123TIP3    H124860   3.230   4.321  11.751 -0.0108  0.5533  1.6869
 1123TIP3    H224861   3.270   4.404  11.630  1.2566 -2.4844 -0.0878
 1124TIP3   OH224862   6.440   2.855   2.405 -0.7754  0.2253 -0.1684
 1124TIP3    H124863   6.417   2.765   2.382 -3.4250 -0.0060  2.7248
 1124TIP3    H224864   6.514   2.847   2.465 -0.6403  0.0486 -0.3574
 1125TIP3   OH224865   2.294   3.073  12.936 -0.2770  0.1676  0.0063
 1125TIP3    H124866   2.338   3.142  12.886  1.0478 -0.6353  0.0197
 1125TIP3    H224867   2.208   3.109  12.956  0.1729  1.5782 -0.4935
 1126TIP3   OH224868   5.280   5.608  11.522 -1.1158 -0.2873  0.1367
 1126TIP3    H124869   5.240   5.523  11.536  1.5594 -2.2584 -2.7844
 1126TIP3    H224870   5.260   5.630  11.431  2.4847 -0.4830 -0.8656
 1127TIP3   OH224871   0.329   6.265   6.096  0.0667 -0.0939 -0.1676
 1127TIP3    H124872   0.297   6.306   6.016  0.2858 -1.7613 -1.1478
 1127TIP3    H224873   0.259   6.277   6.160 -0.3487  0.7574 -0.7758
 1128TIP3   OH224874   5.448   2.419  13.227 -0.0502  0.5218  0.1062
 1128TIP3    H124875   5.484   2.504  13.251  0.0426  0.7917 -0.9326
 1128TIP3    H224876   5.400   2.435  13.146 -2.0244  0.0469  1.1122
 1129TIP3   OH224877   0.315   0.933  13.200  0.4038 -0.6084  0.2052
 1129TIP3    H124878   0.361   0.918  13.282  0.2325  0.0292  0.4290
 1129TIP3    H224879   0.253   0.861  13.193  0.2341 -0.5224  0.7764
 1130TIP3   OH224880   3.965   6.135  13.102 -0.4889  0.1598 -0.6275
 1130TIP3    H124881   4.017   6.200  13.054  0.9861  1.2486  2.2135
 1130TIP3    H224882   4.030   6.078  13.143 -1.6777 -0.7500  0.0456
 1131TIP3   OH224883   4.094   3.067  13.496 -0.2395  0.4934 -0.0666
 1131TIP3    H124884   4.180   3.044  13.531 -0.1698  0.8222 -0.0185
 1131TIP3    H224885   4.032   3.023  13.554 -0.1031  0.1147 -0.2010
 1132TIP3   OH224886   4.461   5.430  10.875  0.0984 -0.2795  0.5550
 1132TIP3    H124887   4.399   5.368  10.914 -0.4186  0.2412  0.5721
 1132TIP3    H224888   4.452   5.417  10.781 -0.7987  0.4977  0.5109
 1133TIP3   OH224889   6.306   1.796   2.647  0.5422 -0.7076  0.1625
 1133TIP3    H124890   6.227   1.795   2.593  0.5711  1.2713 -0.0020
 1133TIP3    H224891   6.284   1.744   2.724 -1.0003 -0.0419  0.2025
 1134TIP3   OH224892   3.935   4.857  11.865 -0.3751  0.3327 -0.1949
 1134TIP3    H124893   3.988   4.882  11.789  0.0537 -1.7389 -0.6431
 1134TIP3    H224894   3.995   4.804  11.919 -1.5155 -0.7325  0.0695
 1135TIP3   OH224895   0.346   0.287   1.637  0.1694  0.3332  0.9146
 1135TIP3    H124896   0.253   0.265   1.644  0.4961 -1.6539 -0.1205
 1135TIP3    H224897   0.376   0.293   1.727 -1.0408  1.5292  1.2745
 1136TIP3   OH224898   4.613   6.782  13.108  0.0283  0.4917 -0.0251
 1136TIP3    H124899   4.576   6.751  13.025 -0.3698 -0.4978  0.4992
 1136TIP3    H224900   4.650   6.868  13.088  0.6642 -0.0775 -1.4315
 1137TIP3   OH224901   4.866   2.377  11.557  0.2441 -0.0011 -0.4847
 1137TIP3    H124902   4.906   2.383  11.643  0.6740  1.1871 -0.7597
 1137TIP3    H224903   4.939   2.377  11.496 -0.1278  1.9733 -0.9832
 1138TIP3   OH224904   2.261   1.810   0.483  0.6104  0.3743 -0.2960
 1138TIP3    H124905   2.339   1.865   0.478 -0.7249  2.3918  0.3059
 1138TIP3    H224906   2.265   1.757   0.403  1.5533  1.8536 -1.2756
 1139TIP3   OH224907   5.530   4.019  16.722 -0.1533 -0.1591 -1.0566
 1139TIP3    H124908   5.531   4.107  16.758 -1.3646  0.0265 -1.4300
 1139TIP3    H224909   5.491   4.029  16.635  1.1010 -0.8535 -1.7299
 1140TIP3   OH224910   4.985   5.662  13.812  0.2709 -0.4450 -0.3865
 1140TIP3    H124911   4.915   5.712  13.853  0.7096  0.3748 -0.6281
 1140TIP3    H224912   4.940   5.599  13.756 -0.2676  0.1538 -0.6323
 1141TIP3   OH224913   5.753   1.442   2.257  0.5327  0.3259 -0.2164
 1141TIP3    H124914   5.744   1.494   2.337 -0.5874 -0.5674  0.2640
 1141TIP3    H224915   5.671   1.393   2.251  1.1736 -0.6658 -1.1684
 1142TIP3   OH224916   3.306   4.035   0.206  0.4937 -0.1420 -0.1991
 1142TIP3    H124917   3.268   4.034   0.118  0.1374 -0.3045 -0.0475
 1142TIP3    H224918   3.400   4.031   0.192  0.4243 -0.6104 -0.5679
 1143TIP3   OH224919   2.049   3.280  13.812 -0.1965  0.2732 -0.4101
 1143TIP3    H124920   1.988   3.313  13.878 -1.3798 -1.3537 -0.6347
 1143TIP3    H224921   2.133   3.272  13.859 -1.5959 -3.5490  1.8963
 1144TIP3   OH224922   1.783   6.208  14.396  0.0688 -0.4240 -0.2688
 1144TIP3    H124923   1.854   6.203  14.332 -0.2838  0.7173 -0.7597
 1144TIP3    H224924   1.735   6.126  14.385  0.6769 -0.7341 -0.6708
 1145TIP3   OH224925   2.090   2.034   2.040  0.0957  0.3285 -0.9363
 1145TIP3    H124926   2.020   2.066   2.097 -0.1273 -2.1326  0.3130
 1145TIP3    H224927   2.046   1.999   1.963 -0.1371 -1.2934 -0.1145
 1146TIP3   OH224928   4.028   5.400  15.518 -0.1604  0.0305  0.5565
 1146TIP3    H124929   4.088   5.327  15.533 -0.5054  0.0497  2.1736
 1146TIP3    H224930   4.064   5.444  15.441 -0.0067 -1.8874 -0.5360
 1147TIP3   OH224931   1.228   6.171   1.146 -0.1980  0.1881  0.5707
 1147TIP3    H124932   1.212   6.261   1.174 -1.1313 -0.5270  2.4760
 1147TIP3    H224933   1.149   6.146   1.099 -0.4964 -0.0744  1.2131
 1148TIP3   OH224934   4.846   3.958   3.079 -0.3386  0.0388 -0.0211
 1148TIP3    H124935   4.794   3.898   3.132 -1.1554 -0.4383 -1.2970
 1148TIP3    H224936   4.806   4.044   3.094  1.0158  0.3839  2.0362
 1149TIP3   OH224937   1.306   0.369  14.684  0.1154 -0.4407  0.5301
 1149TIP3    H124938   1.282   0.285  14.644  0.7305 -0.0873 -0.6366
 1149TIP3    H224939   1.235   0.388  14.744 -0.2508 -1.5859  0.4887
 1150TIP3   OH224940   2.616   1.880  14.752  0.1762 -0.0348 -0.1595
 1150TIP3    H124941   2.633   1.941  14.823 -0.6452 -0.1624  0.1591
 1150TIP3    H224942   2.558   1.927  14.692  0.6940 -0.0019 -0.6444
 1151TIP3   OH224943   1.638   5.433   0.962  0.7098 -0.5774 -0.1062
 1151TIP3    H124944   1.690   5.465   1.036  0.4959 -1.9871  0.6901
 1151TIP3    H224945   1.586   5.509   0.934  1.0652  0.0744  0.9423
 1152TIP3   OH224946   3.809   5.034   5.045  0.0993 -0.0648 -0.9802
 1152TIP3    H124947   3.728   5.051   5.093  0.2049 -2.2354  0.1219
 1152TIP3    H224948   3.782   5.028   4.953 -0.9431 -0.3608 -0.6672
 1153TIP3   OH224949   2.875   5.490  15.252 -0.2263  0.2771 -0.1807
 1153TIP3    H124950   2.792   5.449  15.274  0.1535  0.0713  0.9564
 1153TIP3    H224951   2.884   5.562  15.315  0.5372  0.1761 -0.1568
 1154TIP3   OH224952   5.548   6.286  14.037  0.7885 -0.4142  0.0147
 1154TIP3    H124953   5.601   6.288  13.957  1.0392 -0.8814  0.1670
 1154TIP3    H224954   5.469   6.335  14.014  1.0242 -0.2238 -0.4019
 1155TIP3   OH224955   0.964   0.262   0.591  0.0293 -0.4955  0.1171
 1155TIP3    H124956   1.026   0.230   0.657  0.3542 -0.5242 -0.1953
 1155TIP3    H224957   1.017   0.270   0.511 -0.0271  0.8388  0.1924
 1156TIP3   OH224958   4.067   4.872  15.877 -0.0368  0.3239 -0.2293
 1156TIP3    H124959   4.076   4.821  15.796  1.2531 -2.1896  1.3766
 1156TIP3    H224960   4.015   4.817  15.935  1.0581  0.9836  1.4546
 1157TIP3   OH224961   2.962   1.379   2.494  0.2729  0.3982 -0.0106
 1157TIP3    H124962   2.913   1.298   2.503 -0.9957  1.0148 -1.0558
 1157TIP3    H224963   3.052   1.351   2.480  0.0098 -0.7918  0.5715
 1158TIP3   OH224964   1.696   5.185  15.977 -0.0335 -0.1060 -0.1741
 1158TIP3    H124965   1.640   5.231  16.039  0.2282  1.0951 -0.8066
 1158TIP3    H224966   1.638   5.125  15.931 -0.6957  0.7026 -0.4113
 1159TIP3   OH224967   1.726   1.493   5.058  0.2362  0.0223 -0.0584
 1159TIP3    H124968   1.760   1.420   5.110 -0.1570 -0.6965 -0.7905
 1159TIP3    H224969   1.635   1.471   5.043 -0.2441  1.3136  0.7973
 1160TIP3   OH224970   2.147   0.077   0.004 -0.0884 -0.2863 -0.0998
 1160TIP3    H124971   2.081   0.061   0.072 -0.2376 -0.0626 -0.1911
 1160TIP3    H224972   2.147  -0.003  -0.048 -1.9565  0.5499 -1.5061
 1161TIP3   OH224973   1.410   6.701   1.225 -0.3543  0.6376  0.2556
 1161TIP3    H124974   1.362   6.666   1.300 -0.3178 -0.4668 -0.2060
 1161TIP3    H224975   1.497   6.661   1.232 -0.5831 -0.0943 -0.7640
 1162TIP3   OH224976   2.967   6.435   4.738  0.0393 -0.1218  0.2113
 1162TIP3    H124977   2.991   6.448   4.830  1.2422  0.6542 -0.1765
 1162TIP3    H224978   2.879   6.471   4.730 -0.6192 -1.4025  1.3279
 1163TIP3   OH224979   5.376   1.433  17.060 -0.3062  0.4076 -0.0049
 1163TIP3    H124980   5.325   1.473  17.132  0.7354  2.3817 -0.2880
 1163TIP3    H224981   5.311   1.415  16.992 -1.4538 -2.2166  1.6221
 1164TIP3   OH224982   2.553   2.406  13.355 -0.3213  0.2935 -0.0907
 1164TIP3    H124983   2.572   2.500  13.357  0.2772  0.1700  0.0877
 1164TIP3    H224984   2.634   2.364  13.383 -1.7998 -0.1335  4.2937
 1165TIP3   OH224985   1.314   0.410   5.112 -0.2532 -0.6712 -0.7164
 1165TIP3    H124986   1.231   0.428   5.067 -1.9228 -3.5909  0.8982
 1165TIP3    H224987   1.367   0.363   5.048 -0.7562 -0.7425 -1.0858
 1166TIP3   OH224988   2.553   6.759  11.529  0.2852 -0.0128  0.2347
 1166TIP3    H124989   2.509   6.780  11.447 -0.0137  1.9185  0.8202
 1166TIP3    H224990   2.488   6.710  11.579  0.0423 -0.1730 -0.2349
 1167TIP3   OH224991   0.372   5.854   4.321  0.3144  0.1566 -0.2255
 1167TIP3    H124992   0.445   5.795   4.342 -0.3811 -0.4146  0.6823
 1167TIP3    H224993   0.348   5.831   4.231 -0.1256 -1.1691  0.2067
 1168TIP3   OH224994   4.519   0.485   4.005 -0.5313  0.2081  0.2623
 1168TIP3    H124995   4.487   0.417   3.946 -0.8627  0.7124 -0.1460
 1168TIP3    H224996   4.507   0.448   4.093 -0.0150 -0.5555  0.0250
 1169TIP3   OH224997   2.803   4.654  11.235  0.0300 -0.7553  0.0482
 1169TIP3    H124998   2.740   4.654  11.163 -0.0744 -0.1922  0.1339
 1169TIP3    H224999   2.874   4.710  11.204  0.4560 -1.3214 -0.0147
 1170TIP3   OH225000   6.709   3.057   1.164 -0.0054 -0.2191 -0.0924
 1170TIP3    H125001   6.668   3.125   1.218  0.6087 -1.5227  2.1271
 1170TIP3    H225002   6.786   3.031   1.213  0.9444 -1.0566 -1.9446
 1171TIP3   OH225003   2.393   3.445  11.145 -0.0259  0.0523 -0.0751
 1171TIP3    H125004   2.465   3.471  11.087  2.0593  0.7679  2.5764
 1171TIP3    H225005   2.320   3.502  11.121  1.0406  0.9116 -1.3773
 1172TIP3   OH225006   0.867   0.609  11.501  0.0148 -0.0159  0.1521
 1172TIP3    H125007   0.932   0.617  11.570  1.5465  1.1683 -1.3600
 1172TIP3    H225008   0.841   0.699  11.481 -0.6223 -0.3567 -0.6168
 1173TIP3   OH225009   4.543   2.860  13.331  0.7575 -0.3564 -0.2154
 1173TIP3    H125010   4.586   2.793  13.384  0.2676  0.7245  1.6647
 1173TIP3    H225011   4.574   2.943  13.368 -1.4026  0.4540 -0.0771
 1174TIP3   OH225012   1.745   2.900   0.331 -0.4584 -0.5753  0.0237
 1174TIP3    H125013   1.653   2.926   0.331  0.1077  1.5655 -0.2966
 1174TIP3    H225014   1.773   2.908   0.422  0.0691  1.4089 -0.2766
 1175TIP3   OH225015   3.566   3.674   5.588  0.7486  0.3625  0.2680
 1175TIP3    H125016   3.490   3.728   5.611 -1.2997 -1.2981 -2.0124
 1175TIP3    H225017   3.633   3.736   5.560 -0.9271  1.8400 -0.7015
 1176TIP3   OH225018   1.584   1.619   3.523 -0.0344  0.4714 -0.1089
 1176TIP3    H125019   1.625   1.684   3.580 -1.4017  1.1193  0.1861
 1176TIP3    H225020   1.523   1.670   3.469 -0.3688 -0.4242 -0.6003
 1177TIP3   OH225021   2.919   3.092   5.006 -0.0255  0.3005  0.2990
 1177TIP3    H125022   2.981   3.160   4.981  2.1986 -1.1954  1.3075
 1177TIP3    H225023   2.837   3.116   4.963  1.5411  1.7902 -2.0944
 1178TIP3   OH225024   5.841   0.664   2.162  0.6095 -0.1794  0.1330
 1178TIP3    H125025   5.843   0.660   2.067  1.3503  0.8904  0.0838
 1178TIP3    H225026   5.929   0.693   2.186  0.4813 -0.5973  1.1549
 1179TIP3   OH225027   4.697   4.042   5.076  0.6993 -0.1182 -0.2815
 1179TIP3    H125028   4.741   3.978   5.131  1.2901 -0.9449 -1.6536
 1179TIP3    H225029   4.769   4.087   5.031  0.2303  0.5130 -0.4065
 1180TIP3   OH225030   0.591   5.511   4.952 -0.1581 -0.1731  0.0506
 1180TIP3    H125031   0.560   5.478   5.037 -0.5161 -0.9170 -0.3595
 1180TIP3    H225032   0.632   5.435   4.911 -1.3520 -0.2406 -1.0836
 1181TIP3   OH225033   4.524   2.294   1.084 -0.2429  0.1929 -0.4800
 1181TIP3    H125034   4.594   2.272   1.146 -1.2669 -0.4158  0.5105
 1181TIP3    H225035   4.541   2.240   1.008  1.6632  1.7442 -1.2262
 1182TIP3   OH225036   4.395   5.227   3.706 -0.0718  0.2327  0.2215
 1182TIP3    H125037   4.479   5.213   3.664 -0.1869 -0.4373  0.1951
 1182TIP3    H225038   4.386   5.322   3.714 -0.1371  0.3867 -1.4342
 1183TIP3   OH225039   3.365   1.200   5.191  1.1728 -0.5742  0.3124
 1183TIP3    H125040   3.332   1.153   5.114  1.6358 -0.0786 -0.2009
 1183TIP3    H225041   3.388   1.131   5.253  1.8384 -1.0325 -0.4253
 1184TIP3   OH225042   4.646   5.646   0.977 -0.4656  0.0574 -0.2871
 1184TIP3    H125043   4.658   5.737   1.002  1.2722 -0.0000 -0.8299
 1184TIP3    H225044   4.576   5.649   0.911 -2.2301  0.6479  1.4839
 1185TIP3   OH225045   4.289   4.246  16.545 -0.4011 -0.1765 -0.0135
 1185TIP3    H125046   4.367   4.192  16.552  1.4524  2.4932  2.3126
 1185TIP3    H225047   4.316   4.322  16.493 -1.8113  0.2623 -0.1729
 1186TIP3   OH225048   2.678   4.395   0.767 -0.1739  0.1422 -0.1940
 1186TIP3    H125049   2.733   4.413   0.843 -0.2377 -0.0984 -0.0894
 1186TIP3    H225050   2.729   4.333   0.714 -0.7721 -0.9007  0.4164
 1187TIP3   OH225051   4.585   0.529  15.644  0.1848  0.0308  0.7695
 1187TIP3    H125052   4.636   0.583  15.704  1.8124 -1.4344  0.7819
 1187TIP3    H225053   4.535   0.592  15.592  1.0969  1.4797  1.5643
 1188TIP3   OH225054   1.898   2.388   7.082  0.3655 -0.2802 -0.8541
 1188TIP3    H125055   1.939   2.410   6.999  0.1290  0.6200 -0.7392
 1188TIP3    H225056   1.825   2.449   7.089  0.7337  0.0430  0.2909
 1189TIP3   OH225057   6.415   0.694  16.063  0.4117 -0.1961  0.8185
 1189TIP3    H125058   6.401   0.599  16.066 -1.2137 -0.0252 -0.0212
 1189TIP3    H225059   6.479   0.707  15.993 -0.1437 -0.6155  0.2219
 1190TIP3   OH225060   5.924   5.103  12.099  0.0138  0.0724 -0.2381
 1190TIP3    H125061   5.938   5.019  12.055 -0.8364 -0.6243  0.7618
 1190TIP3    H225062   5.882   5.158  12.033  1.4770  0.0593 -1.2087
 1191TIP3   OH225063   1.759   0.727   4.860 -0.3666 -0.0921  0.4315
 1191TIP3    H125064   1.765   0.797   4.796  1.3459  0.3920  1.0474
 1191TIP3    H225065   1.677   0.681   4.840 -1.1613  1.6363 -0.4248
 1192TIP3   OH225066   4.309   1.918  14.826 -0.1800  0.4816  0.0799
 1192TIP3    H125067   4.309   1.932  14.920  0.8421 -2.2384  0.5708
 1192TIP3    H225068   4.251   1.986  14.791 -1.5817  0.7939  2.7894
 1193TIP3   OH225069   4.579   3.815   0.977  0.1420 -0.6156 -0.2082
 1193TIP3    H125070   4.606   3.792   0.888  0.1281  1.1242 -0.7053
 1193TIP3    H225071   4.640   3.885   1.003  1.1565 -2.1282  1.7869
 1194TIP3   OH225072   5.199   5.570  14.717  0.4303  0.1620  0.5076
 1194TIP3    H125073   5.169   5.627  14.787 -0.2280  1.7210 -0.9511
 1194TIP3    H225074   5.210   5.629  14.642  0.4206 -1.5259 -0.8846
 1195TIP3   OH225075   1.596   5.612  11.501 -0.1218 -0.6349  0.3340
 1195TIP3    H125076   1.523   5.549  11.505  0.2564 -1.1757 -1.0241
 1195TIP3    H225077   1.672   5.562  11.529 -0.2426 -0.0686  1.7487
 1196TIP3   OH225078   2.619   6.384   1.768 -0.5682  0.1845  0.3624
 1196TIP3    H125079   2.634   6.290   1.759 -2.0395 -0.1151  0.7562
 1196TIP3    H225080   2.617   6.417   1.678  1.1284  0.0751  0.2498
 1197TIP3   OH225081   4.783   4.064  16.358 -0.4969  0.2071  0.2519
 1197TIP3    H125082   4.796   4.158  16.365 -1.0411  0.2910  0.1861
 1197TIP3    H225083   4.835   4.027  16.429  0.2066  0.5121 -0.0924
 1198TIP3   OH225084   4.668   3.238   5.268  0.0492  0.1310 -0.0685
 1198TIP3    H125085   4.711   3.311   5.313 -1.5685  0.6993  0.6479
 1198TIP3    H225086   4.662   3.268   5.177 -1.9763  1.6511  0.4891
 1199TIP3   OH225087   6.214   5.079  13.217  0.1541  1.0541 -0.0369
 1199TIP3    H125088   6.262   5.014  13.165  1.1114  2.2925 -0.7625
 1199TIP3    H225089   6.193   5.148  13.154  0.7958  2.3115  1.0916
 1200TIP3   OH225090   4.646   0.615  12.893  0.1418  0.0848  0.3767
 1200TIP3    H125091   4.621   0.681  12.958 -0.9346 -0.9345  1.0533
 1200TIP3    H225092   4.608   0.647  12.811  0.7217  0.9222  0.4213
 1201TIP3   OH225093   2.757   0.032  14.314  0.0236  0.1170  0.1996
 1201TIP3    H125094   2.720  -0.054  14.333  0.1331  0.1922  0.7897
 1201TIP3    H225095   2.763   0.036  14.219  0.7647 -0.8411  0.1898
 1202TIP3   OH225096   2.973   4.692  11.731  0.0785  0.2183 -0.3659
 1202TIP3    H125097   2.923   4.758  11.684 -0.7311 -0.9559 -1.2027
 1202TIP3    H225098   3.064   4.708  11.707 -0.3192 -0.3952 -2.4271
 1203TIP3   OH225099   5.927   3.938   3.580 -0.2401 -0.2365 -0.3436
 1203TIP3    H125100   5.873   3.926   3.658 -2.0424 -0.0413 -1.4972
 1203TIP3    H225101   5.947   4.032   3.579 -1.5786  0.0581 -0.9400
 1204TIP3   OH225102   2.059   1.258  13.873  0.0953  0.4119  0.3691
 1204TIP3    H125103   2.103   1.327  13.822  1.7939  1.2351  2.7697
 1204TIP3    H225104   2.127   1.193  13.890 -0.2724  0.3707  1.8620
 1205TIP3   OH225105   5.598   3.700  11.833  0.3872 -0.1177 -0.7969
 1205TIP3    H125106   5.601   3.638  11.760 -0.7492 -1.3036  0.1076
 1205TIP3    H225107   5.512   3.686  11.873  0.9828  0.4727  0.7949
 1206TIP3   OH225108   5.992   4.309   4.878  0.3778 -0.3274 -0.1935
 1206TIP3    H125109   5.958   4.279   4.962 -1.2764  1.3806 -0.2053
 1206TIP3    H225110   5.922   4.291   4.815  0.9305 -0.0384 -0.9112
 1207TIP3   OH225111   6.722   5.987   2.327  0.1975  0.0660 -0.2278
 1207TIP3    H125112   6.815   6.002   2.340  0.5636 -0.5551 -1.9602
 1207TIP3    H225113   6.687   6.071   2.299  0.5889 -0.1098 -1.2887
 1208TIP3   OH225114   6.584   6.100   0.819 -0.6928 -0.4002  0.1977
 1208TIP3    H125115   6.526   6.048   0.875 -0.7684 -1.4244 -0.8030
 1208TIP3    H225116   6.543   6.097   0.733 -0.8022  1.5033  0.1293
 1209TIP3   OH225117   0.133   1.546   1.486  0.8092  0.0855 -0.4141
 1209TIP3    H125118   0.155   1.592   1.566  0.6912 -0.4113 -0.0935
 1209TIP3    H225119   0.216   1.507   1.457  0.8760  0.3622 -0.5990
 1210TIP3   OH225120   4.456   2.841   2.880  0.0005  0.3155  0.1065
 1210TIP3    H125121   4.471   2.836   2.786  0.3553  1.5527  0.0778
 1210TIP3    H225122   4.361   2.842   2.890 -0.1143 -2.1234 -0.0615
 1211TIP3   OH225123   4.897   1.083  14.831  0.0598 -0.0475  0.7649
 1211TIP3    H125124   4.841   1.034  14.770  0.7615 -3.0028  2.2973
 1211TIP3    H225125   4.844   1.093  14.910  0.0059  1.5833  0.5483
 1212TIP3   OH225126   3.157   6.314  16.454  0.5165  0.5065  0.1521
 1212TIP3    H125127   3.206   6.242  16.493  0.9137  0.0672 -1.0821
 1212TIP3    H225128   3.086   6.271  16.405  0.6303  0.9552 -0.4216
 1213TIP3   OH225129   2.964   5.189   2.626 -1.0423  0.6300 -0.1695
 1213TIP3    H125130   2.983   5.217   2.536 -4.3469  3.8396 -0.0905
 1213TIP3    H225131   2.926   5.102   2.616  0.3779  0.1116 -1.5863
 1214TIP3   OH225132   2.104   1.579   1.716 -0.3162  0.5552  0.2275
 1214TIP3    H125133   2.167   1.624   1.771  0.3598 -0.6886  0.5018
 1214TIP3    H225134   2.157   1.522   1.660 -1.1778 -0.5664  0.5187
 1215TIP3   OH225135   3.379   6.482  12.934  0.6673 -0.2536 -0.0078
 1215TIP3    H125136   3.356   6.567  12.971 -0.9000  0.0849 -1.6429
 1215TIP3    H225137   3.310   6.423  12.962 -0.8612  0.1312 -2.6683
 1216TIP3   OH225138   6.483   6.501  15.912  0.5201 -0.0662 -0.5533
 1216TIP3    H125139   6.394   6.524  15.886  0.9941  2.1648 -0.4208
 1216TIP3    H225140   6.477   6.482  16.006  0.0527 -0.7447 -0.7198
 1217TIP3   OH225141   0.945   1.536   1.815 -0.2372 -0.3693  0.0668
 1217TIP3    H125142   0.977   1.469   1.755  0.6164 -0.3575  0.5009
 1217TIP3    H225143   0.904   1.602   1.759  0.4692 -0.4075 -0.4978
 1218TIP3   OH225144   2.807   4.304  14.273  0.0361 -0.5817 -0.0488
 1218TIP3    H125145   2.733   4.246  14.290 -0.4610 -0.0381 -0.3262
 1218TIP3    H225146   2.769   4.392  14.277  0.6994 -0.2952 -0.0417
 1219TIP3   OH225147   0.100   5.056  12.827 -0.1297 -0.8109 -0.1830
 1219TIP3    H125148   0.045   5.035  12.902 -2.0876  0.8035 -1.0943
 1219TIP3    H225149   0.154   5.130  12.856  1.3198 -2.0905  0.5505
 1220TIP3   OH225150   1.737   2.119  12.539  0.2979  0.1457 -0.2012
 1220TIP3    H125151   1.646   2.127  12.511 -0.1621 -2.3635  0.3278
 1220TIP3    H225152   1.775   2.057  12.477  1.6591  1.0777 -0.3437
 1221TIP3   OH225153   0.719   5.878  13.804  0.7028 -0.2582  0.1623
 1221TIP3    H125154   0.771   5.941  13.754  0.3476 -1.6868 -2.1692
 1221TIP3    H225155   0.757   5.793  13.782 -0.8406 -1.1169  0.6359
 1222TIP3   OH225156   5.307   2.121  10.346  0.0119 -0.1602 -0.6554
 1222TIP3    H125157   5.392   2.136  10.306  1.4398 -2.2337  1.3741
 1222TIP3    H225158   5.245   2.124  10.273  1.9214  0.4464 -2.3259
 1223TIP3   OH225159   2.485   5.197   5.437 -0.7470 -0.3771  0.3872
 1223TIP3    H125160   2.431   5.251   5.495 -1.1823 -1.0438  0.6121
 1223TIP3    H225161   2.468   5.107   5.465  0.7325 -0.5915  0.6948
 1224TIP3   OH225162   2.167   4.377  14.188 -0.0434 -0.4159  0.7275
 1224TIP3    H125163   2.184   4.284  14.178 -1.0263 -0.7131  1.6337
 1224TIP3    H225164   2.247   4.413  14.225 -0.1530 -1.1737  1.7490
 1225TIP3   OH225165   5.064   5.892  12.005 -0.0682  0.4429 -0.1623
 1225TIP3    H125166   5.016   5.888  11.922  0.2686 -0.7140 -0.3139
 1225TIP3    H225167   5.145   5.939  11.983  1.2647 -2.1090 -1.1834
 1226TIP3   OH225168   4.945   2.806   5.845 -0.1039  0.0159  0.8864
 1226TIP3    H125169   5.028   2.853   5.846 -0.6042  0.9328  0.5680
 1226TIP3    H225170   4.884   2.865   5.800 -0.2145 -1.8743 -1.6717
 1227TIP3   OH225171   3.516   0.131   0.589  0.8967  0.6237 -0.1751
 1227TIP3    H125172   3.491   0.039   0.589 -0.9864  1.0742 -0.4730
 1227TIP3    H225173   3.557   0.145   0.674  1.0069 -0.4443 -0.0376
 1228TIP3   OH225174   0.486   1.932  16.509 -0.0195 -0.3022 -0.2092
 1228TIP3    H125175   0.569   1.893  16.536  0.9579  0.8242 -1.4439
 1228TIP3    H225176   0.510   1.995  16.441 -1.3600  3.0974  2.1819
 1229TIP3   OH225177   6.773   0.605  14.708  0.3859  0.1675 -0.1077
 1229TIP3    H125178   6.690   0.571  14.675 -0.1905  0.2385  1.2178
 1229TIP3    H225179   6.838   0.539  14.683 -0.2999 -0.5973  0.0937
 1230TIP3   OH225180   5.824   5.599   4.796 -0.5896 -0.2501  0.2334
 1230TIP3    H125181   5.782   5.641   4.871 -0.2343  0.9156 -0.1937
 1230TIP3    H225182   5.848   5.512   4.827 -2.1023 -0.4611  0.8994
 1231TIP3   OH225183   4.387   1.620   4.632  0.3940  0.0798  0.4312
 1231TIP3    H125184   4.418   1.710   4.646  0.9974 -0.5714  4.5762
 1231TIP3    H225185   4.295   1.621   4.658  0.5240 -0.5722  0.9486
 1232TIP3   OH225186   6.650   1.829  12.392  0.1109  0.2237  0.2503
 1232TIP3    H125187   6.656   1.795  12.303  0.4199  0.4001  0.2034
 1232TIP3    H225188   6.601   1.762  12.439  1.3599 -0.6695  0.3372
 1233TIP3   OH225189   0.673   6.408  13.837  0.1109 -0.6711 -0.5326
 1233TIP3    H125190   0.723   6.327  13.830  0.3264 -0.6324  0.3587
 1233TIP3    H225191   0.693   6.440  13.925 -1.1156 -0.3960 -0.3483
 1234TIP3   OH225192   4.957   1.440   1.895  0.2918 -0.1178  0.0431
 1234TIP3    H125193   5.000   1.484   1.821  0.9951  0.8297  0.9874
 1234TIP3    H225194   5.028   1.417   1.954  0.0907 -3.5603 -0.8460
 1235TIP3   OH225195   6.249   2.177   2.662 -0.2610  0.2167 -0.0537
 1235TIP3    H125196   6.252   2.170   2.757 -2.1889 -1.3202 -0.0263
 1235TIP3    H225197   6.339   2.162   2.633 -0.2361 -3.5204  1.3840
 1236TIP3   OH225198   6.150   4.162   3.659  0.9894  0.2855  0.1195
 1236TIP3    H125199   6.172   4.084   3.710 -0.4555 -0.6552 -0.6176
 1236TIP3    H225200   6.066   4.190   3.694 -0.6276 -1.0713 -2.4100
 1237TIP3   OH225201   5.818   1.588  10.894  0.0829  0.2077  0.4960
 1237TIP3    H125202   5.773   1.619  10.816  0.1046 -3.7389 -1.3289
 1237TIP3    H225203   5.756   1.529  10.936  0.6201  1.1221  2.7086
 1238TIP3   OH225204   4.806   5.312  16.473  0.3080 -0.2926 -0.3057
 1238TIP3    H125205   4.842   5.368  16.404  0.5183  0.7971  0.6475
 1238TIP3    H225206   4.851   5.342  16.553 -0.1122 -1.3500  0.3368
 1239TIP3   OH225207   6.266   0.292   3.677  0.6272 -0.1912  0.5835
 1239TIP3    H125208   6.209   0.322   3.747  1.2375  0.4263  0.8224
 1239TIP3    H225209   6.208   0.243   3.619  0.1227 -0.7945  1.5563
 1240TIP3   OH225210   1.773   0.333  13.259 -0.3596 -0.1213  0.2861
 1240TIP3    H125211   1.691   0.371  13.230 -1.0351 -1.0471  0.9051
 1240TIP3    H225212   1.833   0.345  13.186 -1.0299  0.6087 -0.1553
 1241TIP3   OH225213   3.681   5.259  16.090 -0.4995 -0.1981  0.3047
 1241TIP3    H125214   3.655   5.252  15.998  0.3870 -0.1450  0.0401
 1241TIP3    H225215   3.721   5.174  16.110 -0.2555 -0.0385  0.4973
 1242TIP3   OH225216   4.194   4.597  15.594  0.1192  0.1613  0.1182
 1242TIP3    H125217   4.243   4.680  15.596 -0.2359  0.3676  0.3756
 1242TIP3    H225218   4.130   4.606  15.665  0.5914 -0.6466  0.6572
 1243TIP3   OH225219   0.280   6.273  14.360  0.5780  0.1207 -0.5273
 1243TIP3    H125220   0.316   6.203  14.414  2.6680  1.0740 -0.5625
 1243TIP3    H225221   0.278   6.237  14.272 -0.3856 -0.5893 -0.2189
 1244TIP3   OH225222   1.505   5.816   2.900 -0.1757 -0.3160  0.3920
 1244TIP3    H125223   1.585   5.763   2.904  0.9416  1.3611  2.2238
 1244TIP3    H225224   1.434   5.752   2.907  1.1078 -1.6468  2.8742
 1245TIP3   OH225225   4.411   5.358  14.162  0.2377  0.1904 -0.1167
 1245TIP3    H125226   4.458   5.441  14.169  1.6956 -0.5560 -0.7508
 1245TIP3    H225227   4.472   5.299  14.118 -1.5979 -0.5854 -1.7734
 1246TIP3   OH225228   1.807   0.593   0.959 -0.5963 -0.0551 -0.3556
 1246TIP3    H125229   1.765   0.518   0.918 -1.1555 -1.1494  2.0698
 1246TIP3    H225230   1.735   0.646   0.993 -0.1457 -0.4968  1.3824
 1247TIP3   OH225231   4.704   2.119  15.810  0.2942 -0.6322 -0.6736
 1247TIP3    H125232   4.797   2.098  15.814  0.3971 -0.7115 -2.5859
 1247TIP3    H225233   4.680   2.141  15.900  2.4195  0.4685 -0.3178
 1248TIP3   OH225234   0.577   4.745  15.402  0.1496  0.6975  0.1332
 1248TIP3    H125235   0.606   4.680  15.338  0.7361  1.3877 -0.3108
 1248TIP3    H225236   0.544   4.693  15.475 -1.9510 -0.1473 -1.3101
 1249TIP3   OH225237   1.561   2.564   1.687 -0.2876  0.4630  0.2303
 1249TIP3    H125238   1.605   2.559   1.602 -1.2554 -1.3112 -0.2340
 1249TIP3    H225239   1.499   2.636   1.677 -1.2631 -0.4993 -1.0608
 1250TIP3   OH225240   0.979   6.735   0.858  0.4058  0.2407 -0.7500
 1250TIP3    H125241   0.949   6.764   0.944  2.6229  2.1190 -0.5014
 1250TIP3    H225242   0.991   6.641   0.867  0.5507  0.3906  1.0006
 1251TIP3   OH225243   5.433   0.334  12.181 -0.4960 -0.2334  0.3308
 1251TIP3    H125244   5.365   0.277  12.218 -1.4680  1.1624  0.7830
 1251TIP3    H225245   5.460   0.389  12.254  0.7659 -0.4090  0.0138
 1252TIP3   OH225246   4.583   4.954  14.246  0.3418  0.0695  0.0440
 1252TIP3    H125247   4.670   4.993  14.243  0.6738 -0.5991  0.7450
 1252TIP3    H225248   4.534   5.007  14.309 -0.0004  0.8931 -0.8859
 1253TIP3   OH225249   1.458   5.155   3.260 -0.0858 -0.2291  0.3296
 1253TIP3    H125250   1.396   5.191   3.197 -0.3615  0.4909  1.0048
 1253TIP3    H225251   1.427   5.066   3.277  0.7750 -0.9440 -1.5858
 1254TIP3   OH225252   5.063   1.745  11.778  0.1100 -0.1695 -0.9027
 1254TIP3    H125253   5.120   1.700  11.840 -1.7817 -0.5256  0.7040
 1254TIP3    H225254   5.092   1.716  11.692  1.7814 -0.9452 -0.1243
 1255TIP3   OH225255   0.202   5.186  11.756  0.1285  0.3430  0.2011
 1255TIP3    H125256   0.191   5.225  11.843 -0.5700  0.5044  0.0460
 1255TIP3    H225257   0.125   5.130  11.745 -1.2017  2.3432 -1.3713
 1256TIP3   OH225258   2.009   0.356   2.368  0.4406 -0.2407 -0.0888
 1256TIP3    H125259   2.080   0.343   2.304  0.6784  0.4495  0.0203
 1256TIP3    H225260   1.933   0.378   2.314  0.5540 -0.0195 -0.1641
 1257TIP3   OH225261   5.526   0.132  16.620  0.2046  0.3141  0.1199
 1257TIP3    H125262   5.532   0.182  16.701  0.9094  0.8947 -0.2721
 1257TIP3    H225263   5.439   0.093  16.621  0.1483  0.4549  1.0729
 1258TIP3   OH225264   1.968   4.146  11.454  0.1765 -0.1816  0.5809
 1258TIP3    H125265   1.891   4.179  11.499 -0.0608 -0.0588  0.0910
 1258TIP3    H225266   1.934   4.082  11.391  0.3875  0.4487 -0.1903
 1259TIP3   OH225267   4.170   3.732  12.925 -0.1303  0.5836 -0.1154
 1259TIP3    H125268   4.157   3.725  13.019 -0.8465 -0.5010 -0.2839
 1259TIP3    H225269   4.260   3.762  12.916 -0.4023  1.8388  0.9282
 1260TIP3   OH225270   3.846   1.424   4.178  0.5985 -0.5414  0.1870
 1260TIP3    H125271   3.826   1.375   4.258  2.6226  0.4512  1.3841
 1260TIP3    H225272   3.816   1.513   4.196  1.7755 -0.1261  0.2147
 1261TIP3   OH225273   1.305   6.766  15.868  0.0014  0.3886  0.0483
 1261TIP3    H125274   1.369   6.796  15.803 -0.1520  0.6654  0.0196
 1261TIP3    H225275   1.220   6.791  15.831 -0.0792  0.6767  0.4170
 1262TIP3   OH225276   2.426   2.027  12.198  0.5154  0.4506  0.3076
 1262TIP3    H125277   2.444   2.121  12.203 -0.5760  0.7774 -1.1963
 1262TIP3    H225278   2.343   2.021  12.151  0.7905 -1.2979 -0.0299
 1263TIP3   OH225279   4.425   3.191   2.551 -0.2923 -0.2082  0.3316
 1263TIP3    H125280   4.422   3.232   2.637  0.1062  2.3199 -0.7748
 1263TIP3    H225281   4.347   3.135   2.549 -1.0237  0.6990  1.8377
 1264TIP3   OH225282   6.589   5.845  15.004  0.0932  0.4590 -0.4496
 1264TIP3    H125283   6.661   5.802  14.957 -0.7044  0.0282 -1.3238
 1264TIP3    H225284   6.624   5.931  15.027  0.3559  0.9404 -2.3926
 1265TIP3   OH225285   5.245   4.992  11.496  0.1745 -0.0239  0.0668
 1265TIP3    H125286   5.316   4.963  11.439  0.0792  0.8671 -0.5282
 1265TIP3    H225287   5.182   4.920  11.494  0.4222 -0.2349 -0.5170
 1266TIP3   OH225288   1.685   4.408   5.672 -0.2473  0.6771  0.4660
 1266TIP3    H125289   1.615   4.430   5.735 -1.0373  0.4418 -0.3137
 1266TIP3    H225290   1.658   4.325   5.634 -0.4559  1.4378 -1.1210
 1267TIP3   OH225291   0.166   5.186   0.838 -0.2425  0.5085  0.0284
 1267TIP3    H125292   0.253   5.146   0.830 -0.0526  0.8957  0.1101
 1267TIP3    H225293   0.146   5.219   0.751 -0.5987 -0.1608 -0.1478
 1268TIP3   OH225294   2.451   3.870  11.987 -0.1388  0.6307  0.2597
 1268TIP3    H125295   2.441   3.848  12.080  0.3322  0.2275  0.2174
 1268TIP3    H225296   2.408   3.798  11.941  0.6928  0.2028  0.1394
 1269TIP3   OH225297   5.646   3.715  12.889  0.6993 -0.2444  0.4746
 1269TIP3    H125298   5.590   3.701  12.966 -0.3638  1.5437  0.0648
 1269TIP3    H225299   5.604   3.664  12.820 -0.4486  1.0292  0.1871
 1270TIP3   OH225300   1.423   4.269   0.242 -0.3428 -0.2093  0.2647
 1270TIP3    H125301   1.391   4.335   0.304 -0.8616 -0.1977 -0.0040
 1270TIP3    H225302   1.426   4.188   0.293 -1.3724 -0.3332  0.1584
 1271TIP3   OH225303   0.286   2.257   1.605  0.2213  0.2139 -0.3288
 1271TIP3    H125304   0.308   2.238   1.696 -1.0785 -1.3772 -0.3000
 1271TIP3    H225305   0.300   2.174   1.559 -1.8012  0.2021 -1.0188
 1272TIP3   OH225306   1.951   1.852   3.062  0.4730 -0.0835  0.3512
 1272TIP3    H125307   2.018   1.862   2.995  0.0210  0.5390 -0.0167
 1272TIP3    H225308   1.873   1.893   3.025 -0.0922 -0.7237  0.8067
 1273TIP3   OH225309   3.474   0.377   5.408  0.4289 -0.3410  0.2316
 1273TIP3    H125310   3.459   0.405   5.498 -1.9789 -0.0117 -0.2179
 1273TIP3    H225311   3.443   0.450   5.354  0.8091 -0.9711 -0.8748
 1274TIP3   OH225312   4.712   6.229  10.718 -0.2443  0.0237 -0.2881
 1274TIP3    H125313   4.759   6.146  10.714 -0.3615 -0.0468 -0.1796
 1274TIP3    H225314   4.665   6.234  10.635 -1.3664 -0.6819  0.2758
 1275TIP3   OH225315   2.947   4.434   0.475 -0.1464 -0.3641 -0.0763
 1275TIP3    H125316   2.871   4.456   0.422  1.0278  0.8544 -1.3362
 1275TIP3    H225317   2.977   4.517   0.511  0.3699 -0.8790  0.7159
 1276TIP3   OH225318   0.772   6.475   3.860 -0.2326  0.4826  0.2186
 1276TIP3    H125319   0.861   6.441   3.848 -0.3524  0.3145 -0.2186
 1276TIP3    H225320   0.783   6.568   3.876  0.1196  0.2084  1.6859
 1277TIP3   OH225321   0.679   3.177   5.371 -0.0965 -0.1182 -0.2818
 1277TIP3    H125322   0.598   3.170   5.320 -2.1873 -1.1667  2.8934
 1277TIP3    H225323   0.652   3.212   5.456  2.5214 -1.8253  1.4364
 1278TIP3   OH225324   2.425   3.070  15.887 -0.0256  0.0735 -0.1972
 1278TIP3    H125325   2.459   2.983  15.906  1.0322  0.5944  0.3770
 1278TIP3    H225326   2.333   3.055  15.866 -0.0417 -1.1081  0.5779
 1279TIP3   OH225327   1.503   2.926   4.378  0.2737 -0.0020  0.0977
 1279TIP3    H125328   1.560   2.948   4.451 -0.7669  1.1179  0.6142
 1279TIP3    H225329   1.452   2.851   4.408  0.7314 -0.3458  0.0270
 1280TIP3   OH225330   4.054   3.737  16.095 -0.3590 -0.0633  0.5213
 1280TIP3    H125331   4.087   3.648  16.086  0.2364  0.1938  0.0923
 1280TIP3    H225332   4.035   3.765  16.005 -0.1475  0.3843  0.6114
 1281TIP3   OH225333   2.725   0.896  15.575 -0.0459  0.1037  0.0223
 1281TIP3    H125334   2.771   0.901  15.658 -0.5396  2.1708  0.2139
 1281TIP3    H225335   2.726   0.985  15.541 -0.5307 -0.5494 -1.8279
 1282TIP3   OH225336   6.076   6.712   4.187  0.2365 -0.0471 -0.3171
 1282TIP3    H125337   6.146   6.687   4.247  0.0686  1.2933  0.4720
 1282TIP3    H225338   6.071   6.639   4.124  0.9701 -1.0953  0.7879
 1283TIP3   OH225339   3.666   2.972   4.274  0.0557 -0.0407 -0.1062
 1283TIP3    H125340   3.708   2.937   4.195  0.8831 -0.2329  0.4088
 1283TIP3    H225341   3.738   3.011   4.324 -0.2733 -0.8829  1.0678
 1284TIP3   OH225342   1.907   3.142  16.547  0.2415 -0.4031 -0.0380
 1284TIP3    H125343   1.838   3.204  16.567 -0.0420 -0.1465 -1.6551
 1284TIP3    H225344   1.898   3.126  16.453  1.1314 -1.8915  0.0966
 1285TIP3   OH225345   1.503   1.925  15.899 -0.3734  0.4913  0.2340
 1285TIP3    H125346   1.585   1.973  15.913  0.4769 -1.3041  1.7953
 1285TIP3    H225347   1.527   1.833  15.908 -2.2258 -0.2014 -1.2323
 1286TIP3   OH225348   3.014   3.499  13.479 -0.0074  0.3160 -0.0037
 1286TIP3    H125349   3.077   3.551  13.530  1.0665  0.5502 -1.5004
 1286TIP3    H225350   3.039   3.515  13.388 -1.9467  0.0116 -0.6236
 1287TIP3   OH225351   3.914   3.106  13.297  0.6344 -0.3609  0.0566
 1287TIP3    H125352   3.974   3.110  13.372  0.6197 -1.1952  0.1305
 1287TIP3    H225353   3.960   3.051  13.233 -0.3597 -1.6449  0.4172
 1288TIP3   OH225354   4.823   0.001  12.868 -0.4967  0.3819 -0.6501
 1288TIP3    H125355   4.804   0.074  12.809  1.2862  0.2484 -1.4394
 1288TIP3    H225356   4.906   0.024  12.908 -1.1520 -0.0377  1.0595
 1289TIP3   OH225357   6.171   5.936  16.218  0.4502  0.2240 -0.0246
 1289TIP3    H125358   6.111   5.869  16.249  1.1530 -0.1429  0.5979
 1289TIP3    H225359   6.163   5.934  16.123 -1.0385  0.6926  0.0709
 1290TIP3   OH225360   0.361   2.569   5.316  0.5443  0.3282  0.0445
 1290TIP3    H125361   0.400   2.653   5.292  0.5940  0.6397  1.1987
 1290TIP3    H225362   0.274   2.591   5.349 -0.5280 -0.3206 -2.0886
 1291TIP3   OH225363   5.385   5.164   4.368  0.5262  0.2814 -0.1896
 1291TIP3    H125364   5.337   5.184   4.288 -0.5611 -2.1083 -0.2377
 1291TIP3    H225365   5.435   5.085   4.347  1.3592  0.4464  1.0624
 1292TIP3   OH225366   6.380   4.751  13.778 -0.2596  0.3577 -0.7406
 1292TIP3    H125367   6.359   4.667  13.738  1.5306 -0.4978  0.0013
 1292TIP3    H225368   6.356   4.741  13.869  0.2275  0.5243 -0.5878
 1293TIP3   OH225369   6.702   0.512   3.856  0.6037 -0.3755  0.2956
 1293TIP3    H125370   6.770   0.538   3.919  1.3083 -2.2304  0.3694
 1293TIP3    H225371   6.643   0.457   3.907 -1.0475  1.2650  0.2441
 1294TIP3   OH225372   6.043   0.576  10.574  0.2082 -0.3085  0.6601
 1294TIP3    H125373   5.968   0.604  10.521  0.7624  1.0223  0.5248
 1294TIP3    H225374   6.033   0.481  10.581  0.3376 -0.6281 -2.1717
 1295TIP3   OH225375   2.432   5.060  14.467 -0.2253  0.0836 -0.4505
 1295TIP3    H125376   2.479   5.024  14.542 -1.5475  0.5817  0.6378
 1295TIP3    H225377   2.476   5.144  14.450  0.9951 -0.6716 -1.1702
 1296TIP3   OH225378   0.985   4.550  17.042 -0.2736 -0.0996  0.3609
 1296TIP3    H125379   1.078   4.550  17.066 -0.2618  1.9503  0.4989
 1296TIP3    H225380   0.961   4.457  17.039  1.6491 -0.6606  0.7771
 1297TIP3   OH225381   2.914   4.817   5.494 -0.0244  0.6568 -0.1515
 1297TIP3    H125382   2.910   4.875   5.418  0.7196  0.4458 -0.3695
 1297TIP3    H225383   2.931   4.875   5.568  0.3473  0.7632 -0.3151
 1298TIP3   OH225384   2.155   4.467   4.215  0.6574  0.2142 -0.7635
 1298TIP3    H125385   2.141   4.476   4.120  1.1556  1.2626 -0.7527
 1298TIP3    H225386   2.250   4.473   4.226  0.5510  0.9819 -0.1333
 1299TIP3   OH225387   5.498   0.608   0.942 -0.0844 -0.6503  0.9016
 1299TIP3    H125388   5.525   0.633   1.030 -1.5866  2.0477  0.7056
 1299TIP3    H225389   5.469   0.690   0.902 -2.8877 -2.3390 -0.8491
 1300TIP3   OH225390   3.054   6.060  16.062 -0.0960 -0.1350 -0.3423
 1300TIP3    H125391   3.082   6.151  16.060  0.1295 -0.1912  0.0631
 1300TIP3    H225392   3.016   6.048  16.149 -1.3918 -0.0673 -0.8779
 1301TIP3   OH225393   5.516   2.607   0.050  0.3601 -0.2285  0.8270
 1301TIP3    H125394   5.423   2.627   0.062  0.5167  0.6980  0.5652
 1301TIP3    H225395   5.549   2.594   0.139  0.2393  0.6697  1.0125
 1302TIP3   OH225396   3.722   5.242   0.269  0.3020 -0.2659 -0.2876
 1302TIP3    H125397   3.656   5.285   0.215  0.2048  0.1351  0.1440
 1302TIP3    H225398   3.773   5.314   0.306 -0.0277 -0.4973  0.6525
 1303TIP3   OH225399   1.882   3.966  11.254  0.4837 -0.1546 -0.2113
 1303TIP3    H125400   1.951   3.902  11.235  0.7641  0.1418 -0.1973
 1303TIP3    H225401   1.851   3.993  11.168 -0.1313 -0.8366 -0.2132
 1304TIP3   OH225402   3.240   5.310   2.243  0.4271 -0.3662 -0.6438
 1304TIP3    H125403   3.305   5.258   2.196 -0.5574 -2.1891 -0.0563
 1304TIP3    H225404   3.290   5.383   2.280  1.9985 -1.3183 -0.8078
 1305TIP3   OH225405   0.593   6.390  14.745 -0.0977  0.3145 -0.7321
 1305TIP3    H125406   0.686   6.386  14.770  0.3472  2.2917 -1.8847
 1305TIP3    H225407   0.553   6.447  14.810 -1.1303 -2.4859  1.2640
 1306TIP3   OH225408   2.346   2.833   5.831 -0.5077  0.2360  0.1733
 1306TIP3    H125409   2.350   2.904   5.767 -0.6327 -0.8123 -1.0132
 1306TIP3    H225410   2.371   2.875   5.914  1.5906  1.2026 -0.8866
 1307TIP3   OH225411   0.185   3.868   1.022  0.0478  0.2672  0.1976
 1307TIP3    H125412   0.102   3.826   1.043 -0.7086  1.4609 -0.3496
 1307TIP3    H225413   0.244   3.841   1.093 -0.8154 -0.5115  0.6388
 1308TIP3   OH225414   3.831   1.448   5.525 -0.3865 -0.7408 -0.3795
 1308TIP3    H125415   3.738   1.447   5.502 -0.1397  1.3808 -1.6876
 1308TIP3    H225416   3.835   1.499   5.605 -0.1330  1.7159 -1.8605
 1309TIP3   OH225417   3.185   5.813  15.981  0.9430 -0.3273 -0.0719
 1309TIP3    H125418   3.262   5.844  16.029  0.6585  0.1636  0.0663
 1309TIP3    H225419   3.130   5.890  15.971 -0.4533 -1.0422  1.5412
 1310TIP3   OH225420   2.447   0.513   4.939  0.0067 -0.4703  0.1945
 1310TIP3    H125421   2.455   0.424   4.904 -3.2394 -0.3164 -1.2458
 1310TIP3    H225422   2.381   0.506   5.007 -1.7795  1.0771 -1.2645
 1311TIP3   OH225423   4.941   0.300  13.498  0.0201 -0.1119 -0.5569
 1311TIP3    H125424   4.995   0.324  13.423 -0.8920  1.2912 -0.8088
 1311TIP3    H225425   4.989   0.229  13.541  1.7006  0.6185 -1.1426
 1312TIP3   OH225426   6.258   3.870  13.970  0.1609  0.3655 -0.5843
 1312TIP3    H125427   6.287   3.907  14.054  1.6905 -0.2480 -0.7998
 1312TIP3    H225428   6.283   3.936  13.905 -0.5886  0.6264 -0.6178
 1313TIP3   OH225429   3.617   2.140   0.456  0.0990 -0.7218  0.0999
 1313TIP3    H125430   3.563   2.205   0.501  0.8643 -1.8527  2.8545
 1313TIP3    H225431   3.591   2.147   0.364 -1.0899  2.2110  0.5427
 1314TIP3   OH225432   1.215   1.284  14.782 -0.2458  0.0345  0.1253
 1314TIP3    H125433   1.142   1.343  14.800 -1.6319 -1.8005  0.8389
 1314TIP3    H225434   1.252   1.264  14.868 -1.1859 -1.7942  0.1414
 1315TIP3   OH225435   3.207   4.548  12.057 -0.2500 -0.1763 -0.4602
 1315TIP3    H125436   3.219   4.583  11.969 -0.2316 -0.6735 -0.6586
 1315TIP3    H225437   3.285   4.494  12.072 -0.9501 -1.3057 -0.7321
 1316TIP3   OH225438   4.198   5.979   0.123 -0.5287  0.0823  0.0183
 1316TIP3    H125439   4.265   5.934   0.175  1.8171  2.0045 -1.1005
 1316TIP3    H225440   4.227   5.968   0.033 -1.5707  1.2458 -0.4781
 1317TIP3   OH225441   1.869   5.309   0.211  0.2134  0.6471  0.0089
 1317TIP3    H125442   1.830   5.280   0.293 -0.0258  0.0081 -0.3239
 1317TIP3    H225443   1.794   5.319   0.151  0.3766  1.1601 -0.1216
 1318TIP3   OH225444   6.680   5.879   0.482  0.0488 -0.0632 -0.5290
 1318TIP3    H125445   6.680   5.812   0.550  1.8133 -0.9102 -1.2875
 1318TIP3    H225446   6.688   5.962   0.530 -0.6685 -0.4815  0.3514
 1319TIP3   OH225447   6.486   0.106  17.097 -0.4181 -0.1119  0.4146
 1319TIP3    H125448   6.460   0.197  17.114  0.1726  0.3415 -0.9792
 1319TIP3    H225449   6.407   0.055  17.115 -0.6179  0.6062  1.7046
 1320TIP3   OH225450   0.170   6.703   3.752  0.0080  0.2455  0.4819
 1320TIP3    H125451   0.123   6.632   3.796 -2.1569  0.8025 -0.7968
 1320TIP3    H225452   0.187   6.767   3.821 -0.4419 -0.3172  1.1262
 1321TIP3   OH225453   2.660   3.911  13.410  0.1087  0.4068  0.2134
 1321TIP3    H125454   2.717   3.986  13.429  1.0814 -0.0774 -0.7078
 1321TIP3    H225455   2.591   3.948  13.355 -0.0236  0.8449  0.6670
 1322TIP3   OH225456   5.911   2.889   5.092  0.4903  0.1891  0.1103
 1322TIP3    H125457   5.822   2.906   5.123 -0.3501 -0.4973 -1.7713
 1322TIP3    H225458   5.963   2.960   5.128 -0.7296  0.3784  1.6071
 1323TIP3   OH225459   2.997   2.757   3.988 -0.2160  0.3061  0.1857
 1323TIP3    H125460   3.014   2.706   4.068 -1.5906 -0.3826  0.0712
 1323TIP3    H225461   3.054   2.718   3.922 -1.0108 -0.8967  0.1867
 1324TIP3   OH225462   2.258   6.431   0.507  0.6119  0.1081  0.5186
 1324TIP3    H125463   2.231   6.340   0.511 -0.7115  0.4519 -0.2032
 1324TIP3    H225464   2.322   6.434   0.436  1.6728 -0.4761  1.4136
 1325TIP3   OH225465   3.749   0.675   6.707  1.0742 -0.5718 -0.0337
 1325TIP3    H125466   3.664   0.635   6.687  0.4898  0.6611 -0.0816
 1325TIP3    H225467   3.811   0.626   6.654  0.1891 -0.5129 -1.1670
 1326TIP3   OH225468   5.761   2.701   3.625 -0.7328  0.0687  0.0489
 1326TIP3    H125469   5.691   2.661   3.572  1.2559 -1.3216 -1.7102
 1326TIP3    H225470   5.768   2.791   3.591  0.1511 -0.6417 -1.7752
 1327TIP3   OH225471   2.303   0.011  12.651  0.0047 -0.4649  0.1907
 1327TIP3    H125472   2.231  -0.018  12.707 -1.7333 -0.2873 -1.8026
 1327TIP3    H225473   2.321  -0.064  12.594  0.0679  0.1300 -0.5929
 1328TIP3   OH225474   5.934   4.259   2.571  0.4337 -0.1676 -0.1538
 1328TIP3    H125475   6.005   4.207   2.609  0.3170 -0.6487 -0.5824
 1328TIP3    H225476   5.875   4.194   2.533  0.6046  0.2938 -1.2550
 1329TIP3   OH225477   4.965   3.726  11.690  0.0667  0.1888 -0.0251
 1329TIP3    H125478   5.021   3.741  11.614  1.4933 -0.4502  0.8576
 1329TIP3    H225479   4.965   3.810  11.737 -0.2869  0.3880 -0.3693
 1330TIP3   OH225480   0.779   1.186  12.826  0.1629  0.1653  0.1259
 1330TIP3    H125481   0.748   1.098  12.849 -1.7517  1.0156  0.9943
 1330TIP3    H225482   0.777   1.234  12.909  1.4444  0.9792 -0.2897
 1331TIP3   OH225483   4.739   0.454  12.582  0.1239  0.1508 -0.3976
 1331TIP3    H125484   4.827   0.476  12.611 -0.0570  0.1367  0.1625
 1331TIP3    H225485   4.693   0.538  12.576 -0.8291 -0.0263  2.5735
 1332TIP3   OH225486   0.346   4.175  14.635 -0.6843 -0.4539 -0.1600
 1332TIP3    H125487   0.439   4.178  14.658 -0.7008 -0.5474 -0.0806
 1332TIP3    H225488   0.325   4.265  14.609 -0.1912 -0.7484 -1.6821
 1333TIP3   OH225489   4.862   2.679   0.654 -0.1657 -0.1068  0.1182
 1333TIP3    H125490   4.883   2.733   0.577  0.3977  0.2433  0.5159
 1333TIP3    H225491   4.794   2.729   0.700 -0.9527 -0.6103 -0.4667
 1334TIP3   OH225492   4.058   6.792  13.313 -0.1493  0.1620  0.1779
 1334TIP3    H125493   4.149   6.820  13.321 -0.4229  1.3547 -0.6185
 1334TIP3    H225494   4.061   6.717  13.254  0.3940 -0.3458  0.8317
 1335TIP3   OH225495   1.098   1.564  14.316  0.4577  0.2791 -0.7183
 1335TIP3    H125496   1.147   1.488  14.283  2.8987  2.6899 -3.2441
 1335TIP3    H225497   1.012   1.557  14.274  0.8181 -0.8050 -1.3299
 1336TIP3   OH225498   4.296   5.734   0.628  0.3948 -0.5216  0.5680
 1336TIP3    H125499   4.271   5.806   0.685 -0.0463 -0.8984  0.8489
 1336TIP3    H225500   4.229   5.732   0.559 -1.0191 -2.2007  1.9004
 1337TIP3   OH225501   5.658   6.432  14.669 -0.2684  1.0323  0.0906
 1337TIP3    H125502   5.704   6.505  14.628 -0.3867  1.3929  0.6028
 1337TIP3    H225503   5.666   6.361  14.605  0.8659  1.1268  0.0942
 1338TIP3   OH225504   4.778   5.009   3.602 -0.2925  0.0131 -0.2111
 1338TIP3    H125505   4.870   5.000   3.577  0.0469  0.3271  0.8789
 1338TIP3    H225506   4.746   4.920   3.610  0.4569 -0.1393  1.3021
 1339TIP3   OH225507   6.409   3.262   2.183 -0.0585 -0.2748 -0.9230
 1339TIP3    H125508   6.358   3.315   2.122 -0.2046 -0.8532 -1.3102
 1339TIP3    H225509   6.452   3.197   2.128 -0.0900 -0.7196 -0.4255
 1340TIP3   OH225510   3.388   1.176   1.898  0.0053 -0.2702 -0.3408
 1340TIP3    H125511   3.369   1.201   1.989 -2.3368 -1.1631 -0.5088
 1340TIP3    H225512   3.445   1.100   1.905  0.9570  0.4859  0.3298
 1341TIP3   OH225513   6.731   2.425  17.139  0.3344  0.2942 -0.0644
 1341TIP3    H125514   6.827   2.416  17.135  0.2041 -0.7298 -1.8526
 1341TIP3    H225515   6.699   2.346  17.096 -1.3553  0.1996  1.2844
 1342TIP3   OH225516   2.885   1.342  16.860 -0.3607 -0.3974 -0.5018
 1342TIP3    H125517   2.792   1.338  16.884 -1.0441  0.5628 -2.6901
 1342TIP3    H225518   2.907   1.253  16.834 -1.1944 -0.3069 -1.5961
 1343TIP3   OH225519   0.036   3.918  15.515  0.3547  0.1478 -0.1682
 1343TIP3    H125520   0.074   3.847  15.567  0.4448 -0.3061 -0.8438
 1343TIP3    H225521  -0.055   3.892  15.502  0.8338 -0.8166 -2.0086
 1344TIP3   OH225522   4.086   5.213  14.842  0.3609 -0.5435 -0.1297
 1344TIP3    H125523   4.018   5.147  14.831 -0.0807 -0.0445 -0.4418
 1344TIP3    H225524   4.051   5.291  14.799  0.1834  0.3820  1.6009
 1345TIP3   OH225525   4.997   3.296   3.282  0.2480  0.2448  0.0079
 1345TIP3    H125526   5.041   3.216   3.253  0.1361  0.2790 -0.2605
 1345TIP3    H225527   4.977   3.280   3.374  0.4620  0.0697  0.0264
 1346TIP3   OH225528   2.155   1.317   0.635  0.3179 -0.4956 -0.0204
 1346TIP3    H125529   2.115   1.230   0.631 -0.1119 -0.2964 -0.1194
 1346TIP3    H225530   2.243   1.304   0.601  0.1549 -0.8375 -0.3247
 1347TIP3   OH225531   3.529   1.199  15.207  0.0426  0.0703 -0.0881
 1347TIP3    H125532   3.538   1.276  15.151 -1.6657  0.7161  0.4467
 1347TIP3    H225533   3.512   1.127  15.147  1.9142  0.0175 -0.6135
 1348TIP3   OH225534   0.183   1.001   6.058  0.3785  0.1432 -0.3929
 1348TIP3    H125535   0.261   1.056   6.066  0.1570  0.8261 -2.4008
 1348TIP3    H225536   0.210   0.917   6.093  3.2951 -0.7741 -4.1280
 1349TIP3   OH225537   0.506   4.505   0.181  0.1268 -0.5334  0.0188
 1349TIP3    H125538   0.490   4.444   0.110  0.4425 -1.8581  1.0524
 1349TIP3    H225539   0.440   4.483   0.247  0.3387  0.1389  0.4671
 1350TIP3   OH225540   5.201   1.565   4.228 -0.8318 -0.5101 -0.2011
 1350TIP3    H125541   5.281   1.590   4.275  0.5751 -3.0758 -1.0397
 1350TIP3    H225542   5.204   1.616   4.147 -1.0812  0.7879  0.5629
 1351TIP3   OH225543   3.234   5.391  13.173  0.0336  0.7486 -0.7481
 1351TIP3    H125544   3.282   5.409  13.254  1.5856  1.1205 -1.6962
 1351TIP3    H225545   3.211   5.299  13.178  0.8209  0.5705 -0.2368
 1352TIP3   OH225546   5.974   6.637   0.533 -0.0977  0.0055 -0.1350
 1352TIP3    H125547   5.894   6.597   0.499  0.0296  0.7647 -1.3821
 1352TIP3    H225548   5.944   6.716   0.578 -0.3150 -1.2508  2.0281
 1353TIP3   OH225549   1.442   1.317  11.647  0.6423  0.0654 -0.2542
 1353TIP3    H125550   1.404   1.307  11.560  0.8825  1.6713 -0.5763
 1353TIP3    H225551   1.536   1.300  11.634  0.6655  0.2232 -0.2959
 1354TIP3   OH225552   5.661   5.040   0.008  0.2597  0.2989 -0.8762
 1354TIP3    H125553   5.609   5.120   0.005 -1.2707 -0.6553 -1.8578
 1354TIP3    H225554   5.672   5.021   0.101 -1.2096  0.5425 -0.6251
 1355TIP3   OH225555   4.443   5.430  12.184  0.4203  0.1008 -0.4569
 1355TIP3    H125556   4.441   5.338  12.159 -1.5173  0.6777 -2.6893
 1355TIP3    H225557   4.457   5.477  12.102 -2.6324  1.9395 -0.0791
 1356TIP3   OH225558   5.810   0.849  13.144  0.1070  0.1087 -0.1212
 1356TIP3    H125559   5.852   0.825  13.226 -0.2448  1.8960  0.6177
 1356TIP3    H225560   5.730   0.895  13.170 -1.0699 -1.0633 -1.4823
 1357TIP3   OH225561   4.235   0.561  11.444  0.1551 -0.6879  0.4263
 1357TIP3    H125562   4.149   0.521  11.462  0.4478 -0.7235  1.8890
 1357TIP3    H225563   4.246   0.625  11.514  0.4468  0.7877 -0.9127
 1358TIP3   OH225564   5.181   0.977  11.917 -0.2686 -0.3907 -0.3008
 1358TIP3    H125565   5.087   0.978  11.936  0.2195 -1.7845  2.6740
 1358TIP3    H225566   5.202   0.885  11.901  0.3863  0.0884 -2.7284
 1359TIP3   OH225567   4.737   0.201  16.455  0.2862  0.2171 -0.1091
 1359TIP3    H125568   4.649   0.193  16.494 -0.1151  0.2273 -0.9828
 1359TIP3    H225569   4.722   0.248  16.373  1.3813  1.9284  0.6352
 1360TIP3   OH225570   5.616   5.872  13.039 -0.2485 -1.3089 -0.0426
 1360TIP3    H125571   5.524   5.851  13.024 -0.4648  0.2077 -1.0686
 1360TIP3    H225572   5.649   5.900  12.954  0.2718  1.3025  0.9212
 1361TIP3   OH225573   2.656   6.009   2.572  0.6983  0.0993  0.2746
 1361TIP3    H125574   2.640   5.932   2.627  2.8439 -0.2774  0.4796
 1361TIP3    H225575   2.572   6.028   2.532 -0.4270 -0.9424  2.0113
 1362TIP3   OH225576   6.367   6.533  12.082  0.5774  0.0967  0.0360
 1362TIP3    H125577   6.404   6.468  12.142  2.2745  0.9826 -0.0038
 1362TIP3    H225578   6.387   6.617  12.123  0.3191  0.6700 -0.9866
 1363TIP3   OH225579   0.562   6.097  15.627  0.1536 -0.2557  0.0821
 1363TIP3    H125580   0.519   6.076  15.544 -0.1520 -1.1030  0.4453
 1363TIP3    H225581   0.641   6.042  15.627 -0.1249 -0.6657  0.5848
 1364TIP3   OH225582   3.946   6.118  17.067 -0.1453  0.0574 -0.3990
 1364TIP3    H125583   4.034   6.090  17.090 -0.2319 -0.2462 -0.4363
 1364TIP3    H225584   3.888   6.059  17.116 -0.3319  0.7494  0.2426
 1365TIP3   OH225585   3.693   6.596  11.810 -0.1484  0.2149  0.1943
 1365TIP3    H125586   3.697   6.534  11.738 -0.9242 -0.4602  0.7046
 1365TIP3    H225587   3.599   6.600  11.832 -0.0179  1.0154  0.6409
 1366TIP3   OH225588   4.852   5.728   4.742  0.1332  0.8432 -0.5546
 1366TIP3    H125589   4.803   5.797   4.698 -1.0715  0.5439  0.2508
 1366TIP3    H225590   4.935   5.723   4.695 -1.0198  0.6327 -2.6781
 1367TIP3   OH225591   5.360   1.366  11.792 -0.1368 -0.0716  0.1080
 1367TIP3    H125592   5.408   1.354  11.710 -0.3136 -0.7619  0.0957
 1367TIP3    H225593   5.422   1.409  11.851 -0.1477  0.8155 -0.5209
 1368TIP3   OH225594   4.170   2.873  14.429  0.2095 -0.5369  0.5484
 1368TIP3    H125595   4.248   2.849  14.479 -1.9405 -1.7562  3.6746
 1368TIP3    H225596   4.129   2.789  14.406 -1.9694 -0.0164  2.2171
 1369TIP3   OH225597   5.830   1.382   1.214 -0.0510  0.3508  0.2994
 1369TIP3    H125598   5.744   1.391   1.174  0.2538  0.6686 -0.3102
 1369TIP3    H225599   5.867   1.303   1.173 -1.1127 -1.4532  2.6064
 1370TIP3   OH225600   2.328   2.059  13.668 -0.2999  0.0004 -0.3001
 1370TIP3    H125601   2.413   2.016  13.673  0.3448  1.3277  0.7300
 1370TIP3    H225602   2.267   1.989  13.645  1.3641 -0.6007 -3.4324
 1371TIP3   OH225603   4.757   0.604   2.722  0.1307  0.8075 -0.3996
 1371TIP3    H125604   4.720   0.588   2.635  1.4945  0.9156 -1.0108
 1371TIP3    H225605   4.846   0.634   2.706  0.8351 -0.3506  1.0676
 1372TIP3   OH225606   1.234   1.900  12.869 -0.0402 -0.2373 -0.4421
 1372TIP3    H125607   1.139   1.914  12.879  0.0365 -1.0073  2.2137
 1372TIP3    H225608   1.273   1.973  12.918  0.5971 -1.9946  1.8244
 1373TIP3   OH225609   3.661   2.131   5.642 -0.6358  0.2241 -0.0242
 1373TIP3    H125610   3.606   2.136   5.564  1.2528  0.0163 -1.4160
 1373TIP3    H225611   3.640   2.211   5.691  0.2718  1.9282 -2.2508
 1374TIP3   OH225612   5.777   4.043   2.546 -0.1241 -0.3727  0.1640
 1374TIP3    H125613   5.694   4.041   2.499 -0.6281  0.7312  0.9639
 1374TIP3    H225614   5.807   3.952   2.546  0.3944 -0.3445 -3.0919
 1375TIP3   OH225615   5.344   0.779  15.563 -0.6112  0.0124  0.5453
 1375TIP3    H125616   5.391   0.702  15.531 -1.0223  0.0829 -0.2722
 1375TIP3    H225617   5.268   0.785  15.505  0.4632  2.2011 -0.7391
 1376TIP3   OH225618   0.671   6.545  16.186 -0.2770  0.9080  0.8044
 1376TIP3    H125619   0.766   6.541  16.196 -0.0503  3.5734  0.3275
 1376TIP3    H225620   0.657   6.531  16.093 -0.3633  0.4777  0.8807
 1377TIP3   OH225621   0.609   1.572  15.553  0.2937 -0.8700  0.4765
 1377TIP3    H125622   0.691   1.545  15.595  0.5341  1.9548  2.0563
 1377TIP3    H225623   0.628   1.567  15.459  2.5538  0.3062  0.7944
 1378TIP3   OH225624   1.860   4.152   1.144  0.3885 -0.0970 -0.3773
 1378TIP3    H125625   1.815   4.127   1.224  0.7910 -0.4287 -0.2458
 1378TIP3    H225626   1.915   4.226   1.169 -0.7392  0.9018 -0.7471
 1379TIP3   OH225627   1.012   5.176  16.397  0.4742  0.0088 -0.1493
 1379TIP3    H125628   1.086   5.225  16.432  0.0095  0.6603 -0.0568
 1379TIP3    H225629   0.993   5.109  16.464  0.1733  0.6584  0.4296
 1380TIP3   OH225630   4.900   5.713   1.672 -0.2448  0.0042  0.2597
 1380TIP3    H125631   4.884   5.787   1.614  0.8434 -1.5169 -2.1537
 1380TIP3    H225632   4.985   5.732   1.713  0.1137  0.0509 -0.4866
 1381TIP3   OH225633   3.355   1.382  10.966 -0.7734  0.1522 -0.0375
 1381TIP3    H125634   3.411   1.386  10.888  0.8054 -1.5562  0.9066
 1381TIP3    H225635   3.266   1.395  10.933 -0.1132 -0.1580 -2.0741
 1382TIP3   OH225636   1.110   2.552   1.947  0.4094 -0.6833  0.2492
 1382TIP3    H125637   1.135   2.641   1.973 -0.5020  0.6321 -2.8779
 1382TIP3    H225638   1.024   2.539   1.988  1.3959 -0.9856  2.3310
 1383TIP3   OH225639   5.391   5.885  14.491  0.2163 -0.3544  0.4910
 1383TIP3    H125640   5.486   5.897  14.485  0.1830  0.7606  1.6403
 1383TIP3    H225641   5.380   5.791  14.509  1.2378 -0.2109  2.0990
 1384TIP3   OH225642   3.323   5.718   3.948  0.1274 -0.8188  0.4538
 1384TIP3    H125643   3.407   5.764   3.952 -0.2596  0.0741 -0.9908
 1384TIP3    H225644   3.282   5.750   3.868  0.0936 -4.2468 -1.0214
 1385TIP3   OH225645   4.230   1.665  10.710 -0.6124  0.3760 -0.0482
 1385TIP3    H125646   4.184   1.612  10.775  1.4737 -1.4820  0.0510
 1385TIP3    H225647   4.240   1.607  10.635 -1.1377  1.7860 -1.2558
 1386TIP3   OH225648   2.628   2.310   4.067  0.1181  0.3577  0.1307
 1386TIP3    H125649   2.589   2.275   4.147  1.1074 -0.0668  0.4496
 1386TIP3    H225650   2.563   2.294   3.999  0.0567 -1.0606  0.4950
 1387TIP3   OH225651   5.907   2.882   1.031  0.2314 -0.0139  0.3596
 1387TIP3    H125652   5.849   2.925   0.969 -1.7054 -2.0796  0.6181
 1387TIP3    H225653   5.931   2.950   1.094 -0.0726  1.4105 -1.0149
 1388TIP3   OH225654   6.763   0.687   4.122  0.3128  0.2039  0.2398
 1388TIP3    H125655   6.718   0.653   4.199  0.5386  0.2316  0.3869
 1388TIP3    H225656   6.838   0.628   4.111  0.8588  0.8040  0.6525
 1389TIP3   OH225657   5.990   5.571  10.328 -0.3375  0.0733  0.1476
 1389TIP3    H125658   5.989   5.643  10.265 -1.0132 -0.8103 -0.8980
 1389TIP3    H225659   5.899   5.544  10.335  0.0966 -1.9994 -1.1087
 1390TIP3   OH225660   2.822   4.407  15.604  0.5994  0.6205 -0.4368
 1390TIP3    H125661   2.759   4.428  15.534  0.2118 -1.4167 -0.7663
 1390TIP3    H225662   2.851   4.318  15.584  1.4003  0.4416  1.3401
 1391TIP3   OH225663   5.802   4.665   4.158  0.1668  0.0445  0.1668
 1391TIP3    H125664   5.839   4.722   4.091  1.3615 -0.6020  0.2352
 1391TIP3    H225665   5.872   4.656   4.223 -0.5209 -0.3251  0.8767
 1392TIP3   OH225666   4.760   2.947   3.480 -0.1485 -0.7599 -0.3948
 1392TIP3    H125667   4.743   2.875   3.419 -0.9909  0.6856 -1.9383
 1392TIP3    H225668   4.852   2.970   3.466 -0.3398 -0.4364 -1.1373
 1393TIP3   OH225669   1.534   5.823   3.300  0.0077  0.2540  0.0378
 1393TIP3    H125670   1.484   5.867   3.369  1.6208  0.1953  1.2815
 1393TIP3    H225671   1.474   5.757   3.266 -1.9167  2.2659 -0.7721
 1394TIP3   OH225672   0.346   4.818   1.485 -0.2567  0.5291  0.0640
 1394TIP3    H125673   0.420   4.868   1.518  0.2437 -1.2717  1.8749
 1394TIP3    H225674   0.385   4.757   1.422 -0.3368  0.2097  0.3218
 1395TIP3   OH225675   5.117   0.723  16.645 -0.2047  0.2207 -0.8760
 1395TIP3    H125676   5.106   0.762  16.732 -0.5806 -2.6384  0.4570
 1395TIP3    H225677   5.028   0.708  16.614 -0.0707  1.1182 -1.7795
 1396TIP3   OH225678   1.710   5.251  12.642 -0.6533  0.0571 -0.1777
 1396TIP3    H125679   1.709   5.323  12.705  0.1330  0.6447 -0.8030
 1396TIP3    H225680   1.745   5.176  12.690  3.0821  1.3055 -0.6649
 1397TIP3   OH225681   4.313   1.459  15.803  0.6627  0.1252  0.3467
 1397TIP3    H125682   4.262   1.387  15.766 -2.0723  1.3045  1.4695
 1397TIP3    H225683   4.402   1.426  15.808 -0.5127 -3.3366  1.1732
 1398TIP3   OH225684   1.302   5.971  11.880 -0.0984 -0.2352  0.5750
 1398TIP3    H125685   1.207   5.971  11.872 -0.0867  0.5724  0.3950
 1398TIP3    H225686   1.334   5.986  11.791  0.1742  0.3805  0.7679
 1399TIP3   OH225687   1.474   4.546   6.411  0.2382  0.1171 -0.0661
 1399TIP3    H125688   1.534   4.621   6.415 -0.9137  1.0757 -0.4268
 1399TIP3    H225689   1.393   4.577   6.450  0.2249 -1.4657  1.2933
 1400TIP3   OH225690   6.000   1.769  14.279  0.0763  0.1882 -0.4122
 1400TIP3    H125691   6.073   1.767  14.218  1.3095  1.7599  0.8896
 1400TIP3    H225692   5.929   1.723  14.235  1.8339 -1.3841 -1.7391
 1401TIP3   OH225693   5.672   0.767   5.560 -0.0094 -0.4862 -0.2109
 1401TIP3    H125694   5.592   0.734   5.602  0.1611 -0.4541  0.1401
 1401TIP3    H225695   5.724   0.688   5.542 -0.8651 -0.6997 -2.0377
 1402TIP3   OH225696   1.907   0.742  11.785  0.0802 -0.2896  0.0669
 1402TIP3    H125697   1.888   0.836  11.781 -1.1036 -0.4964  0.4937
 1402TIP3    H225698   1.824   0.700  11.765  0.6124 -1.2577 -0.1626
 1403TIP3   OH225699   3.497   2.798   3.410  0.2496 -0.0600  0.2361
 1403TIP3    H125700   3.577   2.750   3.433  0.3429 -0.1540 -0.2615
 1403TIP3    H225701   3.513   2.829   3.320 -0.3607 -0.2689  0.0498
 1404TIP3   OH225702   1.343   1.585  13.524 -1.0791  0.3975 -1.0284
 1404TIP3    H125703   1.407   1.520  13.554 -0.2349  0.2834 -2.9669
 1404TIP3    H225704   1.270   1.533  13.489 -1.5563  0.5329 -0.2717
 1405TIP3   OH225705   1.292   5.762   2.657  0.2781  0.4171  0.5236
 1405TIP3    H125706   1.325   5.845   2.691  1.9148  1.2821 -2.8049
 1405TIP3    H225707   1.213   5.786   2.609  1.0736  0.2137 -0.9376
 1406TIP3   OH225708   6.340   4.765   0.460  0.0484 -0.1055  0.4721
 1406TIP3    H125709   6.425   4.730   0.489  1.1204  1.7277 -0.2641
 1406TIP3    H225710   6.311   4.820   0.533  0.3083  0.5580  0.0833
 1407TIP3   OH225711   0.024   5.178  11.476  0.0333 -0.3197 -0.4086
 1407TIP3    H125712   0.015   5.084  11.460 -1.7002 -0.0326 -1.3077
 1407TIP3    H225713  -0.003   5.189  11.567 -0.0237 -0.6475 -0.3833
 1408TIP3   OH225714   0.135   2.939   2.318 -0.1131 -0.5179  0.2037
 1408TIP3    H125715   0.163   3.013   2.372  1.4495  0.8667 -2.3347
 1408TIP3    H225716   0.042   2.927   2.341 -0.1286  1.5096  1.4604
 1409TIP3   OH225717   5.407   6.486  13.291 -0.2412  0.7111 -0.2244
 1409TIP3    H125718   5.425   6.392  13.299 -0.7351  0.7640  1.9021
 1409TIP3    H225719   5.328   6.491  13.236 -0.7201 -0.1641  0.3734
 1410TIP3   OH225720   2.753   0.796  12.493 -0.6124  0.2798 -0.0099
 1410TIP3    H125721   2.829   0.836  12.536  0.9429 -0.7230 -1.6762
 1410TIP3    H225722   2.706   0.870  12.454  0.4570  0.7901 -0.3643
 1411TIP3   OH225723   2.164   4.550  14.941  0.1720 -0.2498  0.2291
 1411TIP3    H125724   2.121   4.503  14.870 -1.7223  0.1832  1.0349
 1411TIP3    H225725   2.173   4.486  15.011  0.4398 -0.2209  0.2235
 1412TIP3   OH225726   1.907   1.542  11.740  0.1488 -0.2470 -0.2947
 1412TIP3    H125727   1.944   1.629  11.757  1.0471 -0.7688  0.4391
 1412TIP3    H225728   1.813   1.553  11.759  0.2033  0.6186 -0.4466
 1413TIP3   OH225729   3.758   5.015  12.278 -0.2477  0.4515  0.0192
 1413TIP3    H125730   3.778   5.041  12.188 -0.7834  1.8710  0.2798
 1413TIP3    H225731   3.665   5.035  12.288 -0.1240  0.5832  0.9793
 1414TIP3   OH225732   2.374   3.037   5.995 -0.7202  0.0254 -0.0532
 1414TIP3    H125733   2.397   3.116   5.945 -0.4587  0.0047  0.0354
 1414TIP3    H225734   2.446   3.026   6.057 -0.4874 -0.6000 -0.4371
 1415TIP3   OH225735   4.518   5.782  12.573 -0.2192 -0.5447  1.0066
 1415TIP3    H125736   4.535   5.703  12.522 -0.1547  0.3533 -0.4004
 1415TIP3    H225737   4.423   5.784  12.584 -0.3667 -0.0480 -0.2564
 1416TIP3   OH225738   5.412   0.802  15.875  0.0508  0.3305 -0.2354
 1416TIP3    H125739   5.467   0.861  15.823  0.9757 -1.2275 -1.1341
 1416TIP3    H225740   5.470   0.770  15.944  0.3569 -1.3545 -1.2075
 1417TIP3   OH225741   2.769   2.084  13.300 -0.1086  0.2675 -0.3957
 1417TIP3    H125742   2.696   2.111  13.355  0.0760 -1.4063  0.7517
 1417TIP3    H225743   2.801   2.003  13.340  0.5950 -0.5667 -2.4786
 1418TIP3   OH225744   5.508   0.909   2.158 -0.2755 -0.4846  0.8285
 1418TIP3    H125745   5.526   0.850   2.231 -1.5784  0.1684  1.7376
 1418TIP3    H225746   5.549   0.868   2.082  0.8185 -1.3684  1.8587
 1419TIP3   OH225747   1.067   5.720  13.916 -0.3231  0.3805  0.4124
 1419TIP3    H125748   1.033   5.683  13.835  1.9594 -0.5880 -0.1993
 1419TIP3    H225749   0.998   5.706  13.981 -0.5620 -2.7730 -0.3770
 1420TIP3   OH225750   4.278   0.730   6.295 -0.1578 -0.0966 -0.1665
 1420TIP3    H125751   4.208   0.764   6.239 -0.7468 -1.0563 -0.0299
 1420TIP3    H225752   4.235   0.664   6.350  1.1499 -1.8444 -1.1669
 1421TIP3   OH225753   2.896   1.531  15.186 -0.1918  0.1602  0.1403
 1421TIP3    H125754   2.971   1.476  15.164  0.2365  0.7238  0.1689
 1421TIP3    H225755   2.826   1.469  15.206  0.2166 -0.3713 -0.0501
 1422TIP3   OH225756   4.122   1.912  16.147 -0.1500 -0.2249  0.2992
 1422TIP3    H125757   4.062   1.945  16.213  0.3878 -0.8117  1.0914
 1422TIP3    H225758   4.100   1.962  16.068 -2.6700 -1.4309  0.1362
 1423TIP3   OH225759   6.126   1.361  11.429  0.7129 -0.0523  0.2490
 1423TIP3    H125760   6.085   1.440  11.395  0.4386  0.0273  0.7641
 1423TIP3    H225761   6.169   1.322  11.352  0.4351  0.3313 -0.1068
 1424TIP3   OH225762   1.956   1.132  14.672 -0.3036  0.2381  0.0427
 1424TIP3    H125763   1.938   1.094  14.586  1.3544 -0.2599 -0.1304
 1424TIP3    H225764   1.870   1.145  14.712 -1.0240 -1.6273 -0.7886
 1425TIP3   OH225765   1.473   2.897   0.338 -0.2985  0.2921 -0.3219
 1425TIP3    H125766   1.425   2.980   0.335  1.1810  1.1845 -0.5524
 1425TIP3    H225767   1.467   2.863   0.249 -1.6922 -0.3312 -0.0025
 1426TIP3   OH225768   5.894   2.841  15.238  0.0150 -0.2331  0.0127
 1426TIP3    H125769   5.978   2.852  15.283 -0.6610 -0.8876  1.4838
 1426TIP3    H225770   5.905   2.760  15.188  1.1457  1.0522 -1.9820
 1427TIP3   OH225771   5.144   2.834  11.961  0.5157 -0.1431  0.0579
 1427TIP3    H125772   5.236   2.812  11.953  0.5442  0.0968 -0.3065
 1427TIP3    H225773   5.129   2.842  12.055  0.8475 -0.2544  0.1216
 1428TIP3   OH225774   2.746   0.669   0.139  0.4770  0.5073  0.6591
 1428TIP3    H125775   2.701   0.609   0.198 -2.1081  1.3848 -0.2790
 1428TIP3    H225776   2.694   0.749   0.142  0.8849  0.9705 -1.9109
 1429TIP3   OH225777   3.259   2.669   4.930  0.0212 -0.1172 -0.3331
 1429TIP3    H125778   3.265   2.643   5.022  1.2690  0.5300 -0.2089
 1429TIP3    H225779   3.167   2.658   4.908 -0.1610 -1.0420  0.7644
 1430TIP3   OH225780   4.090   4.893  17.139 -0.7749 -0.1457  0.2642
 1430TIP3    H125781   4.186   4.890  17.146 -0.7625  1.2188  1.0935
 1430TIP3    H225782   4.060   4.903  17.229 -1.6157  0.7644 -0.0953
 1431TIP3   OH225783   2.734   6.071   4.660 -0.1556 -0.4406  0.5101
 1431TIP3    H125784   2.814   6.104   4.617 -0.9937  1.2244  0.1116
 1431TIP3    H225785   2.733   6.115   4.745 -0.1726 -1.1989  0.9071
 1432TIP3   OH225786   1.057   1.770   2.306 -0.2767  0.3938  0.0159
 1432TIP3    H125787   1.138   1.782   2.357 -0.8363 -0.4658  1.1518
 1432TIP3    H225788   1.088   1.756   2.216  0.8602 -0.0407  0.4479
 1433TIP3   OH225789   2.206   0.163  16.604 -0.1765  1.0781  0.4119
 1433TIP3    H125790   2.116   0.137  16.622 -0.0825  0.5695  0.1649
 1433TIP3    H225791   2.233   0.107  16.531  0.4888  0.9139  0.7730
 1434TIP3   OH225792   2.423   6.441   0.284  0.7089  0.5688 -0.2937
 1434TIP3    H125793   2.346   6.480   0.242  0.9868  2.0432  0.5050
 1434TIP3    H225794   2.478   6.411   0.211 -0.7727 -0.8905 -0.8685
 1435TIP3   OH225795   5.412   6.493  11.268  0.0455 -0.5493 -0.1851
 1435TIP3    H125796   5.475   6.447  11.212  0.9981 -0.1307  0.5133
 1435TIP3    H225797   5.327   6.480  11.225  0.5992 -1.1600 -1.1230
 1436TIP3   OH225798   1.220   5.005   1.595  0.5222  0.2997 -0.1793
 1436TIP3    H125799   1.281   4.969   1.531  2.0317 -0.1589  1.4422
 1436TIP3    H225800   1.180   4.929   1.637  1.2322  0.5324  0.9557
 1437TIP3   OH225801   2.020   4.211  13.082 -0.0806  0.1798  0.2038
 1437TIP3    H125802   2.022   4.182  13.173 -0.1778  1.4641  0.6300
 1437TIP3    H225803   2.101   4.176  13.044  0.9593  1.2864  1.3232
 1438TIP3   OH225804   5.503   0.845   0.208  0.1466  0.7225 -0.1350
 1438TIP3    H125805   5.557   0.920   0.235  0.7373 -0.3337  1.7393
 1438TIP3    H225806   5.436   0.838   0.275  0.0565 -0.3813 -0.3332
 1439TIP3   OH225807   2.029   0.395  14.114  0.2814  0.4591 -0.4706
 1439TIP3    H125808   1.937   0.398  14.088  0.2348  1.5431 -0.2308
 1439TIP3    H225809   2.049   0.302  14.122 -0.7897  0.2145 -0.5261
 1440TIP3   OH225810   5.044   2.948   0.573 -0.2666  0.5162 -0.0022
 1440TIP3    H125811   4.973   2.946   0.508 -1.2241  0.5004  1.0108
 1440TIP3    H225812   5.123   2.961   0.521 -1.0638  1.1008 -1.1228
 1441TIP3   OH225813   1.250   1.461  16.208  0.0735 -0.1338  0.1947
 1441TIP3    H125814   1.195   1.392  16.171  0.3316 -0.4420  0.3815
 1441TIP3    H225815   1.309   1.415  16.268  0.3752  0.2241  0.1727
 1442TIP3   OH225816   5.170   0.316  14.635 -0.6223 -0.0632  0.4981
 1442TIP3    H125817   5.113   0.263  14.579 -1.1348  0.5888  0.3914
 1442TIP3    H225818   5.247   0.260  14.651 -1.6730 -1.3340  1.4026
 1443TIP3   OH225819   4.383   5.384  12.635  0.0654 -0.1970  0.1516
 1443TIP3    H125820   4.378   5.289  12.624  2.3677 -0.1106 -2.8199
 1443TIP3    H225821   4.304   5.406  12.686 -1.5472 -3.4511 -0.6501
 1444TIP3   OH225822   6.802   5.353   4.415 -0.1167  0.5484 -0.4148
 1444TIP3    H125823   6.853   5.420   4.370  2.2619 -0.9803 -0.2232
 1444TIP3    H225824   6.737   5.325   4.351  0.1193  1.6824 -1.1749
 1445TIP3   OH225825   1.323   3.242   4.301  0.2608  0.4699 -0.1957
 1445TIP3    H125826   1.286   3.305   4.239  1.5626  1.7045  0.2191
 1445TIP3    H225827   1.267   3.247   4.378 -0.3982  0.1470 -0.6453
 1446TIP3   OH225828   3.578   1.866  12.619  0.6465  0.1142 -0.0802
 1446TIP3    H125829   3.612   1.906  12.539 -1.4647  0.6951 -0.7554
 1446TIP3    H225830   3.539   1.939  12.667 -1.4387 -0.7709 -0.3391
 1447TIP3   OH225831   0.057   4.484  13.655 -0.1844  0.2880  0.1475
 1447TIP3    H125832   0.010   4.494  13.572 -0.1537  0.0766  0.1058
 1447TIP3    H225833   0.142   4.524  13.640  0.1539 -0.5549 -0.2021
 1448TIP3   OH225834   5.624   4.632   6.335  0.3048 -0.2822  0.3284
 1448TIP3    H125835   5.534   4.664   6.331  0.3401 -0.2889 -0.9482
 1448TIP3    H225836   5.672   4.702   6.378  0.1293  0.8553 -1.2333
 1449TIP3   OH225837   6.568   2.108   4.331 -0.5245  0.5478  0.1944
 1449TIP3    H125838   6.600   2.120   4.420  0.0714 -0.1632  0.0918
 1449TIP3    H225839   6.645   2.126   4.276 -0.6063 -0.0331 -0.1187
 1450TIP3   OH225840   6.286   6.602   6.333  0.0109  0.2768  0.4484
 1450TIP3    H125841   6.363   6.554   6.363  0.8033  1.8210  1.0054
 1450TIP3    H225842   6.264   6.661   6.405 -1.6933 -0.0931  0.2836
 1451TIP3   OH225843   1.100   1.333   3.503  0.0202 -0.7318 -0.2337
 1451TIP3    H125844   1.071   1.416   3.541 -0.3933 -0.5666 -0.8951
 1451TIP3    H225845   1.150   1.291   3.573  0.0805 -0.0087  0.1670
 1452TIP3   OH225846   2.414   3.038   1.793  0.5681 -0.0349  0.2420
 1452TIP3    H125847   2.425   2.945   1.813  0.5202 -0.0153  0.3634
 1452TIP3    H225848   2.391   3.078   1.877  3.9401  0.6757  0.9628
 1453TIP3   OH225849   2.379   3.476  15.930 -0.1403  0.1436 -0.3917
 1453TIP3    H125850   2.319   3.483  16.004 -0.7533  2.2784 -1.0190
 1453TIP3    H225851   2.464   3.457  15.970 -0.5596  0.6895  0.8203
 1454TIP3   OH225852   0.495   6.675  13.464  0.2588 -0.8175  0.5453
 1454TIP3    H125853   0.535   6.591  13.488 -1.1446 -2.1601 -1.4649
 1454TIP3    H225854   0.414   6.679  13.515  0.0936 -0.9038  0.2880
 1455TIP3   OH225855   6.687   4.090  15.271  0.0307  0.3122 -0.0904
 1455TIP3    H125856   6.750   4.148  15.313  0.1780 -0.6529  1.0721
 1455TIP3    H225857   6.712   4.090  15.178  2.6072 -1.0737  0.5225
 1456TIP3   OH225858   2.699   2.256  16.985 -0.3823  0.0532  0.1169
 1456TIP3    H125859   2.642   2.331  16.973 -0.5886 -0.3500 -1.7597
 1456TIP3    H225860   2.642   2.180  16.974 -0.0837 -0.4056  1.4941
 1457TIP3   OH225861   0.200   3.296  13.867  0.4406 -0.2800 -0.2512
 1457TIP3    H125862   0.211   3.223  13.927  0.9879 -0.5956 -0.7236
 1457TIP3    H225863   0.258   3.364  13.899  0.6942 -0.4295 -0.3925
 1458TIP3   OH225864   6.189   0.291  14.474  0.5641 -0.2700 -0.1691
 1458TIP3    H125865   6.096   0.308  14.486  0.9845  2.0231  0.3775
 1458TIP3    H225866   6.213   0.346  14.399  1.5396 -0.5503 -0.0762
 1459TIP3   OH225867   6.797   4.574   2.357  0.1976 -0.5048  0.3676
 1459TIP3    H125868   6.715   4.600   2.397 -0.6078 -0.7450 -1.0672
 1459TIP3    H225869   6.856   4.559   2.431 -0.5978  1.0595  1.3707
 1460TIP3   OH225870   4.227   1.114   3.347 -0.1262 -0.2354 -0.0646
 1460TIP3    H125871   4.309   1.149   3.381  0.0994 -0.8443  0.0383
 1460TIP3    H225872   4.243   1.019   3.340 -0.5155 -0.2493 -0.8893
 1461TIP3   OH225873   3.821   2.376   1.774 -0.1239 -0.4707 -0.1736
 1461TIP3    H125874   3.735   2.408   1.800  0.2176  0.6002 -0.3409
 1461TIP3    H225875   3.840   2.305   1.836 -0.3733  0.4273  0.9498
 1462TIP3   OH225876   6.635   1.094   5.637  0.1652  0.8981 -0.2714
 1462TIP3    H125877   6.559   1.046   5.669  0.5488  0.3541 -0.1705
 1462TIP3    H225878   6.707   1.032   5.642  0.3733  1.0004 -1.5595
 1463TIP3   OH225879   3.330   3.050  15.632  0.2528 -0.3809  0.6231
 1463TIP3    H125880   3.383   3.115  15.678 -1.6010  1.3463  0.4568
 1463TIP3    H225881   3.392   3.002  15.578  1.9350  0.0446  2.0967
 1464TIP3   OH225882   0.440   2.231   1.873  0.2874 -0.5395 -0.2225
 1464TIP3    H125883   0.514   2.237   1.933  0.7191 -0.0350 -0.8001
 1464TIP3    H225884   0.477   2.247   1.786 -0.6352  0.7159 -0.4186
 1465TIP3   OH225885   6.725   2.311   5.171  0.5307 -0.6750 -0.0912
 1465TIP3    H125886   6.750   2.368   5.099  1.9531 -0.3018  0.6738
 1465TIP3    H225887   6.725   2.223   5.134 -1.9306 -0.2485 -1.3484
 1466TIP3   OH225888   2.308   3.713  15.170  0.3794  0.1184 -0.6895
 1466TIP3    H125889   2.235   3.775  15.166 -0.6369 -0.8382  1.2113
 1466TIP3    H225890   2.384   3.766  15.193 -0.7484  0.6152  2.3970
 1467TIP3   OH225891   4.386   0.861   0.068 -0.4376  0.0383  0.0699
 1467TIP3    H125892   4.344   0.946   0.080 -0.8817 -0.1647 -0.0498
 1467TIP3    H225893   4.445   0.873  -0.006 -1.5984 -0.1608 -0.9176
 1468TIP3   OH225894   5.697   2.552   4.364 -0.5799 -0.3174  0.2392
 1468TIP3    H125895   5.750   2.531   4.287 -0.4815  0.5402  0.0580
 1468TIP3    H225896   5.608   2.533   4.338 -0.3581 -2.1687  0.6842
 1469TIP3   OH225897   5.307   2.315  15.124  0.2448 -0.6163 -0.3631
 1469TIP3    H125898   5.246   2.262  15.174  0.5722 -0.3828  0.3017
 1469TIP3    H225899   5.260   2.337  15.043 -0.4005 -0.7623 -0.0330
 1470TIP3   OH225900   6.790   1.062  12.833 -0.0824  0.2792 -0.0630
 1470TIP3    H125901   6.744   1.142  12.857 -0.1979 -0.2625  1.6365
 1470TIP3    H225902   6.721   0.996  12.826  0.2224 -0.1203  0.6250
 1471TIP3   OH225903   4.537   3.639   1.884 -0.5993  0.7018  0.0255
 1471TIP3    H125904   4.623   3.649   1.924 -0.0654 -1.3415 -0.4900
 1471TIP3    H225905   4.481   3.606   1.954 -0.6503  0.8239  0.0428
 1472TIP3   OH225906   0.756   4.198   4.951 -0.3465  0.0872  0.5653
 1472TIP3    H125907   0.689   4.141   4.915 -1.4066  1.6942 -0.1221
 1472TIP3    H225908   0.727   4.215   5.041 -0.3933  0.0851  0.5504
 1473TIP3   OH225909   5.640   1.019  16.649 -0.2621 -0.0187  0.6466
 1473TIP3    H125910   5.690   0.938  16.644  0.0782  0.2443 -0.6813
 1473TIP3    H225911   5.698   1.079  16.697  0.1902 -0.0806  0.1865
 1474TIP3   OH225912   3.413   4.966   2.850 -0.1649 -0.1212 -0.4665
 1474TIP3    H125913   3.346   5.035   2.851  0.2801  0.3773  2.4737
 1474TIP3    H225914   3.495   5.013   2.838  0.5098  0.5147  4.4415
 1475TIP3   OH225915   5.745   2.837   4.340  0.3650  0.3519  0.2915
 1475TIP3    H125916   5.694   2.759   4.362  0.5740 -0.0539 -0.6156
 1475TIP3    H225917   5.826   2.827   4.389 -0.4436  1.0617  1.8419
 1476TIP3   OH225918   0.660   0.004  13.920 -0.5675  0.0833 -0.2764
 1476TIP3    H125919   0.718  -0.054  13.869  0.2593 -0.3078  1.0558
 1476TIP3    H225920   0.641  -0.045  13.999 -0.0023  1.5423  0.8050
 1477TIP3   OH225921   3.639   4.614   4.788 -0.4685  0.3981  0.0221
 1477TIP3    H125922   3.620   4.706   4.768  0.8329  0.7523  0.2910
 1477TIP3    H225923   3.597   4.599   4.873 -1.3063  0.5210 -0.3643
 1478TIP3   OH225924   0.602   5.503  12.970 -0.5144  0.1242  0.2686
 1478TIP3    H125925   0.614   5.444  13.045 -0.1043  2.7020  2.4108
 1478TIP3    H225926   0.532   5.463  12.918  0.8267 -2.9962  0.6652
 1479TIP3   OH225927   0.521   4.409  14.168 -0.2411  0.1171  0.5684
 1479TIP3    H125928   0.589   4.469  14.200 -0.4829  0.7727 -0.1215
 1479TIP3    H225929   0.465   4.395  14.244 -1.4483  2.5422  0.2344
 1480TIP3   OH225930   2.880   2.801  11.390 -0.4045  0.1927  0.2142
 1480TIP3    H125931   2.831   2.877  11.420 -0.3663 -0.3363  1.6950
 1480TIP3    H225932   2.915   2.761  11.470  1.0754 -0.3685 -0.6632
 1481TIP3   OH225933   4.821   6.173  12.811 -0.3468  0.4617  0.2420
 1481TIP3    H125934   4.810   6.258  12.768 -0.6806  0.4927  0.3834
 1481TIP3    H225935   4.749   6.169  12.874 -0.3870  0.0388  0.1731
 1482TIP3   OH225936   3.702   0.389  16.750  0.2443  0.3167 -0.4863
 1482TIP3    H125937   3.758   0.409  16.825  0.5110  0.4965 -0.7299
 1482TIP3    H225938   3.756   0.331  16.696  0.1213  0.3319 -0.6258
 1483TIP3   OH225939   6.540   1.387  13.675  0.0373 -0.1643 -0.4453
 1483TIP3    H125940   6.521   1.310  13.621  2.1955 -0.8113 -0.3770
 1483TIP3    H225941   6.559   1.351  13.762  3.0317  0.1346 -0.8678
 1484TIP3   OH225942   1.798   6.543   4.563 -0.3271 -0.1102  0.8558
 1484TIP3    H125943   1.752   6.480   4.617 -1.5551 -0.4052 -0.4564
 1484TIP3    H225944   1.768   6.525   4.474  1.2333  0.6687  0.1203
 1485TIP3   OH225945   3.066   2.564   2.440 -0.2678 -0.0987 -0.2418
 1485TIP3    H125946   3.040   2.517   2.360 -1.1319 -1.0820  0.5912
 1485TIP3    H225947   3.144   2.517   2.470 -0.8676 -0.7286  0.3455
 1486TIP3   OH225948   6.621   5.629  16.131 -0.8592  0.2804  0.0589
 1486TIP3    H125949   6.695   5.624  16.072 -1.2363 -1.1348 -0.3347
 1486TIP3    H225950   6.660   5.638  16.218 -0.3079  2.8571 -0.3854
 1487TIP3   OH225951   2.096   5.598   6.657  0.2627 -0.4947  0.6808
 1487TIP3    H125952   2.043   5.535   6.609  1.4300 -1.5191  0.6872
 1487TIP3    H225953   2.062   5.684   6.631 -0.5864 -1.0897 -0.2255
 1488TIP3   OH225954   3.819   3.357   4.702 -0.3100  0.3810  0.3118
 1488TIP3    H125955   3.763   3.279   4.695 -1.8130  1.4744 -0.5111
 1488TIP3    H225956   3.839   3.380   4.612  0.0120  1.0167  0.5438
 1489TIP3   OH225957   4.093   2.462  15.448  0.6977  0.1217  0.0911
 1489TIP3    H125958   4.157   2.476  15.378  1.2781  1.9888  0.9263
 1489TIP3    H225959   4.094   2.367  15.463  4.5933  0.1409  1.2148
 1490TIP3   OH225960   6.181   6.237   1.198 -0.9289 -0.4646 -0.3166
 1490TIP3    H125961   6.264   6.189   1.191 -0.9399 -0.4124 -0.8720
 1490TIP3    H225962   6.121   6.189   1.141 -0.6936  0.7093 -1.6134
 1491TIP3   OH225963   4.856   2.442   0.459  0.1465  0.1080 -0.2180
 1491TIP3    H125964   4.823   2.503   0.524 -0.6315 -0.2659 -0.2418
 1491TIP3    H225965   4.947   2.467   0.445 -0.0341  0.9602  0.1095
 1492TIP3   OH225966   5.236   1.393   0.534 -0.2910 -0.4420 -0.7538
 1492TIP3    H125967   5.325   1.362   0.517 -0.5692 -1.0507 -1.1016
 1492TIP3    H225968   5.186   1.314   0.553 -0.8726 -0.1527 -1.0498
 1493TIP3   OH225969   4.686   0.375  17.184 -0.2108 -0.4339 -0.4699
 1493TIP3    H125970   4.765   0.421  17.155 -0.5934  0.5686  0.0045
 1493TIP3    H225971   4.701   0.284  17.161  1.8249 -0.5675  1.1291
 1494TIP3   OH225972   6.260   3.465   5.696  0.1553 -0.2505  0.0551
 1494TIP3    H125973   6.297   3.552   5.710  0.3439  0.2505 -2.9475
 1494TIP3    H225974   6.169   3.473   5.723  0.8034 -0.0039  2.4675
 1495TIP3   OH225975   2.396   4.818   1.780 -0.4815  0.5072 -0.1913
 1495TIP3    H125976   2.402   4.813   1.876 -1.5663  2.9756  0.0981
 1495TIP3    H225977   2.310   4.781   1.760 -1.2585  2.0837  0.0874
 1496TIP3   OH225978   5.112   5.423  16.384  0.2641  0.3461 -0.2226
 1496TIP3    H125979   5.203   5.416  16.414 -0.1444 -0.6602  0.8283
 1496TIP3    H225980   5.066   5.466  16.456 -0.5731 -1.3817  0.3295
 1497TIP3   OH225981   2.409   1.073   3.260 -0.1797 -1.0200  0.1480
 1497TIP3    H125982   2.497   1.110   3.259 -1.0534  1.2150  0.6267
 1497TIP3    H225983   2.351   1.147   3.239 -1.8346 -2.8613 -2.4151
 1498TIP3   OH225984   0.147   2.953  15.866 -0.1030 -0.3719  0.2270
 1498TIP3    H125985   0.100   3.012  15.924  0.5348 -0.0161  0.3947
 1498TIP3    H225986   0.083   2.926  15.800 -0.9767 -1.1818  1.3773
 1499TIP3   OH225987   5.902   3.277  13.004  0.2059 -0.0793  0.0467
 1499TIP3    H125988   5.819   3.313  12.973  0.2764 -0.7368 -0.9408
 1499TIP3    H225989   5.938   3.345  13.061 -0.6996  0.4787 -0.0268
 1500TIP3   OH225990   2.335   0.401  11.954  0.2379  0.2965 -0.3269
 1500TIP3    H125991   2.263   0.425  11.895 -1.3703  1.1437  1.8687
 1500TIP3    H225992   2.303   0.323  11.999  1.1067  0.1268  0.0076
 1501TIP3   OH225993   0.043   0.881  16.678 -0.1644 -0.8044 -0.5011
 1501TIP3    H125994   0.065   0.937  16.752 -0.7755 -1.7698  0.4467
 1501TIP3    H225995   0.087   0.921  16.603  0.5525  0.1382  0.3995
 1502TIP3   OH225996   1.499   5.582  11.965 -0.7312 -0.2635  0.1236
 1502TIP3    H125997   1.466   5.626  11.886  0.3882  0.9087  0.2719
 1502TIP3    H225998   1.541   5.651  12.015  0.9526 -1.4621  0.4570
 1503TIP3   OH225999   2.256   1.921   1.387  0.1500 -0.4489 -0.2676
 1503TIP3    H126000   2.222   1.856   1.326 -2.4675  0.1025  0.4797
 1503TIP3    H226001   2.195   1.918   1.461  0.2446  2.4609  0.0286
 1504TIP3   OH226002   4.659   6.080   5.630 -0.0309 -0.1675  0.3212
 1504TIP3    H126003   4.723   6.146   5.657 -0.6841  0.6879 -0.1924
 1504TIP3    H226004   4.644   6.028   5.710  1.6320 -0.6855  0.3330
 1505TIP3   OH226005   6.611   0.526   1.613  0.6204 -0.3047  0.1982
 1505TIP3    H126006   6.537   0.578   1.583 -1.0823  0.0602  4.3706
 1505TIP3    H226007   6.572   0.445   1.646  1.9630 -0.0953  2.5349
 1506TIP3   OH226008   6.757   5.739  11.642 -0.1876 -0.0183  0.5426
 1506TIP3    H126009   6.712   5.761  11.724 -2.9513 -0.5024 -0.7318
 1506TIP3    H226010   6.711   5.790  11.575  2.2829  0.7013 -0.7311
 1507TIP3   OH226011   2.377   2.656  17.219  0.4707  0.6643 -0.6299
 1507TIP3    H126012   2.424   2.738  17.231 -0.5156  1.0510  0.8154
 1507TIP3    H226013   2.353   2.655  17.127 -0.4991  2.5563 -0.4394
 1508TIP3   OH226014   4.703   1.911   0.749  0.3629  0.2553 -0.3984
 1508TIP3    H126015   4.671   1.899   0.660 -0.4147 -0.0083 -0.0889
 1508TIP3    H226016   4.744   1.998   0.748  0.9226 -0.0089 -1.1661
 1509TIP3   OH226017   3.077   2.617  15.160 -0.1792  0.5079  0.0270
 1509TIP3    H126018   3.155   2.658  15.197  0.2008  0.6523 -0.8833
 1509TIP3    H226019   3.004   2.656  15.207  0.2367  1.3436  0.0006
 1510TIP3   OH226020   3.173   5.819   3.368  0.3662  0.6111  0.5050
 1510TIP3    H126021   3.237   5.887   3.348  0.8188 -0.0344 -0.3073
 1510TIP3    H226022   3.225   5.747   3.404 -0.2170  1.0304  2.3059
 1511TIP3   OH226023   1.524   3.585   2.141  0.3221  0.0721 -0.5427
 1511TIP3    H126024   1.557   3.507   2.097 -0.8313 -0.3268 -0.7449
 1511TIP3    H226025   1.598   3.646   2.140  0.5677 -0.1891 -2.4106
 1512TIP3   OH226026   2.656   0.760  16.596 -0.0325 -0.3935 -0.1618
 1512TIP3    H126027   2.570   0.750  16.636 -0.2700 -1.7245 -0.9497
 1512TIP3    H226028   2.639   0.797  16.509  0.2794  0.2327  0.0348
 1513TIP3   OH226029   1.173   2.143   4.350  0.2077 -0.4678 -0.0526
 1513TIP3    H126030   1.150   2.231   4.379  1.7117 -0.3650  0.8973
 1513TIP3    H226031   1.088   2.102   4.331 -0.5420  1.0117 -0.0606
 1514TIP3   OH226032   6.154   2.054   5.489 -0.3668  0.2009  0.5520
 1514TIP3    H126033   6.176   2.119   5.422 -0.3508  0.3474  0.7009
 1514TIP3    H226034   6.093   2.099   5.548 -0.8737 -0.1259  0.2846
 1515TIP3   OH226035   3.547   5.682  15.073  0.2820  0.0306 -0.1366
 1515TIP3    H126036   3.535   5.590  15.097 -0.0004  0.2552  0.6171
 1515TIP3    H226037   3.468   5.725  15.105  1.0230  0.7683  0.7316
 1516TIP3   OH226038   1.620   1.463  12.690 -0.0504 -0.4523  0.7125
 1516TIP3    H126039   1.673   1.484  12.767 -0.7067 -0.0053  1.0445
 1516TIP3    H226040   1.660   1.514  12.619 -0.4349  0.4215  1.1039
 1517TIP3   OH226041   4.774   3.893  12.411  0.3432 -0.3170  0.1924
 1517TIP3    H126042   4.853   3.946  12.415 -0.3354  0.7980 -0.6379
 1517TIP3    H226043   4.769   3.850  12.497  0.8082  1.1276  0.9720
 1518TIP3   OH226044   3.570   3.319  16.446 -0.0765  0.2806  0.4019
 1518TIP3    H126045   3.582   3.225  16.460  3.9321  0.2443 -1.6684
 1518TIP3    H226046   3.619   3.360  16.517 -0.9549  0.8155  0.7152
 1519TIP3   OH226047   1.307   2.643  17.122  0.1733 -0.4905  0.0418
 1519TIP3    H126048   1.224   2.597  17.114  0.1543 -0.2800 -1.0461
 1519TIP3    H226049   1.290   2.713  17.185  0.7771 -3.2076  3.5287
 1520TIP3   OH226050   6.687   4.887   5.762  0.4933 -0.1788  0.4164
 1520TIP3    H126051   6.705   4.881   5.856  1.4780 -1.4579  0.1666
 1520TIP3    H226052   6.595   4.860   5.753  0.6979 -1.0611  0.9024
 1521TIP3   OH226053   4.453   1.066  12.313  0.1706 -0.1381 -0.4388
 1521TIP3    H126054   4.545   1.043  12.304 -0.1458 -1.1451 -1.2984
 1521TIP3    H226055   4.414   0.993  12.361  0.1631  1.2046  1.7277
 1522TIP3   OH226056   1.081   0.752  16.693 -0.0851  0.3597 -0.0420
 1522TIP3    H126057   1.134   0.677  16.720  1.2428  0.3162 -2.4259
 1522TIP3    H226058   1.022   0.768  16.766  1.2800 -1.4326  1.5538
 1523TIP3   OH226059   0.826   5.981  14.765 -0.2832 -0.5298 -0.8503
 1523TIP3    H126060   0.912   5.938  14.774 -0.1750 -0.3335 -0.9386
 1523TIP3    H226061   0.837   6.041  14.692  0.0872  0.8933  0.3265
 1524TIP3   OH226062   5.915   2.082  14.716  0.2144 -0.6793  0.0482
 1524TIP3    H126063   5.977   2.055  14.783  1.8390  0.9281 -0.7011
 1524TIP3    H226064   5.934   2.025  14.641 -0.0581 -1.0001  0.2239
 1525TIP3   OH226065   3.516   4.359  14.834  0.6044  0.3956  0.0368
 1525TIP3    H126066   3.582   4.401  14.779  2.7986 -0.4987  1.8312
 1525TIP3    H226067   3.509   4.270  14.800 -0.7781  0.8731 -1.0160
 1526TIP3   OH226068   5.723   4.434   1.879  0.8218 -0.2130  0.3471
 1526TIP3    H126069   5.694   4.515   1.921 -1.0679 -0.5266 -0.2482
 1526TIP3    H226070   5.813   4.422   1.909  1.2733  2.2723  0.1995
 1527TIP3   OH226071   3.038   5.959   0.703 -0.0235 -0.0938  0.5520
 1527TIP3    H126072   2.945   5.951   0.726 -0.0929  0.8060  0.6343
 1527TIP3    H226073   3.085   5.925   0.779 -0.2822 -1.0646  0.2887
 1528TIP3   OH226074   5.152   3.268  11.792 -0.2466  0.3562  0.4759
 1528TIP3    H126075   5.206   3.291  11.716 -0.5361  0.5514  0.3269
 1528TIP3    H226076   5.074   3.324  11.784 -1.3289 -1.2057 -0.3210
 1529TIP3   OH226077   1.072   5.122  11.467 -0.4471 -0.3737 -0.3791
 1529TIP3    H126078   1.150   5.100  11.517 -1.0777  0.4948  1.0752
 1529TIP3    H226079   1.036   5.038  11.438  0.4772 -0.8317 -0.2188
 1530TIP3   OH226080   4.289   2.869   4.385  0.0233 -0.3463 -0.0856
 1530TIP3    H126081   4.320   2.906   4.467 -0.7812 -1.5010  0.7679
 1530TIP3    H226082   4.233   2.938   4.348 -1.0500 -0.4710  1.2269
 1531TIP3   OH226083   0.461   4.912  16.810  0.0949  0.2125 -0.1183
 1531TIP3    H126084   0.408   4.991  16.798  0.1942  0.1001 -1.5269
 1531TIP3    H226085   0.398   4.841  16.816 -0.0774  0.4867  2.6888
 1532TIP3   OH226086   5.077   6.002   1.266 -0.0146 -0.5366 -0.1465
 1532TIP3    H126087   5.073   6.085   1.219  0.8772  0.0926  0.8396
 1532TIP3    H226088   5.133   6.020   1.342 -1.7613 -1.3664  1.4351
 1533TIP3   OH226089   3.156   3.291  14.575 -0.0112  0.0199 -0.4548
 1533TIP3    H126090   3.199   3.345  14.641 -0.9746 -0.6636  0.7696
 1533TIP3    H226091   3.220   3.284  14.504  1.6515 -0.4576  1.0287
 1534TIP3   OH226092   2.218   6.015   4.479 -0.3110 -0.0038  0.1004
 1534TIP3    H126093   2.300   6.019   4.528 -0.7554  0.1809  0.8571
 1534TIP3    H226094   2.170   5.942   4.519  0.1884 -1.2380 -1.4842
 1535TIP3   OH226095   1.503   4.166   2.112 -0.4893 -0.4830 -0.0657
 1535TIP3    H126096   1.552   4.186   2.033 -0.7966  1.0278  0.0937
 1535TIP3    H226097   1.566   4.175   2.183 -0.7392  0.4553  0.0495
 1536TIP3   OH226098   1.000   2.652  11.383 -0.0061 -0.3482 -0.4885
 1536TIP3    H126099   1.079   2.656  11.437 -0.9806 -1.1226  1.0566
 1536TIP3    H226100   0.929   2.639  11.445 -1.3866  0.4138 -1.8380
 1537TIP3   OH226101   4.376   4.047  13.108  0.0461  0.4818 -0.3564
 1537TIP3    H126102   4.342   4.015  13.025 -2.2963  1.1634  0.2740
 1537TIP3    H226103   4.380   4.142  13.097  1.4229  0.4519 -0.2644
 1538TIP3   OH226104   2.285   4.950   1.406  0.4516 -0.4362  0.9289
 1538TIP3    H126105   2.378   4.974   1.406  0.1203  0.9351  1.4078
 1538TIP3    H226106   2.239   5.033   1.414 -0.8355 -1.0881  0.5364
 1539TIP3   OH226107   6.460   6.009   5.628  0.2915  0.2275  0.3122
 1539TIP3    H126108   6.515   6.065   5.574  1.3402 -0.1748  0.9225
 1539TIP3    H226109   6.440   6.062   5.705 -3.6749  1.9404 -1.6015
 1540TIP3   OH226110   0.389   0.882  16.636  0.1940  0.5281  0.2842
 1540TIP3    H126111   0.372   0.892  16.542 -1.9887  1.5752  0.7295
 1540TIP3    H226112   0.468   0.933  16.651  0.4720  0.5004 -0.9594
 1541TIP3   OH226113   4.180   6.471  11.571  0.5109 -0.3223  0.8649
 1541TIP3    H126114   4.145   6.388  11.602 -0.6598 -0.1235  0.1645
 1541TIP3    H226115   4.150   6.535  11.635 -1.2984 -0.0152 -0.2156
 1542TIP3   OH226116   1.022   1.542   4.854 -0.4150 -0.5874 -0.0446
 1542TIP3    H126117   1.050   1.603   4.786 -1.2458 -0.7709 -0.5633
 1542TIP3    H226118   1.069   1.572   4.933  0.4168 -0.2638 -0.6385
 1543TIP3   OH226119   0.966   4.559  15.635 -0.0681 -0.0644 -0.7712
 1543TIP3    H126120   1.023   4.511  15.694 -0.5243  3.1544  2.6687
 1543TIP3    H226121   1.009   4.644  15.624 -1.8580  0.7387 -2.0445
 1544TIP3   OH226122   2.099   1.518   0.436 -0.5419  0.1967  0.4392
 1544TIP3    H126123   2.138   1.494   0.521 -2.9502  1.3066  1.9764
 1544TIP3    H226124   2.066   1.436   0.401 -1.0193 -0.0588  1.4333
 1545TIP3   OH226125   2.130   1.735  12.218 -0.2154 -0.6929 -0.2322
 1545TIP3    H126126   2.051   1.681  12.222  0.4553 -1.6316  1.3001
 1545TIP3    H226127   2.174   1.708  12.138 -0.4570 -1.6094 -0.0639
 1546TIP3   OH226128   4.490   4.325  13.062  0.4115 -0.0121 -0.3477
 1546TIP3    H126129   4.421   4.392  13.063  1.6158  1.4173 -2.9392
 1546TIP3    H226130   4.533   4.334  13.147  0.5399  2.6248 -0.5872
 1547TIP3   OH226131   2.569   1.396  13.292  0.3253 -0.1479 -0.1990
 1547TIP3    H126132   2.661   1.421  13.281 -0.2807  2.3150 -0.3425
 1547TIP3    H226133   2.531   1.408  13.205 -0.3936  0.0473  0.1360
 1548TIP3   OH226134   3.586   2.399   4.244 -0.3454 -0.2472 -0.2014
 1548TIP3    H126135   3.638   2.357   4.176  1.3403  0.2646  0.6914
 1548TIP3    H226136   3.495   2.390   4.215  0.1523 -2.0512 -1.3601
 1549TIP3   OH226137   0.614   6.751  16.897 -0.0389 -0.1218  0.4608
 1549TIP3    H126138   0.557   6.720  16.968 -0.4886 -0.0096  0.1545
 1549TIP3    H226139   0.594   6.694  16.823 -1.1388  1.0731 -0.2145
 1550TIP3   OH226140   3.239   3.098   0.482 -1.0131 -0.2066  0.2053
 1550TIP3    H126141   3.329   3.078   0.457 -1.0939 -0.1611 -0.1271
 1550TIP3    H226142   3.223   3.044   0.560 -0.4085  0.4519  0.7951
 1551TIP3   OH226143   3.458   6.241  17.072  0.2964 -0.5379  0.1027
 1551TIP3    H126144   3.404   6.255  17.150  1.9547  0.6197  1.1074
 1551TIP3    H226145   3.490   6.328  17.048 -0.8244 -0.7466 -2.4155
 1552TIP3   OH226146   2.267   4.097   5.378 -0.1963 -0.3915  0.0157
 1552TIP3    H126147   2.189   4.051   5.345 -1.1263  1.1962 -0.0880
 1552TIP3    H226148   2.241   4.129   5.464  0.3664  0.1059  0.0055
 1553TIP3   OH226149   1.445   6.330  14.937 -0.0748  0.2675 -0.1657
 1553TIP3    H126150   1.530   6.356  14.972 -0.0548 -0.6276  0.4964
 1553TIP3    H226151   1.390   6.408  14.947  0.4422  0.5945  0.1644
 1554TIP3   OH226152   1.940   5.502  12.343  0.2092  0.1166 -0.2254
 1554TIP3    H126153   1.962   5.571  12.405  0.4256  0.8589 -1.1163
 1554TIP3    H226154   1.852   5.525  12.312 -0.6616 -1.2009  1.0684
 1555TIP3   OH226155   5.649   1.142   2.096  0.6508  0.4480  0.1226
 1555TIP3    H126156   5.588   1.213   2.116 -0.3781 -0.2197 -0.5561
 1555TIP3    H226157   5.605   1.063   2.127  1.1793 -0.0480 -0.3605
 1556TIP3   OH226158   3.404   6.000  13.741  0.0558  0.4669  0.5959
 1556TIP3    H126159   3.460   5.987  13.664 -1.4635 -0.1004 -0.4659
 1556TIP3    H226160   3.392   5.911  13.776 -2.0241  0.2164 -0.5866
 1557TIP3   OH226161   0.065   1.215  10.659 -0.5377  0.2764  0.1128
 1557TIP3    H126162   0.137   1.218  10.596 -0.3482  0.1281  0.3188
 1557TIP3    H226163   0.108   1.209  10.745 -0.7751 -1.1493  0.1703
 1558TIP3   OH226164   1.298   0.199  13.608 -0.1460  0.5068  0.1550
 1558TIP3    H126165   1.380   0.164  13.573 -0.8842 -1.1411 -0.0104
 1558TIP3    H226166   1.252   0.235  13.532  0.4277  1.5160  0.2622
 1559TIP3   OH226167   1.059   6.300  12.344  0.1344  0.4240  0.3685
 1559TIP3    H126168   1.029   6.391  12.349  0.4861  0.5309  0.5707
 1559TIP3    H226169   1.139   6.304  12.291 -1.1146 -0.0927 -1.6784
 1560TIP3   OH226170   5.049   6.143  17.291 -1.0909  0.0526  0.2763
 1560TIP3    H126171   4.969   6.167  17.244 -0.1873 -1.0277 -1.9480
 1560TIP3    H226172   5.053   6.048  17.284  0.9841  0.1663 -0.8005
 1561TIP3   OH226173   6.325   3.951  16.445 -0.6192  0.3517 -0.4500
 1561TIP3    H126174   6.419   3.966  16.457 -0.4714  1.7611 -2.7695
 1561TIP3    H226175   6.286   4.037  16.456 -1.6051 -0.1506  0.0542
 1562TIP3   OH226176   2.121   1.245   1.052  0.5369  0.2038 -0.3179
 1562TIP3    H126177   2.181   1.305   1.097 -0.2657  0.1005  0.9350
 1562TIP3    H226178   2.173   1.207   0.981  1.3772  1.5603 -0.4596
 1563TIP3   OH226179   4.426   5.303   0.541  0.2397 -0.7095  0.2618
 1563TIP3    H126180   4.436   5.254   0.459 -0.0871 -1.1759  0.4938
 1563TIP3    H226181   4.487   5.377   0.532 -0.4570 -0.2325 -0.7822
 1564TIP3   OH226182   5.599   5.946   0.748  0.0497  0.5458  0.6633
 1564TIP3    H126183   5.651   5.988   0.679 -0.3341  0.4865  0.3379
 1564TIP3    H226184   5.554   6.018   0.791  1.4393  0.7640  1.8455
 1565TIP3   OH226185   3.846   2.494   0.749  0.1322 -0.2794  0.6557
 1565TIP3    H126186   3.831   2.449   0.832 -0.3517 -0.1953  0.6140
 1565TIP3    H226187   3.920   2.552   0.766  0.1598 -0.4073  0.9698
 1566TIP3   OH226188   0.764   0.991  13.196 -0.3382  0.3618 -0.2685
 1566TIP3    H126189   0.816   1.053  13.246  0.1499  0.2314 -0.5952
 1566TIP3    H226190   0.681   0.985  13.242  0.4123 -0.4512  1.0582
 1567TIP3   OH226191   4.954   6.160   1.957 -0.0750 -0.2276 -0.0995
 1567TIP3    H126192   5.023   6.098   1.932  0.9475  0.4085  1.0639
 1567TIP3    H226193   4.922   6.127   2.042 -1.1469 -0.4605 -0.5785
 1568TIP3   OH226194   6.572   3.083  16.982 -0.0825 -0.0130  0.5057
 1568TIP3    H126195   6.667   3.095  16.990  0.0482 -1.4527  1.6649
 1568TIP3    H226196   6.538   3.169  16.958  1.3261  1.0140  1.9827
 1569TIP3   OH226197   2.631   0.312  13.112  0.0194  0.1570 -0.0154
 1569TIP3    H126198   2.558   0.373  13.104 -0.8938 -1.0153 -1.0874
 1569TIP3    H226199   2.608   0.257  13.187  0.0386  0.0959 -0.0544
 1570TIP3   OH226200   5.942   3.904   2.325  0.3116  0.3018  0.0481
 1570TIP3    H126201   5.922   3.997   2.332 -1.2133 -0.1080  2.1163
 1570TIP3    H226202   5.860   3.865   2.294  1.0051 -0.3641 -1.0213
 1571TIP3   OH226203   6.589   0.271  11.348  0.6152  0.2607 -0.2713
 1571TIP3    H126204   6.633   0.263  11.263 -0.0562 -0.0944 -0.5893
 1571TIP3    H226205   6.643   0.334  11.396  0.9281  0.5726 -1.0050
 1572TIP3   OH226206   3.588   5.654  16.380 -0.0670  0.2175  0.2058
 1572TIP3    H126207   3.662   5.710  16.401  0.8513 -0.5918 -0.7730
 1572TIP3    H226208   3.604   5.625  16.290 -1.0115 -0.8269  0.3445
 1573TIP3   OH226209   6.234   4.106  15.743  0.1976  0.4027 -1.0342
 1573TIP3    H126210   6.323   4.073  15.758  0.4237  0.2597 -2.5858
 1573TIP3    H226211   6.177   4.042  15.786  0.8065  0.1166 -0.6402
 1574TIP3   OH226212   6.717   5.306  11.691 -0.0785 -0.5435 -0.2503
 1574TIP3    H126213   6.709   5.236  11.755 -0.0683  1.2077  1.7872
 1574TIP3    H226214   6.780   5.367  11.729 -0.4200  0.7953 -1.7010
 1575TIP3   OH226215   6.225   6.324   5.073  0.1957 -0.5034  0.1328
 1575TIP3    H126216   6.217   6.375   5.154  1.4569 -0.2831  0.1357
 1575TIP3    H226217   6.306   6.275   5.084  1.8928  1.5861 -2.1200
 1576TIP3   OH226218   6.335   0.968  12.769 -0.3778  0.4390 -0.1500
 1576TIP3    H126219   6.319   0.984  12.676  1.1857  0.9252 -0.3567
 1576TIP3    H226220   6.283   1.035  12.814 -1.9305 -0.4125 -0.5953
 1577TIP3   OH226221   3.462   2.606  12.734  0.5822  0.4365  0.2343
 1577TIP3    H126222   3.497   2.519  12.715  0.3305  0.3378  0.2231
 1577TIP3    H226223   3.496   2.627  12.821  1.7212  0.8771 -0.2915
 1578TIP3   OH226224   0.830   3.336   3.881 -0.2423  0.4036 -0.1197
 1578TIP3    H126225   0.844   3.400   3.811  3.5547 -0.4986 -0.3693
 1578TIP3    H226226   0.788   3.262   3.837 -0.8096  1.0670 -0.7255
 1579TIP3   OH226227   5.924   2.450   4.196  0.3087 -0.5306 -0.5130
 1579TIP3    H126228   5.991   2.398   4.239  1.7459  0.9818 -0.8057
 1579TIP3    H226229   5.885   2.391   4.131  0.2154 -1.9118  0.7624
 1580TIP3   OH226230   3.161   1.634  11.158  0.2426 -0.1693 -0.1312
 1580TIP3    H126231   3.130   1.629  11.248 -0.1160  2.3681 -0.0434
 1580TIP3    H226232   3.097   1.584  11.107 -2.5076  2.4896  0.4335
 1581TIP3   OH226233   0.523   6.290  15.360 -0.1510 -0.3409  0.6488
 1581TIP3    H126234   0.530   6.337  15.443 -0.3974  3.3013 -1.1943
 1581TIP3    H226235   0.608   6.302  15.319 -1.4940  2.3777 -1.6427
 1582TIP3   OH226236   1.454   0.398  12.823  0.0687  0.2495  0.7923
 1582TIP3    H126237   1.490   0.476  12.866  0.4571  0.9157 -0.6558
 1582TIP3    H226238   1.368   0.426  12.791  0.6275  0.4639 -0.6338
 1583TIP3   OH226239   2.102   1.001  14.258  0.1185 -0.5225  0.0980
 1583TIP3    H126240   2.025   0.949  14.235  0.0936 -0.8615  0.9047
 1583TIP3    H226241   2.114   0.985  14.351  0.9059 -0.1207  0.0707
 1584TIP3   OH226242   5.361   5.126  10.498 -0.0521 -0.1127 -0.1675
 1584TIP3    H126243   5.310   5.206  10.490 -2.4319 -1.5878 -0.4665
 1584TIP3    H226244   5.306   5.058  10.461  1.4539 -2.0895  1.0184
 1585TIP3   OH226245   4.838   2.384  15.299  0.1175 -0.0811 -0.1426
 1585TIP3    H126246   4.767   2.429  15.254 -0.0357 -0.1920 -0.0134
 1585TIP3    H226247   4.798   2.303  15.332 -0.6730  1.4513  3.0584
 1586TIP3   OH226248   4.970   0.955  16.139  0.0503 -0.3537 -0.0938
 1586TIP3    H126249   4.894   1.013  16.143  0.4039  0.0808  0.6442
 1586TIP3    H226250   4.988   0.933  16.231  2.7808  2.2437  0.1829
 1587TIP3   OH226251   6.198   2.219   0.731 -0.3091 -0.0579  0.2554
 1587TIP3    H126252   6.238   2.133   0.726 -1.4586 -0.5416 -0.8953
 1587TIP3    H226253   6.244   2.271   0.665  1.7152  0.8368  2.2246
 1588TIP3   OH226254   2.471   0.271  14.163 -0.4634 -0.2047  0.0598
 1588TIP3    H126255   2.417   0.333  14.114 -1.1633 -0.9143 -0.0792
 1588TIP3    H226256   2.507   0.323  14.235  0.0598  0.7019 -0.8101
 1589TIP3   OH226257   2.134   2.466  15.474 -0.4152 -0.0524 -0.7712
 1589TIP3    H126258   2.131   2.387  15.421  0.7848 -1.4406  1.1130
 1589TIP3    H226259   2.227   2.482  15.488 -0.6805  0.1367  1.0465
 1590TIP3   OH226260   1.912   5.733   1.035  0.2276 -0.0191 -0.3737
 1590TIP3    H126261   1.835   5.685   1.066  0.0839  1.5833  2.0127
 1590TIP3    H226262   1.981   5.710   1.097  0.6838  1.3015 -0.3619
 1591TIP3   OH226263   0.658   2.035   5.616  0.0609 -0.4982 -0.1148
 1591TIP3    H126264   0.614   1.950   5.611 -0.8189 -0.1080  0.5482
 1591TIP3    H226265   0.679   2.057   5.526 -0.1054 -1.2191 -0.3360
 1592TIP3   OH226266   6.449   1.399   1.159  0.3340 -0.0841 -0.3732
 1592TIP3    H126267   6.371   1.361   1.120  0.6518 -1.8104  0.5691
 1592TIP3    H226268   6.416   1.454   1.230 -0.1103  1.1469 -1.4878
 1593TIP3   OH226269   5.062   3.539   0.708 -1.0600  0.3101  0.0493
 1593TIP3    H126270   5.119   3.462   0.707 -1.3412  0.1042 -0.5581
 1593TIP3    H226271   5.003   3.526   0.635 -3.7653 -0.8726  2.2521
 1594TIP3   OH226272   5.410   5.360   0.164  0.2983  0.2326 -0.6639
 1594TIP3    H126273   5.453   5.282   0.196  2.1591  0.6777 -1.9048
 1594TIP3    H226274   5.408   5.420   0.239  1.5346  0.0535 -0.4748
 1595TIP3   OH226275   3.278   6.314   4.771  0.1970  0.6282  0.2800
 1595TIP3    H126276   3.295   6.408   4.783  3.7936  0.0058  1.3582
 1595TIP3    H226277   3.228   6.289   4.848  1.1243  1.3013  1.1271
 1596TIP3   OH226278   1.287   5.004   2.760  0.0811  0.1894 -0.5027
 1596TIP3    H126279   1.373   5.034   2.789 -0.9645  0.4224  2.8721
 1596TIP3    H226280   1.234   5.083   2.757 -0.6900 -0.2639  0.3893
 1597TIP3   OH226281   4.892   1.532  16.882  0.1828 -0.0701  0.3546
 1597TIP3    H126282   4.979   1.571  16.887  0.8393 -1.3333 -0.5954
 1597TIP3    H226283   4.873   1.530  16.788 -0.3954 -0.8121  0.4818
 1598TIP3   OH226284   3.200   4.203   1.263 -0.5317 -0.1236 -0.0605
 1598TIP3    H126285   3.275   4.257   1.236 -0.3581  0.1355  0.8784
 1598TIP3    H226286   3.217   4.117   1.226  0.3422 -0.1183  0.3152
 1599TIP3   OH226287   4.166   5.922  15.476  0.2359  0.3720 -0.4250
 1599TIP3    H126288   4.189   5.830  15.473 -1.6376 -0.1560 -0.2400
 1599TIP3    H226289   4.098   5.932  15.409 -1.5391  0.9610  1.3438
 1600TIP3   OH226290   3.780   1.440  17.254  0.1708  0.2901  0.2678
 1600TIP3    H126291   3.859   1.488  17.230 -0.5455  1.4398  0.0993
 1600TIP3    H226292   3.742   1.413  17.170 -0.5146  1.2706  0.2495
 1601TIP3   OH226293   2.653   0.533   1.398  0.3360 -0.3377  0.0257
 1601TIP3    H126294   2.707   0.575   1.466 -0.6969  0.5574  0.3127
 1601TIP3    H226295   2.647   0.599   1.328  0.3427 -0.7733 -0.3877
 1602TIP3   OH226296   2.570   0.374   2.856 -0.2653 -0.2353 -0.5560
 1602TIP3    H126297   2.489   0.328   2.831 -0.4704  0.2700 -0.8350
 1602TIP3    H226298   2.587   0.344   2.946 -1.1740  0.2195 -0.2161
 1603TIP3   OH226299   0.671   6.124   3.788  0.2114 -0.1344 -0.0665
 1603TIP3    H126300   0.605   6.088   3.847 -0.0997 -0.6246 -0.6942
 1603TIP3    H226301   0.632   6.204   3.753 -0.1667 -0.5621 -0.6365
 1604TIP3   OH226302   3.059   5.216  16.612 -0.0464 -0.2532  0.0764
 1604TIP3    H126303   3.111   5.293  16.588  0.3297  0.2132  2.1666
 1604TIP3    H226304   3.031   5.179  16.529 -0.7056  2.4687 -1.0156
 1605TIP3   OH226305   3.016   3.908   1.027 -0.4731 -1.0563  0.2353
 1605TIP3    H126306   3.093   3.930   0.975 -0.9709 -0.5137 -0.2994
 1605TIP3    H226307   3.033   3.945   1.113 -0.7437  0.3395 -0.2905
 1606TIP3   OH226308   2.041   2.504   0.677 -0.1007 -0.9276 -0.3285
 1606TIP3    H126309   2.054   2.410   0.688  0.4354 -0.8040  0.0961
 1606TIP3    H226310   2.018   2.536   0.764  0.3365 -0.5652 -0.3434
 1607TIP3   OH226311   5.182   1.382   3.949  0.2630 -0.7457 -0.1495
 1607TIP3    H126312   5.146   1.416   4.031 -0.6424  0.0119 -0.8444
 1607TIP3    H226313   5.131   1.303   3.931  0.0775 -0.5978 -0.2739
 1608TIP3   OH226314   5.276   6.684  14.674 -0.2265 -0.0470  0.0489
 1608TIP3    H126315   5.352   6.667  14.729 -1.5925 -0.9325  1.7802
 1608TIP3    H226316   5.284   6.622  14.602  1.5515  1.0675 -0.7800
 1609TIP3   OH226317   1.773   5.986  12.236 -0.7525  1.0208  1.2877
 1609TIP3    H126318   1.695   6.023  12.194  0.3039  2.5183  0.5340
 1609TIP3    H226319   1.838   6.056  12.230  1.2995 -0.8548  0.0228
 1610TIP3   OH226320   0.876   3.686  12.316  0.4723 -0.1138 -0.5587
 1610TIP3    H126321   0.870   3.747  12.390  2.9891 -0.5658  0.1428
 1610TIP3    H226322   0.831   3.607  12.347 -0.0624  0.3089 -0.2386
 1611TIP3   OH226323   1.344   3.946   3.350 -0.0392  1.0827  0.4148
 1611TIP3    H126324   1.405   4.004   3.395 -0.0097 -0.2426  2.2503
 1611TIP3    H226325   1.396   3.903   3.283  0.7609  0.8649  1.1534
 1612TIP3   OH226326   2.856   6.115   4.926  0.2265 -0.7090 -0.8639
 1612TIP3    H126327   2.801   6.105   5.004  0.8570  1.0138 -0.1592
 1612TIP3    H226328   2.888   6.026   4.908 -0.1940 -1.1923  0.6268
 1613TIP3   OH226329   0.181   0.815  17.111  0.1557 -0.1115 -0.2319
 1613TIP3    H126330   0.194   0.773  17.026  1.0221 -0.3587  0.0101
 1613TIP3    H226331   0.086   0.831  17.115 -1.0543 -5.5215  1.2275
 1614TIP3   OH226332   0.056   3.761   0.762 -0.6180 -0.0735 -0.1218
 1614TIP3    H126333  -0.009   3.805   0.816 -1.1960 -0.8247 -0.1927
 1614TIP3    H226334   0.010   3.736   0.682 -0.4001 -1.0808  0.0456
 1615TIP3   OH226335   6.067   2.411   1.384 -0.2929  0.0493 -0.0136
 1615TIP3    H126336   6.005   2.381   1.318 -0.6112 -2.5524  1.3285
 1615TIP3    H226337   6.017   2.411   1.466  0.6641  1.0397  0.6096
 1616TIP3   OH226338   3.557   2.162   1.848 -0.0060 -0.1387 -0.3009
 1616TIP3    H126339   3.516   2.207   1.922 -0.2957 -1.7869  0.5755
 1616TIP3    H226340   3.518   2.204   1.771 -1.4349  0.0559  0.4975
 1617TIP3   OH226341   4.373   6.094   5.755  0.0525  0.0572 -0.2789
 1617TIP3    H126342   4.390   6.132   5.841  1.3602  0.9140 -0.8897
 1617TIP3    H226343   4.368   6.169   5.696 -0.1827 -0.5585 -1.0578
 1618TIP3   OH226344   4.113   0.159  14.217 -0.6765  0.1075 -0.2054
 1618TIP3    H126345   4.135   0.109  14.138  0.0198 -0.2655  0.2154
 1618TIP3    H226346   4.149   0.246  14.201 -3.0248  0.9405 -1.5067
 1619TIP3   OH226347   4.780   0.158  16.954 -0.2389  0.5767  0.0010
 1619TIP3    H126348   4.815   0.095  16.891  0.0084 -0.4413  1.1184
 1619TIP3    H226349   4.834   0.236  16.943  1.5391 -0.4936  0.7461
 1620TIP3   OH226350   3.107   5.985  12.299  0.3043  0.4544  0.1817
 1620TIP3    H126351   3.124   5.913  12.238 -1.5274  0.5013 -0.4693
 1620TIP3    H226352   3.087   6.060  12.242 -1.0054  0.6117  0.8054
 1621TIP3   OH226353   1.168   2.828   5.423  0.3077 -0.6075 -0.5082
 1621TIP3    H126354   1.247   2.879   5.442 -0.3408  0.3469 -0.3369
 1621TIP3    H226355   1.186   2.743   5.462  0.7830 -0.0364  0.5668
 1622TIP3   OH226356   5.986   5.317  14.197  0.6779  0.2459  0.3848
 1622TIP3    H126357   5.917   5.257  14.225  0.1941  1.2604  1.4614
 1622TIP3    H226358   6.013   5.284  14.112 -0.8247 -0.4464  0.1413
 1623TIP3   OH226359   2.078   5.080   1.798  0.1019 -0.0682  0.1207
 1623TIP3    H126360   1.999   5.031   1.820  0.2208  0.0636  0.8773
 1623TIP3    H226361   2.072   5.095   1.704  0.2296 -1.8244 -0.2023
 1624TIP3   OH226362   4.471   4.205   5.565  0.0006  0.3435  0.3852
 1624TIP3    H126363   4.387   4.160   5.573 -0.4765  0.6462 -2.2256
 1624TIP3    H226364   4.451   4.288   5.522  1.7826 -0.3016 -1.8754
 1625TIP3   OH226365   6.191   3.669   0.740 -0.2893 -0.0590 -0.2815
 1625TIP3    H126366   6.129   3.699   0.674  1.4418  0.2796 -1.8407
 1625TIP3    H226367   6.277   3.698   0.708  0.7818 -1.2076  1.3540
 1626TIP3   OH226368   6.662   1.867   5.282  0.4025  0.1229  0.0010
 1626TIP3    H126369   6.635   1.945   5.331  1.1584 -0.5637  1.5907
 1626TIP3    H226370   6.726   1.824   5.339 -0.6147 -2.1007 -0.4284
 1627TIP3   OH226371   4.013   4.133   0.184  0.1980  0.2792 -0.5939
 1627TIP3    H126372   3.955   4.201   0.217 -0.7470  0.0868 -1.8118
 1627TIP3    H226373   3.955   4.061   0.160  1.1163 -0.6958  0.0088
 1628TIP3   OH226374   4.478   1.998   4.884 -0.0164 -0.1657 -0.6956
 1628TIP3    H126375   4.412   1.936   4.852  0.3088 -0.3567 -1.0052
 1628TIP3    H226376   4.559   1.969   4.843  0.1407  0.4623 -0.8236
 1629TIP3   OH226377   3.969   2.996   5.325  0.2105  0.1488 -0.0798
 1629TIP3    H126378   4.005   3.084   5.314  0.6316 -0.1890 -1.5154
 1629TIP3    H226379   4.043   2.944   5.355  0.4318 -0.0983 -1.0228
 1630TIP3   OH226380   3.166   3.593  12.508  0.3731 -0.2122 -0.0302
 1630TIP3    H126381   3.171   3.521  12.445  0.9277 -0.2464  0.0505
 1630TIP3    H226382   3.253   3.598  12.547  0.5466  0.9517 -0.5185
 1631TIP3   OH226383   2.252   4.075  16.081  0.4873  0.1174 -0.1834
 1631TIP3    H126384   2.337   4.119  16.074  1.0140 -0.8279  0.0234
 1631TIP3    H226385   2.274   3.983  16.095 -0.5838 -0.3732 -1.5682
 1632TIP3   OH226386   1.389   4.636  11.585 -0.3377  0.0444  0.2860
 1632TIP3    H126387   1.481   4.618  11.567  0.2643  1.9247  1.2312
 1632TIP3    H226388   1.375   4.602  11.674 -0.7905 -0.9012 -0.1273
 1633TIP3   OH226389   6.264   5.219  16.151  0.8730  0.1043  0.4849
 1633TIP3    H126390   6.188   5.266  16.115  0.9459  0.1480  0.3857
 1633TIP3    H226391   6.227   5.138  16.187  0.7305  0.2978  0.7729
 1634TIP3   OH226392   0.553   0.729   4.230  0.1463  0.5504 -0.0249
 1634TIP3    H126393   0.469   0.730   4.184 -0.5689 -0.2508  1.1893
 1634TIP3    H226394   0.576   0.822   4.239 -0.8715  0.8134  0.0657
 1635TIP3   OH226395   3.580   3.891  13.106 -0.1241  0.0194 -0.4587
 1635TIP3    H126396   3.515   3.882  13.036 -1.1291  1.4601  0.2326
 1635TIP3    H226397   3.566   3.813  13.160 -0.4095 -0.3213 -1.0129
 1636TIP3   OH226398   3.384   2.221   5.116  0.1600 -0.2733  0.3881
 1636TIP3    H126399   3.302   2.266   5.097 -0.5927 -2.0290 -0.6924
 1636TIP3    H226400   3.372   2.133   5.081  1.7947 -1.1597  1.9173
 1637TIP3   OH226401   5.108   6.071  15.991  0.2729 -0.1426  0.4566
 1637TIP3    H126402   5.104   5.981  15.959 -1.7425 -1.4193  3.7679
 1637TIP3    H226403   5.185   6.072  16.049  0.5611  0.4442  0.0756
 1638TIP3   OH226404   2.840   1.605   0.814  0.1648  0.0332  0.3098
 1638TIP3    H126405   2.833   1.530   0.873  3.0013 -0.7811 -0.2240
 1638TIP3    H226406   2.889   1.572   0.738 -2.1103  1.4159 -1.9017
 1639TIP3   OH226407   5.892   1.981  10.241 -0.1338 -0.0546 -0.0689
 1639TIP3    H126408   5.951   2.052  10.266 -1.4243  0.2995  2.2853
 1639TIP3    H226409   5.935   1.939  10.167  3.0214  0.2226  1.4612
 1640TIP3   OH226410   0.197   1.572   2.084  0.2730 -1.1664 -0.2015
 1640TIP3    H126411   0.272   1.622   2.115 -0.2362 -0.8313  0.5162
 1640TIP3    H226412   0.142   1.636   2.040  0.1544 -1.3046 -0.2540
 1641TIP3   OH226413   0.603   0.372   1.144 -0.6562 -0.3420 -0.0727
 1641TIP3    H126414   0.662   0.404   1.076 -0.3835  0.2397  0.4313
 1641TIP3    H226415   0.519   0.361   1.100  0.0617 -2.2658 -1.0825
 1642TIP3   OH226416   2.699   1.006  17.053  0.1718 -0.1569  0.7638
 1642TIP3    H126417   2.739   0.919  17.057  0.9046  0.2008  1.6891
 1642TIP3    H226418   2.656   1.017  17.138 -1.1775 -0.1741  0.1179
 1643TIP3   OH226419   6.800   4.832  15.449 -0.0018  0.2579  0.0707
 1643TIP3    H126420   6.865   4.762  15.446 -0.0333  0.2492 -1.8395
 1643TIP3    H226421   6.776   4.846  15.357 -1.0539  1.7926  0.5408
 1644TIP3   OH226422   2.737   0.707   1.717 -0.2739  0.2717  0.6520
 1644TIP3    H126423   2.674   0.637   1.733 -0.4490  0.1650 -0.4467
 1644TIP3    H226424   2.822   0.664   1.714 -0.3312  0.1764  0.4332
 1645TIP3   OH226425   0.759   2.200   2.917  0.5222  0.5339  0.4171
 1645TIP3    H126426   0.792   2.148   2.844  2.4644  2.1579  0.0422
 1645TIP3    H226427   0.732   2.135   2.982  0.8491 -0.9313 -0.8398
 1646TIP3   OH226428   2.358   6.567  13.990  0.1284 -0.1533 -0.2558
 1646TIP3    H126429   2.422   6.566  14.062 -1.0374  0.2627  0.8128
 1646TIP3    H226430   2.285   6.618  14.024 -0.5779 -0.2133 -1.6411
 1647TIP3   OH226431   0.381   2.282   5.816  0.3495  0.0947 -0.3215
 1647TIP3    H126432   0.314   2.226   5.776  0.2025  0.6710 -0.9023
 1647TIP3    H226433   0.333   2.331   5.883  0.1288  0.6861 -0.9035
 1648TIP3   OH226434   2.177   2.176   1.646 -0.2915  0.6212  0.3624
 1648TIP3    H126435   2.214   2.228   1.575 -1.5693 -1.4197 -1.9256
 1648TIP3    H226436   2.089   2.213   1.659 -1.0304 -0.5986 -0.9560
 1649TIP3   OH226437   5.022   0.123   2.461  0.4475  0.0911 -0.4080
 1649TIP3    H126438   5.041   0.052   2.522  0.3461 -0.4456 -0.9949
 1649TIP3    H226439   4.945   0.166   2.497 -0.0633 -0.6850 -0.5414
 1650TIP3   OH226440   5.920   5.216   3.512 -0.2516  0.1749 -0.2593
 1650TIP3    H126441   5.861   5.214   3.587 -0.6806  0.7581 -0.5729
 1650TIP3    H226442   5.933   5.123   3.490  0.2062 -0.0200  0.7675
 1651TIP3   OH226443   1.507   1.149   3.298 -0.4109 -0.1874 -0.1059
 1651TIP3    H126444   1.534   1.065   3.334 -0.1601 -0.6208 -1.2763
 1651TIP3    H226445   1.575   1.210   3.326 -1.4917  0.0559  2.2824
 1652TIP3   OH226446   1.128   2.027   4.621 -0.1352 -0.2263 -0.2294
 1652TIP3    H126447   1.163   2.098   4.675 -0.3078 -0.2339 -0.1040
 1652TIP3    H226448   1.129   2.062   4.531 -0.4781  0.0433 -0.1326
 1653TIP3   OH226449   5.486   3.736   3.956  0.0682 -0.2653 -0.3203
 1653TIP3    H126450   5.577   3.736   3.925 -0.2045  1.1339 -1.2425
 1653TIP3    H226451   5.445   3.807   3.907 -1.7156 -1.3336 -0.4260
 1654TIP3   OH226452   3.869   0.291   1.220  0.0171 -0.7765  0.0276
 1654TIP3    H126453   3.919   0.373   1.220  0.5292 -1.0500  1.7537
 1654TIP3    H226454   3.922   0.231   1.272 -1.0726 -1.7522  0.0445
 1655TIP3   OH226455   0.845   5.366   3.198 -0.3722  0.7887  0.6174
 1655TIP3    H126456   0.936   5.394   3.206  0.3213 -1.6486  2.1630
 1655TIP3    H226457   0.807   5.379   3.285 -0.4198 -1.5227  0.9976
 1656TIP3   OH226458   0.633   6.332   4.072 -0.0742 -0.6462  0.4418
 1656TIP3    H126459   0.660   6.353   3.982  2.4817 -1.0342  1.0342
 1656TIP3    H226460   0.643   6.414   4.119 -1.3639 -0.4568  0.4019
 1657TIP3   OH226461   2.975   2.160   3.453 -0.4019  0.1775  0.4836
 1657TIP3    H126462   3.022   2.077   3.441 -2.8094 -1.1034 -0.9901
 1657TIP3    H226463   2.989   2.207   3.371 -0.3544  0.4884  0.6723
 1658TIP3   OH226464   3.472   2.001  14.779 -0.4210 -0.0965  0.0965
 1658TIP3    H126465   3.529   2.017  14.704  1.7656  2.5850  2.0719
 1658TIP3    H226466   3.426   2.084  14.792  0.4451  0.0874  2.5475
 1659TIP3   OH226467   3.521   4.584   2.201 -0.1301 -0.0246  0.2413
 1659TIP3    H126468   3.565   4.522   2.260 -0.2268 -0.4726 -0.1578
 1659TIP3    H226469   3.592   4.636   2.163  0.0381 -0.5923 -0.2254
 1660TIP3   OH226470   4.448   4.320   5.230 -0.2115  0.0604 -0.2913
 1660TIP3    H126471   4.453   4.402   5.181  1.8576  2.2292  3.0819
 1660TIP3    H226472   4.361   4.321   5.270  0.3410  1.5861  1.0055
 1661TIP3   OH226473   1.978   5.821  11.433 -0.2095  0.1922  0.0468
 1661TIP3    H126474   2.012   5.813  11.344  0.8479  3.4352  0.0161
 1661TIP3    H226475   1.903   5.880  11.424  0.1594  0.8901  1.2986
 1662TIP3   OH226476   0.961   4.898  11.112  0.9646  0.0603 -0.6415
 1662TIP3    H126477   0.892   4.962  11.130 -0.7357 -2.0758  0.8772
 1662TIP3    H226478   1.000   4.879  11.197  1.0202 -1.3373 -0.9482
 1663TIP3   OH226479   6.596   2.301   1.716 -0.1971  0.2840 -0.6407
 1663TIP3    H126480   6.525   2.332   1.660 -1.5391 -0.1545  0.7560
 1663TIP3    H226481   6.676   2.325   1.669 -1.2255  2.4894 -1.3825
 1664TIP3   OH226482   3.751   1.777   5.493 -0.2273  0.2242  0.4759
 1664TIP3    H126483   3.805   1.848   5.527 -1.9528  0.7202  2.3312
 1664TIP3    H226484   3.762   1.705   5.555 -0.1531 -0.4051 -0.2395
 1665TIP3   OH226485   2.237   6.319  12.692  0.6622  0.5053  0.1180
 1665TIP3    H126486   2.149   6.311  12.657  0.3590  0.6826  0.8191
 1665TIP3    H226487   2.289   6.256  12.641 -0.4175 -1.6466  1.4884
 1666TIP3   OH226488   1.416   5.681   4.493 -0.1633 -0.1265 -0.5751
 1666TIP3    H126489   1.332   5.636   4.497 -1.4593  2.2151  0.5549
 1666TIP3    H226490   1.425   5.708   4.402 -1.2172  0.5866 -0.4840
 1667TIP3   OH226491   5.994   3.741  15.585  0.2737  0.4370 -0.3481
 1667TIP3    H126492   5.929   3.701  15.528  0.1219  0.6417 -0.3200
 1667TIP3    H226493   5.988   3.835  15.567  0.1540  0.5152  0.0738
 1668TIP3   OH226494   3.821   6.139  16.141  0.4467  0.1810  0.5704
 1668TIP3    H126495   3.912   6.112  16.127 -0.9709 -4.1514 -2.5716
 1668TIP3    H226496   3.798   6.186  16.061 -1.2151 -3.2572 -1.1938
 1669TIP3   OH226497   3.680   0.618  16.575 -0.0288 -0.4718  0.2526
 1669TIP3    H126498   3.717   0.563  16.644  1.3442 -0.7707 -0.6863
 1669TIP3    H226499   3.745   0.616  16.505  0.0619  2.2907  0.1361
 1670TIP3   OH226500   5.839   3.737  11.326 -0.3633 -0.0512 -0.5959
 1670TIP3    H126501   5.866   3.821  11.289  1.0089 -0.0779  0.2955
 1670TIP3    H226502   5.917   3.682  11.320 -1.2643 -1.3164 -1.2316
 1671TIP3   OH226503   4.559   5.221   6.444 -0.4970 -0.1907 -0.5721
 1671TIP3    H126504   4.637   5.273   6.426 -0.2636 -0.2744  0.1811
 1671TIP3    H226505   4.487   5.275   6.413 -0.2735  0.6788  0.3545
 1672TIP3   OH226506   6.219   5.798  13.066  0.2966 -0.1767  0.2764
 1672TIP3    H126507   6.156   5.854  13.021 -0.7207 -1.5106 -0.0392
 1672TIP3    H226508   6.187   5.794  13.156  1.1605  0.8384  0.6451
 1673TIP3   OH226509   0.522   3.381   0.959 -0.2696 -0.7848  0.1719
 1673TIP3    H126510   0.519   3.456   0.900 -0.9541 -0.3756  0.6990
 1673TIP3    H226511   0.431   3.372   0.990 -0.0772 -1.4677  0.5625
 1674TIP3   OH226512   5.057   0.774   1.851  0.4174 -0.3607 -0.7454
 1674TIP3    H126513   5.108   0.694   1.862 -0.8470 -0.8085  3.5478
 1674TIP3    H226514   4.968   0.744   1.833  0.1706  0.0750 -0.2828
 1675TIP3   OH226515   0.590   1.093   0.522  0.5104 -0.2996  0.0687
 1675TIP3    H126516   0.616   1.165   0.465 -1.6844 -0.7620 -1.6287
 1675TIP3    H226517   0.672   1.048   0.542  1.9117  2.4056  0.9273
 1676TIP3   OH226518   5.234   6.028   3.556  0.0142 -0.5488 -0.0547
 1676TIP3    H126519   5.310   6.067   3.513  0.7197  0.0267  1.6105
 1676TIP3    H226520   5.244   5.934   3.542 -1.1388 -0.3025 -3.2148
 1677TIP3   OH226521   2.155   2.463  13.603  1.1493 -0.0805  0.1337
 1677TIP3    H126522   2.135   2.393  13.665  0.1239 -1.1271 -1.2983
 1677TIP3    H226523   2.208   2.421  13.536 -0.1451  0.2879 -1.1602
 1678TIP3   OH226524   1.100   6.212   5.163 -0.1943 -0.3588  0.3867
 1678TIP3    H126525   1.185   6.174   5.140 -0.3947 -0.0714 -0.9204
 1678TIP3    H226526   1.042   6.187   5.091 -0.4152  2.0749 -0.3869
 1679TIP3   OH226527   2.963   5.506  15.663 -0.2772 -0.2441  0.1899
 1679TIP3    H126528   2.873   5.522  15.692  0.0634  1.4591  0.3892
 1679TIP3    H226529   3.017   5.566  15.716  0.8845 -0.6066 -0.5350
 1680TIP3   OH226530   0.019   5.846   1.655 -0.7496  0.1701 -0.3247
 1680TIP3    H126531  -0.035   5.897   1.714  0.1898  0.0758  0.6294
 1680TIP3    H226532   0.072   5.910   1.608 -0.8538  0.1847 -0.4234
 1681TIP3   OH226533   4.985   1.776   5.767 -0.0738  0.5886 -0.1058
 1681TIP3    H126534   4.964   1.866   5.790 -0.3405  0.7585 -0.9945
 1681TIP3    H226535   5.024   1.740   5.847 -0.9442  1.1661  0.6038
 1682TIP3   OH226536   0.204   2.369  15.426 -0.1392 -0.3774 -0.4678
 1682TIP3    H126537   0.238   2.312  15.494 -1.6931 -1.0074 -0.1782
 1682TIP3    H226538   0.171   2.310  15.358  0.5878  0.2273 -1.3714
 1683TIP3   OH226539   6.330   0.493   1.132 -0.3240  0.0769 -0.0118
 1683TIP3    H126540   6.237   0.489   1.153 -0.2718  1.3136  0.5587
 1683TIP3    H226541   6.375   0.480   1.216 -0.0691  2.1998  0.2567
 1684TIP3   OH226542   6.684   0.568   3.405 -0.5842 -0.8898  0.4722
 1684TIP3    H126543   6.749   0.499   3.407  0.2149 -0.1328  1.3983
 1684TIP3    H226544   6.661   0.583   3.497 -0.8393 -0.0219  0.2769
 1685TIP3   OH226545   0.455   6.124   1.460 -0.3023 -0.2702  0.4832
 1685TIP3    H126546   0.501   6.144   1.542 -0.2084 -0.3114  0.4404
 1685TIP3    H226547   0.376   6.178   1.464  0.5107  1.0372 -0.1659
 1686TIP3   OH226548   6.444   3.143  16.117 -0.1458  0.6720 -0.5284
 1686TIP3    H126549   6.471   3.051  16.121 -0.7783  0.4735  3.4599
 1686TIP3    H226550   6.505   3.183  16.055  0.7576 -2.2310 -1.6932
 1687TIP3   OH226551   0.398   0.125   3.059 -0.0487  0.1950  0.3924
 1687TIP3    H126552   0.391   0.106   3.153  0.5305 -1.8900  0.0732
 1687TIP3    H226553   0.396   0.039   3.017 -1.1075  1.1102 -1.5991
 1688TIP3   OH226554   3.227   3.603  13.614  0.3930 -0.1539 -0.6524
 1688TIP3    H126555   3.177   3.685  13.611  1.2363  0.3732 -0.6565
 1688TIP3    H226556   3.265   3.601  13.702  2.5455  0.8291 -1.4632
 1689TIP3   OH226557   2.932   5.692   1.636  0.3596  0.0156  0.1047
 1689TIP3    H126558   2.920   5.622   1.571  1.8515  0.3385 -0.5614
 1689TIP3    H226559   2.950   5.770   1.584  1.5533  0.2883  0.8903
 1690TIP3   OH226560   5.520   4.174  14.106 -0.3147  0.1153  0.1139
 1690TIP3    H126561   5.541   4.215  14.022  0.4506  0.5758  0.5139
 1690TIP3    H226562   5.445   4.224  14.139 -1.8546 -1.2438 -1.1148
 1691TIP3   OH226563   6.019   6.238   4.908  0.2193 -0.1305  0.0759
 1691TIP3    H126564   5.968   6.167   4.946 -0.5523  0.2993 -0.1188
 1691TIP3    H226565   6.090   6.254   4.970  0.1080 -0.7321  0.3620
 1692TIP3   OH226566   4.805   0.644   1.702 -0.2974 -0.1606 -0.2562
 1692TIP3    H126567   4.776   0.560   1.736  1.0815 -0.2064  0.9169
 1692TIP3    H226568   4.726   0.697   1.698 -1.2532 -1.6173 -1.3879
 1693TIP3   OH226569   3.685   5.184  13.446  0.4998 -0.0972 -0.2407
 1693TIP3    H126570   3.773   5.147  13.444  1.3078  1.6944  0.2829
 1693TIP3    H226571   3.634   5.122  13.500  1.6637 -0.6825  0.2152
 1694TIP3   OH226572   2.347   3.795  16.068 -0.4226 -0.1541 -0.1790
 1694TIP3    H126573   2.340   3.755  16.154  0.3370  0.3492  0.1294
 1694TIP3    H226574   2.439   3.787  16.045 -0.5533  0.0319 -0.7889
 1695TIP3   OH226575   2.692   6.633  13.859  0.0738 -0.1548 -0.4639
 1695TIP3    H126576   2.672   6.726  13.853  3.1963  0.7245  0.7133
 1695TIP3    H226577   2.763   6.619  13.796 -0.3426 -1.7456 -0.6338
 1696TIP3   OH226578   2.784   5.818   4.991  0.1132 -0.2896  0.1801
 1696TIP3    H126579   2.847   5.813   5.063  1.2939 -0.6994 -0.8245
 1696TIP3    H226580   2.815   5.752   4.929 -0.6647  0.2951 -0.8541
 1697TIP3   OH226581   2.966   2.966   4.332 -0.7166 -0.7216  0.2404
 1697TIP3    H126582   2.938   2.939   4.245  0.1670 -0.5488 -0.1116
 1697TIP3    H226583   3.059   2.988   4.321 -0.8192  0.1626  1.0301
 1698TIP3   OH226584   0.227   4.401  11.044 -0.1717 -0.2490 -0.3905
 1698TIP3    H126585   0.237   4.306  11.044 -0.5467 -0.2919 -0.0631
 1698TIP3    H226586   0.196   4.422  10.955 -2.2537 -0.6822  0.1883
 1699TIP3   OH226587   0.703   4.477   4.835 -0.6605  0.1203 -0.2761
 1699TIP3    H126588   0.734   4.387   4.847  0.8345  0.7960  1.4767
 1699TIP3    H226589   0.626   4.483   4.891  0.1855  0.3427  0.9043
 1700TIP3   OH226590   2.134   6.474  12.156 -0.0535  0.1043  0.2300
 1700TIP3    H126591   2.202   6.537  12.180  0.5506  0.0298 -1.1646
 1700TIP3    H226592   2.180   6.391  12.145 -0.4951 -0.1244  0.0523
 1701TIP3   OH226593   3.765   4.352   4.965  0.2356 -0.0057 -0.2945
 1701TIP3    H126594   3.743   4.298   4.889  0.2338 -0.1778 -0.1704
 1701TIP3    H226595   3.681   4.379   5.001  0.2190  1.0299 -1.0264
 1702TIP3   OH226596   3.297   5.268  16.864  0.5645 -0.0810 -0.7519
 1702TIP3    H126597   3.282   5.179  16.831 -0.2724 -0.5967  0.9050
 1702TIP3    H226598   3.240   5.323  16.812  1.1756 -0.4790 -1.8747
 1703TIP3   OH226599   5.568   0.149   1.695  0.0733  0.2120 -0.0717
 1703TIP3    H126600   5.594   0.190   1.612 -0.1730 -1.2998 -0.9307
 1703TIP3    H226601   5.551   0.058   1.672  0.2376 -0.2938  1.7058
 1704TIP3   OH226602   2.154   1.141  10.497 -0.4658 -0.4444 -0.2653
 1704TIP3    H126603   2.110   1.071  10.450  2.0598 -1.6039 -1.0833
 1704TIP3    H226604   2.149   1.217  10.439 -1.7581 -0.3882 -0.1059
 1705TIP3   OH226605   6.355   5.697   2.003 -0.3661 -0.0166 -0.1537
 1705TIP3    H126606   6.315   5.766   1.950 -0.4549 -0.2635 -0.4103
 1705TIP3    H226607   6.443   5.729   2.022 -0.5486  0.3515  0.0798
 1706TIP3   OH226608   3.126   0.039   0.300  0.0162 -0.7641  0.1250
 1706TIP3    H126609   3.128   0.061   0.393  2.7975 -0.3382  0.0329
 1706TIP3    H226610   3.151   0.120   0.255 -1.2369 -0.9699 -1.0420
 1707TIP3   OH226611   4.773   2.926  14.316 -0.0944  0.4256 -0.4696
 1707TIP3    H126612   4.852   2.931  14.263 -1.2350  1.7098 -2.1528
 1707TIP3    H226613   4.727   2.850  14.282 -0.2044  0.4667 -0.4119
 1708TIP3   OH226614   0.539   3.496  13.298  0.4524  0.0449  0.0168
 1708TIP3    H126615   0.606   3.533  13.241  0.3807  1.0092  0.5370
 1708TIP3    H226616   0.547   3.545  13.379  0.9711 -1.7044  1.0937
 1709TIP3   OH226617   2.919   3.579   2.572  0.8186 -0.5857 -0.7617
 1709TIP3    H126618   2.899   3.502   2.625  2.4740 -1.4404 -1.2930
 1709TIP3    H226619   2.834   3.614   2.546  0.0267 -2.3013 -0.5862
 1710TIP3   OH226620   4.749   3.001   5.781  0.5516 -0.2756 -0.8214
 1710TIP3    H126621   4.675   2.941   5.769 -0.1586  0.6917 -1.4612
 1710TIP3    H226622   4.728   3.075   5.725  1.9054  0.1288 -0.8154
 1711TIP3   OH226623   2.649   3.615   5.242 -0.5177  0.3758 -0.2936
 1711TIP3    H126624   2.621   3.558   5.170 -0.5055 -0.3534  0.2750
 1711TIP3    H226625   2.569   3.661   5.268 -0.8109 -0.3411  0.1016
 1712TIP3   OH226626   5.878   5.610  16.998 -0.2146  0.2943  0.5952
 1712TIP3    H126627   5.928   5.590  17.078 -1.7043 -0.2508  1.4241
 1712TIP3    H226628   5.837   5.694  17.015 -1.0547 -0.1199  0.6920
 1713TIP3   OH226629   0.643   6.536   1.276  0.0738 -0.2005  0.1399
 1713TIP3    H126630   0.719   6.593   1.287  0.2002 -0.4793  0.7468
 1713TIP3    H226631   0.573   6.596   1.250 -0.2546  0.5670  2.5067
 1714TIP3   OH226632   6.318   3.954   3.776 -0.0324 -0.1328  0.3009
 1714TIP3    H126633   6.264   3.908   3.713 -0.0394  2.4464 -1.7336
 1714TIP3    H226634   6.408   3.942   3.745  0.0861  0.0230  0.5758
 1715TIP3   OH226635   6.110   3.594  13.834 -0.5382 -0.1452  0.3415
 1715TIP3    H126636   6.080   3.536  13.903 -0.0740  1.7856  2.2706
 1715TIP3    H226637   6.154   3.666  13.880  2.1821 -0.0677 -2.0517
 1716TIP3   OH226638   0.434   4.975   3.104 -0.3720  0.0984 -0.1481
 1716TIP3    H126639   0.452   4.928   3.185  1.3479 -0.0449 -0.5873
 1716TIP3    H226640   0.475   4.923   3.035 -1.1100  0.6417 -1.0252
 1717TIP3   OH226641   0.763   0.461  14.461  0.6180  0.2629  0.9716
 1717TIP3    H126642   0.730   0.540  14.502 -0.3275  1.4953 -1.8908
 1717TIP3    H226643   0.822   0.492  14.392  0.3092 -1.4939 -0.1613
 1718TIP3   OH226644   2.397   5.586  13.916 -0.2355  0.1995 -0.3224
 1718TIP3    H126645   2.313   5.556  13.880  0.7477 -2.0680 -0.8932
 1718TIP3    H226646   2.374   5.632  13.996 -1.9759 -1.7930  0.4232
 1719TIP3   OH226647   4.000   2.392  11.167  0.0279  0.3042  0.1403
 1719TIP3    H126648   3.925   2.376  11.110 -1.5834  0.9435  1.9884
 1719TIP3    H226649   3.995   2.485  11.187  1.3710  0.3679  0.2539
 1720TIP3   OH226650   5.603   6.415  16.907 -0.3840  0.0657 -0.4638
 1720TIP3    H126651   5.521   6.371  16.931 -0.1167  0.1650  0.6680
 1720TIP3    H226652   5.656   6.345  16.869 -1.0782  0.0534 -1.4598
 1721TIP3   OH226653   2.277   5.451  14.907  0.1792  0.0438  0.8322
 1721TIP3    H126654   2.329   5.382  14.865  1.2559 -0.3911  2.7804
 1721TIP3    H226655   2.191   5.444  14.866  1.0463 -0.5755 -1.0201
 1722TIP3   OH226656   5.981   5.583  12.235 -0.2774 -0.3526 -0.2656
 1722TIP3    H126657   6.071   5.604  12.260 -0.4690 -0.2583  0.3688
 1722TIP3    H226658   5.984   5.491  12.210 -0.3905 -0.9920  1.8155
 1723TIP3   OH226659   0.171   2.092   2.544 -0.1161  0.2014  0.2880
 1723TIP3    H126660   0.118   2.033   2.490  0.0755 -0.5262  0.8808
 1723TIP3    H226661   0.118   2.108   2.621 -0.4366  1.3347 -0.1423
 1724TIP3   OH226662   5.317   0.585   3.570 -0.0730 -0.3386 -0.2021
 1724TIP3    H126663   5.238   0.637   3.554 -0.5861 -0.8677  0.5150
 1724TIP3    H226664   5.354   0.569   3.484 -1.0709 -0.5725 -0.5973
 1725TIP3   OH226665   1.528   4.089   4.957  0.2024  0.3728 -0.4327
 1725TIP3    H126666   1.593   4.103   4.888  0.1385  1.9561 -0.2113
 1725TIP3    H226667   1.489   4.175   4.971 -0.8946 -0.2439  0.4967
 1726TIP3   OH226668   5.379   5.383  16.586 -0.2356  0.4402  0.5976
 1726TIP3    H126669   5.388   5.414  16.676 -1.8253 -1.5810  1.5379
 1726TIP3    H226670   5.363   5.289  16.595 -0.3606  0.1780 -1.8181
 1727TIP3   OH226671   5.783   3.365   3.865  0.1676 -0.2066 -0.1606
 1727TIP3    H126672   5.764   3.272   3.883 -2.6931  0.0482 -1.2558
 1727TIP3    H226673   5.811   3.400   3.949 -0.3758 -1.7276  0.7042
 1728TIP3   OH226674   0.302   5.198  12.924 -0.4059 -0.1894  0.0097
 1728TIP3    H126675   0.330   5.113  12.959  1.1414 -0.6670 -2.2312
 1728TIP3    H226676   0.305   5.256  13.000  0.6414 -1.6303  1.1378
 1729TIP3   OH226677   3.383   4.662   5.784 -0.3294  0.1858 -0.3532
 1729TIP3    H126678   3.339   4.730   5.834  0.3651  0.1408  0.3279
 1729TIP3    H226679   3.330   4.584   5.797  0.4329 -0.1095  1.2587
 1730TIP3   OH226680   5.535   0.198  11.961 -0.0126  0.0295  0.2586
 1730TIP3    H126681   5.538   0.258  11.887 -1.3212 -0.6664 -0.4027
 1730TIP3    H226682   5.520   0.254  12.037  1.0142  0.7173 -0.0278
 1731TIP3   OH226683   3.881   1.541   3.317  0.0602 -0.1785  0.5272
 1731TIP3    H126684   3.873   1.458   3.364  2.0117 -0.2294  0.8721
 1731TIP3    H226685   3.793   1.577   3.316 -0.9160 -2.3953  0.0933
 1732TIP3   OH226686   1.767   2.411  15.221  0.2379  0.1212 -0.3305
 1732TIP3    H126687   1.834   2.472  15.252  0.4763 -0.9176  1.3453
 1732TIP3    H226688   1.685   2.446  15.256  0.1833  0.2783 -0.6179
 1733TIP3   OH226689   4.440   3.736   4.331  0.3233  0.5080  0.0955
 1733TIP3    H126690   4.438   3.683   4.252 -0.9686  1.5982 -0.6640
 1733TIP3    H226691   4.476   3.679   4.398 -0.0552 -0.9755 -0.9200
 1734TIP3   OH226692   1.297   6.067   3.760  0.4329 -0.5924  0.2223
 1734TIP3    H126693   1.224   6.035   3.813 -0.8906  0.4376 -0.9031
 1734TIP3    H226694   1.306   6.159   3.783  0.5600 -0.4085 -0.5142
 1735TIP3   OH226695   4.151   2.236  16.175 -0.1301  0.1097  0.2608
 1735TIP3    H126696   4.067   2.270  16.142  1.1282  3.1697 -0.1666
 1735TIP3    H226697   4.198   2.209  16.096  0.2067  0.7583  0.2337
 1736TIP3   OH226698   1.438   0.875  17.242 -0.0281 -0.2049 -1.0819
 1736TIP3    H126699   1.533   0.883  17.256 -0.0045 -0.7754 -0.8680
 1736TIP3    H226700   1.404   0.850  17.328 -0.2024 -1.2970 -1.4457
 1737TIP3   OH226701   0.728   0.610   6.440  0.1812 -0.0989 -0.6188
 1737TIP3    H126702   0.685   0.556   6.373  0.2324 -1.4455  0.3783
 1737TIP3    H226703   0.786   0.548   6.485  0.4933  0.8940  0.3658
 1738TIP3   OH226704   4.169   4.443   4.972 -0.4133  0.4036 -0.4786
 1738TIP3    H126705   4.165   4.370   4.911 -0.9151  0.9971 -1.1793
 1738TIP3    H226706   4.137   4.408   5.055  1.5438 -0.7723 -0.1665
 1739TIP3   OH226707   6.381   4.654   5.363  0.1735 -0.2328 -0.2045
 1739TIP3    H126708   6.371   4.697   5.447 -1.9053  0.5847 -0.8230
 1739TIP3    H226709   6.336   4.711   5.301  0.5460 -1.4636 -1.6741
 1740TIP3   OH226710   3.821   4.438  13.549 -0.5095  0.8002  0.5561
 1740TIP3    H126711   3.890   4.415  13.610 -1.6654 -0.8735  1.3261
 1740TIP3    H226712   3.851   4.518  13.507  0.5725  1.7239  2.9214
 1741TIP3   OH226713   2.538   0.176   0.820  0.1496  0.2020  0.4138
 1741TIP3    H126714   2.460   0.202   0.868  0.7029  0.2344  1.3262
 1741TIP3    H226715   2.589   0.256   0.809  1.4866 -0.2812  2.5451
 1742TIP3   OH226716   0.019   0.538   2.201 -0.2408 -0.4256 -0.2174
 1742TIP3    H126717   0.017   0.625   2.241  0.2800 -0.5723  0.1287
 1742TIP3    H226718  -0.022   0.551   2.115 -0.7550  0.0255  0.0849
 1743TIP3   OH226719   1.117   5.454   0.925  0.4098 -0.4131 -0.2475
 1743TIP3    H126720   1.060   5.455   0.848  1.0405  0.6832 -0.7226
 1743TIP3    H226721   1.153   5.366   0.927 -0.8923 -0.9618 -0.2374
 1744TIP3   OH226722   4.563   4.877   4.180 -0.9243  0.0875 -0.3244
 1744TIP3    H126723   4.642   4.823   4.174 -0.8214  0.3901 -2.4004
 1744TIP3    H226724   4.595   4.963   4.207 -0.6332  0.0368 -0.5052
 1745TIP3   OH226725   4.321   3.890  16.166 -0.3121 -0.1686  0.1294
 1745TIP3    H126726   4.296   3.823  16.102  0.8608 -1.4703  0.9647
 1745TIP3    H226727   4.334   3.842  16.248  0.6092  1.0662  0.7558
 1746TIP3   OH226728   1.705   0.964  11.439 -0.1186  0.1021  0.1120
 1746TIP3    H126729   1.714   0.890  11.499 -0.8049  0.1715  0.3125
 1746TIP3    H226730   1.777   0.953  11.376 -1.6218 -2.1888 -1.3942
 1747TIP3   OH226731   5.338   4.057   6.031  0.1336  0.6301  0.0252
 1747TIP3    H126732   5.250   4.085   6.058 -1.4544 -2.2254 -1.6332
 1747TIP3    H226733   5.380   4.031   6.113 -1.8738 -1.0730  0.6212
 1748TIP3   OH226734   2.208   6.047  12.268  0.1952 -0.3779 -0.2835
 1748TIP3    H126735   2.285   6.024  12.320  0.6212 -2.2860 -1.6087
 1748TIP3    H226736   2.137   6.054  12.331  0.8313 -1.8629  0.6689
 1749TIP3   OH226737   6.544   0.607  14.049 -0.2074 -0.4736 -0.7425
 1749TIP3    H126738   6.449   0.596  14.047 -0.1739 -0.8684 -0.4009
 1749TIP3    H226739   6.559   0.696  14.019 -0.7804  0.0870  0.5342
 1750TIP3   OH226740   3.831   2.027   2.521  0.2203 -0.3481 -0.0679
 1750TIP3    H126741   3.902   2.031   2.585  0.3203  1.2811 -0.2522
 1750TIP3    H226742   3.751   2.031   2.574  0.2934  0.1945  0.0028
 1751TIP3   OH226743   4.694   0.077  17.200 -0.0119  0.0073 -0.4343
 1751TIP3    H126744   4.746   0.096  17.122  0.6695  1.9267  0.4405
 1751TIP3    H226745   4.756   0.038  17.261 -0.4944 -1.2703 -0.7140
 1752TIP3   OH226746   1.691   4.147  16.423 -0.1636  0.2856  0.2263
 1752TIP3    H126747   1.601   4.180  16.421  0.2740  1.5073 -0.9181
 1752TIP3    H226748   1.741   4.212  16.374  1.5631  0.2421  1.8056
 1753TIP3   OH226749   4.979   3.710  14.709 -0.0514 -0.6089 -0.0747
 1753TIP3    H126750   4.951   3.797  14.681 -1.1916 -0.1821  2.1816
 1753TIP3    H226751   4.915   3.650  14.670  0.5189 -0.4480 -1.3222
 1754TIP3   OH226752   1.950   4.601  12.257  0.1860 -0.5316  0.1426
 1754TIP3    H126753   1.985   4.668  12.199 -0.6661 -0.3575 -0.1844
 1754TIP3    H226754   1.917   4.533  12.198  0.1588 -0.7786  0.4424
 1755TIP3   OH226755   5.677   4.186   5.845 -0.5161  0.3053 -0.0791
 1755TIP3    H126756   5.582   4.191   5.838 -0.5014  0.8332  0.0570
 1755TIP3    H226757   5.694   4.174   5.938 -0.4474  0.1697 -0.1078
 1756TIP3   OH226758   0.593   6.205   3.247  0.6299  0.4189  0.1868
 1756TIP3    H126759   0.574   6.151   3.324  1.0245  1.2213  0.8613
 1756TIP3    H226760   0.626   6.287   3.283  0.6191  0.8851 -0.8425
 1757TIP3   OH226761   3.796   3.355  14.330 -0.2072  0.2759 -0.3897
 1757TIP3    H126762   3.743   3.346  14.409  1.8458 -1.2597  0.9267
 1757TIP3    H226763   3.842   3.271  14.323  0.6288  0.8563 -2.4994
 1758TIP3   OH226764   2.102   1.842   5.332  0.5728  0.1076 -0.6948
 1758TIP3    H126765   2.126   1.886   5.251  0.3595  1.1625 -0.1990
 1758TIP3    H226766   2.163   1.878   5.397  0.7300 -0.7119 -0.3726
 1759TIP3   OH226767   6.243   6.517   6.613  0.4695  0.0038  0.3499
 1759TIP3    H126768   6.153   6.502   6.642  0.1755  0.5684 -0.2601
 1759TIP3    H226769   6.255   6.611   6.620  0.8233 -0.0060 -0.1303
 1760TIP3   OH226770   4.313   5.872   5.585  0.1120  0.1105 -0.1674
 1760TIP3    H126771   4.351   5.935   5.647  0.7169 -1.2830  0.9703
 1760TIP3    H226772   4.377   5.800   5.583 -0.8827 -0.7892 -0.8453
 1761TIP3   OH226773   6.167   0.337  11.193 -0.5195  0.6887 -0.0231
 1761TIP3    H126774   6.159   0.334  11.097  0.4081  2.0494 -0.1809
 1761TIP3    H226775   6.088   0.295  11.225  0.2168 -1.9472 -1.3795
 1762TIP3   OH226776   4.245   5.973  10.641  0.5324  0.0330 -0.4021
 1762TIP3    H126777   4.162   5.976  10.593  0.3940  1.4275 -0.0940
 1762TIP3    H226778   4.312   5.991  10.575  0.8074 -2.7804 -1.0195
 1763TIP3   OH226779   0.442   5.403  15.483 -0.4846 -0.1781 -0.2214
 1763TIP3    H126780   0.377   5.401  15.553 -0.1284  0.0202  0.1253
 1763TIP3    H226781   0.453   5.312  15.457  0.8089 -0.5221  1.3498
 1764TIP3   OH226782   0.031   6.341   3.440  0.0662 -0.2176 -0.3808
 1764TIP3    H126783   0.085   6.415   3.468 -1.5145  0.1304  2.0670
 1764TIP3    H226784   0.084   6.264   3.462 -0.1018  0.1250  1.3845
 1765TIP3   OH226785   6.686   3.468  14.529  0.0730 -0.0748 -0.2471
 1765TIP3    H126786   6.740   3.482  14.451 -0.5436 -0.6832 -0.7927
 1765TIP3    H226787   6.747   3.431  14.593  0.1722 -1.4076 -1.0793
 1766TIP3   OH226788   2.385   0.808   3.756 -0.0478  0.1405  0.3595
 1766TIP3    H126789   2.466   0.759   3.747  0.0117  0.1506  0.8466
 1766TIP3    H226790   2.326   0.749   3.802 -0.0226  0.4687  0.8168
 1767TIP3   OH226791   6.669   4.843   5.417  0.8044  0.3490  0.2705
 1767TIP3    H126792   6.585   4.876   5.449 -0.0738 -0.5024 -1.0591
 1767TIP3    H226793   6.670   4.865   5.324  3.6279  3.4581  0.8501
 1768TIP3   OH226794   1.427   4.361   4.967 -0.4327 -0.6956  0.1617
 1768TIP3    H126795   1.486   4.397   4.901 -0.0033 -2.5934 -0.5490
 1768TIP3    H226796   1.439   4.417   5.043  1.5793 -0.4694 -0.2759
 1769TIP3   OH226797   1.491   5.097   1.628  0.1257  0.2740 -0.0184
 1769TIP3    H126798   1.447   5.058   1.552  0.8743 -0.0966 -0.2746
 1769TIP3    H226799   1.467   5.041   1.702 -1.0387  0.9447  0.1265
 1770TIP3   OH226800   1.186   4.242  12.927  0.2711  0.2136  0.0249
 1770TIP3    H126801   1.185   4.161  12.977 -0.8628 -0.1368 -0.5455
 1770TIP3    H226802   1.162   4.216  12.838  0.4426  1.0970 -0.2932
 1771TIP3   OH226803   1.340   1.940  11.238  0.7738 -0.0837  0.0457
 1771TIP3    H126804   1.310   1.962  11.150 -0.4565 -1.0002  0.2103
 1771TIP3    H226805   1.432   1.967  11.240  0.2945  1.7559 -0.8665
 1772TIP3   OH226806   3.219   0.799  14.271 -0.3617  0.4767 -0.4784
 1772TIP3    H126807   3.219   0.866  14.340  0.8777 -0.3579  0.3778
 1772TIP3    H226808   3.190   0.719  14.315  1.6263 -0.3514 -0.5656
 1773TIP3   OH226809   5.910   1.093   1.172 -0.2857 -0.2128 -0.4176
 1773TIP3    H126810   5.953   1.097   1.257  1.1312  0.7309 -1.1356
 1773TIP3    H226811   5.875   1.004   1.167  0.4571 -0.5947  0.7503
 1774TIP3   OH226812   2.163   4.574   0.491 -0.3253  1.2912 -0.0215
 1774TIP3    H126813   2.202   4.648   0.537 -3.4895  2.3766  1.2332
 1774TIP3    H226814   2.114   4.613   0.419 -0.4504  0.1968 -0.5543
 1775TIP3   OH226815   5.548   3.171   4.359  0.2292  0.4456  0.8297
 1775TIP3    H126816   5.556   3.125   4.275  0.0058  0.1583  0.9656
 1775TIP3    H226817   5.481   3.238   4.344  0.8944  1.0581  0.4910
 1776TIP3   OH226818   0.006   5.421  16.968 -0.1360  0.2836 -0.0327
 1776TIP3    H126819  -0.015   5.492  16.908 -0.2535  0.0243 -0.3026
 1776TIP3    H226820   0.094   5.441  16.999  0.1896  0.0760 -0.7995
 1777TIP3   OH226821   3.080   2.514  13.669  0.0249  0.0117  0.1463
 1777TIP3    H126822   3.105   2.575  13.739  1.5737  0.8689 -1.0795
 1777TIP3    H226823   3.158   2.461  13.654 -0.9719 -1.6157  0.4767
 1778TIP3   OH226824   3.228   6.023   5.102 -0.3444  0.3790 -0.1513
 1778TIP3    H126825   3.171   6.003   5.028  0.3939  0.6979 -0.8214
 1778TIP3    H226826   3.269   6.107   5.079  0.3609  0.1796  0.3292
 1779TIP3   OH226827   5.347   4.427   0.468 -0.0717 -0.0778  0.3401
 1779TIP3    H126828   5.390   4.503   0.429 -0.0234 -0.6725 -0.8207
 1779TIP3    H226829   5.347   4.445   0.562  0.8358  0.8954  0.1778
 1780TIP3   OH226830   0.169   4.051  13.209  0.0612  0.1803 -0.0840
 1780TIP3    H126831   0.106   4.108  13.166 -0.1057 -0.5515 -0.8400
 1780TIP3    H226832   0.182   3.978  13.148  0.6811 -0.3180  0.6106
 1781TIP3   OH226833   5.173   4.656   5.551  0.4626  0.4813  0.5513
 1781TIP3    H126834   5.181   4.750   5.534 -1.0746  0.5487  0.0786
 1781TIP3    H226835   5.087   4.633   5.517  1.0077 -1.1994  0.2318
 1782TIP3   OH226836   0.185   2.027   0.320 -0.1275 -0.4726  0.0375
 1782TIP3    H126837   0.100   2.050   0.359 -0.2040 -1.2989  0.3858
 1782TIP3    H226838   0.174   2.041   0.226 -0.3268  0.3884  0.1811
 1783TIP3   OH226839   2.755   6.586   3.749  0.4612 -0.1687  0.4728
 1783TIP3    H126840   2.736   6.512   3.690  1.8708  0.6167 -1.0372
 1783TIP3    H226841   2.762   6.662   3.691 -1.4507  1.3180  2.0384
 1784TIP3   OH226842   2.036   2.899   2.020 -0.3006  0.1859 -0.5294
 1784TIP3    H126843   1.979   2.826   2.043  0.2860 -0.1924 -0.2501
 1784TIP3    H226844   2.043   2.951   2.100 -2.4770  1.8091 -1.2753
 1785TIP3   OH226845   4.432   2.231  11.213 -0.2558  0.0608  0.1136
 1785TIP3    H126846   4.516   2.198  11.181  0.2440  1.3763  0.0389
 1785TIP3    H226847   4.413   2.175  11.289 -0.2541 -1.4599 -0.9494
 1786TIP3   OH226848   2.651   0.577   5.728  0.1307 -0.0454 -0.2978
 1786TIP3    H126849   2.606   0.510   5.780  0.4094 -0.4979 -0.6380
 1786TIP3    H226850   2.734   0.537   5.703  0.4626  0.5623 -0.1954
 1787TIP3   OH226851   2.886   5.465  15.994  0.2376 -0.5401 -0.1964
 1787TIP3    H126852   2.924   5.394  15.943 -1.0601 -0.2280 -1.6918
 1787TIP3    H226853   2.791   5.452  15.986 -0.0706 -1.0941  3.0926
 1788TIP3   OH226854   1.327   1.301  10.623 -0.1549 -0.1176  0.2686
 1788TIP3    H126855   1.321   1.217  10.579 -1.2510  0.0242  0.1136
 1788TIP3    H226856   1.395   1.349  10.575 -0.7110 -0.2901 -0.7202
 1789TIP3   OH226857   0.631   1.886  12.935  0.1336 -0.0711  0.4912
 1789TIP3    H126858   0.623   1.883  12.840 -1.0223 -0.5392  0.5929
 1789TIP3    H226859   0.545   1.859  12.968  0.5745 -0.1070  1.6720
 1790TIP3   OH226860   2.290   3.656   3.938  0.1616 -0.3587  0.1963
 1790TIP3    H126861   2.265   3.742   3.971  3.9940  1.2418 -0.4700
 1790TIP3    H226862   2.219   3.632   3.879 -1.8393  1.5238  1.6552
 1791TIP3   OH226863   4.875   2.782  13.935 -0.2308  0.3962  0.1985
 1791TIP3    H126864   4.825   2.711  13.974  1.3280 -0.1576  1.3197
 1791TIP3    H226865   4.859   2.774  13.841  0.5993 -2.0406  0.1962
 1792TIP3   OH226866   3.668   6.553  14.640  0.3060  0.2980  0.0198
 1792TIP3    H126867   3.740   6.587  14.586  1.0046  0.3859  0.9788
 1792TIP3    H226868   3.705   6.549  14.728 -0.2165 -1.5474  0.1936
 1793TIP3   OH226869   2.009   2.747  15.618  0.6854 -0.0910 -0.4789
 1793TIP3    H126870   2.028   2.807  15.546  0.0238 -0.9462 -1.3945
 1793TIP3    H226871   2.061   2.669  15.598 -1.0569 -1.1336 -1.1875
 1794TIP3   OH226872   5.701   3.541  16.566 -0.2465  0.1609 -0.4595
 1794TIP3    H126873   5.692   3.633  16.590  0.1483  0.7385 -2.3463
 1794TIP3    H226874   5.612   3.513  16.547 -0.4369 -0.0273  0.6370
 1795TIP3   OH226875   4.529   3.575  14.410 -0.2103  0.5266  0.0569
 1795TIP3    H126876   4.616   3.568  14.449  0.3119  2.0025 -0.7325
 1795TIP3    H226877   4.521   3.497  14.355  0.9850  0.7689 -0.5056
 1796TIP3   OH226878   1.036   4.484   6.324 -0.3856 -0.0352  0.4904
 1796TIP3    H126879   0.951   4.443   6.343 -0.2241  0.5460  2.7609
 1796TIP3    H226880   1.014   4.561   6.273 -0.9039 -1.5322 -1.6667
 1797TIP3   OH226881   1.102   1.446  12.935 -0.2935  0.3778 -0.4272
 1797TIP3    H126882   1.095   1.505  13.009 -1.5403 -1.1272  0.7332
 1797TIP3    H226883   1.028   1.470  12.879 -0.5066  0.2514 -0.2028
 1798TIP3   OH226884   0.362   3.275  13.353  0.4593  0.9215 -0.6025
 1798TIP3    H126885   0.280   3.287  13.402  0.4641  0.8442 -0.5746
 1798TIP3    H226886   0.390   3.364  13.331  0.1033  0.9267 -1.0524
 1799TIP3   OH226887   5.229   4.209  16.934 -0.3627 -0.7918 -0.7181
 1799TIP3    H126888   5.139   4.230  16.959 -0.1832  0.0977 -0.7874
 1799TIP3    H226889   5.272   4.189  17.017  0.2259  2.1373 -0.1978
 1800TIP3   OH226890   0.151   1.349  13.462  0.2840 -0.1494  0.5194
 1800TIP3    H126891   0.138   1.256  13.481  0.9602 -0.0162  1.7370
 1800TIP3    H226892   0.168   1.388  13.547  1.3569  0.8667 -0.1341
 1801TIP3   OH226893   3.662   0.492  14.362 -0.4793  0.0009 -0.2089
 1801TIP3    H126894   3.705   0.564  14.316 -0.6161  0.5364  0.4939
 1801TIP3    H226895   3.695   0.413  14.319  1.2675  0.3876  0.3353
 1802TIP3   OH226896   0.855   2.944  14.445  0.1636  0.2271  0.3942
 1802TIP3    H126897   0.779   2.942  14.503  0.7797 -4.9842  1.4586
 1802TIP3    H226898   0.817   2.953  14.357 -1.3930  0.6867  1.0745
 1803TIP3   OH226899   1.882   6.482   1.524  0.0047  0.1253  0.3957
 1803TIP3    H126900   1.910   6.399   1.484 -0.8847  0.0635 -0.1196
 1803TIP3    H226901   1.935   6.489   1.603  0.5975 -0.5853  0.0799
 1804TIP3   OH226902   1.082   2.045  10.384  0.5039 -0.8095 -0.8391
 1804TIP3    H126903   1.107   1.974  10.444 -1.5453 -1.4840 -0.6915
 1804TIP3    H226904   1.108   2.014  10.298  2.2541 -0.4189 -0.4985
 1805TIP3   OH226905   2.214   1.627  16.833 -0.1223  0.7459 -0.4135
 1805TIP3    H126906   2.263   1.633  16.751 -0.3006  2.5674 -0.4428
 1805TIP3    H226907   2.254   1.694  16.889  1.3971 -1.8469  1.8017
 1806TIP3   OH226908   3.026   2.589   4.201  0.2291  0.4412  0.4680
 1806TIP3    H126909   2.994   2.579   4.290 -0.9831  0.7618  0.0834
 1806TIP3    H226910   2.990   2.514   4.153  2.2184 -0.6545  0.5771
 1807TIP3   OH226911   3.532   5.145  15.252 -0.0280 -0.1043  0.0553
 1807TIP3    H126912   3.559   5.059  15.285 -0.2730  0.4467  1.7590
 1807TIP3    H226913   3.478   5.125  15.175 -1.3316 -1.5734  1.2864
 1808TIP3   OH226914   3.444   1.280  15.796 -0.5694  0.0161  0.1398
 1808TIP3    H126915   3.425   1.373  15.813 -0.0411  1.2623 -4.5033
 1808TIP3    H226916   3.539   1.273  15.808 -0.4189  0.4635 -0.6948
 1809TIP3   OH226917   0.960   0.752   0.462  0.2232  0.5107  0.2848
 1809TIP3    H126918   0.893   0.711   0.516 -0.2435 -0.9447 -1.3018
 1809TIP3    H226919   1.022   0.682   0.442  0.3121  0.9529 -1.1373
 1810TIP3   OH226920   3.322   4.162  15.049  0.3220 -0.3363 -0.7693
 1810TIP3    H126921   3.284   4.242  15.014 -1.9214 -0.8017  0.3820
 1810TIP3    H226922   3.334   4.105  14.973 -0.8947  0.0132 -1.2390
 1811TIP3   OH226923   1.329   1.009   2.874  0.1572 -0.9719 -1.0083
 1811TIP3    H126924   1.346   1.103   2.873  0.2595 -0.9253  0.6878
 1811TIP3    H226925   1.410   0.970   2.908  0.1103 -1.6824 -1.6712
 1812TIP3   OH226926   1.041   6.629  16.932 -0.2416  0.3333 -0.1003
 1812TIP3    H126927   1.050   6.718  16.965  3.0294  0.1960 -0.3548
 1812TIP3    H226928   1.066   6.634  16.840 -0.7946 -0.7379 -0.3261
 1813TIP3   OH226929   0.897   3.528  14.994  0.0530  0.1504  0.7861
 1813TIP3    H126930   0.905   3.621  14.970  0.4205  0.0020  0.3238
 1813TIP3    H226931   0.897   3.528  15.090 -3.7863  0.9798  0.9543
 1814TIP3   OH226932   0.422   4.368  12.265  0.2559  0.5187  0.1309
 1814TIP3    H126933   0.383   4.452  12.243 -2.3121 -0.2741  1.1764
 1814TIP3    H226934   0.417   4.317  12.183  2.1785  1.4208 -0.6110
 1815TIP3   OH226935   2.138   6.565  12.503  0.1846 -0.3039  0.6057
 1815TIP3    H126936   2.115   6.608  12.421  1.8653 -0.1920  0.1574
 1815TIP3    H226937   2.233   6.573  12.509  0.1022 -0.1455  2.6590
 1816TIP3   OH226938   6.509   0.448  14.836  0.0806 -0.1855 -0.4283
 1816TIP3    H126939   6.510   0.501  14.756  3.6179 -0.3809 -0.7048
 1816TIP3    H226940   6.426   0.401  14.833 -0.3515  0.5383 -3.5123
 1817TIP3   OH226941   3.932   4.349  11.096  0.4175 -0.5819  0.3379
 1817TIP3    H126942   3.991   4.299  11.152  0.8964 -0.1724  0.2119
 1817TIP3    H226943   3.984   4.368  11.017 -0.4283 -1.6380 -0.5045
 1818TIP3   OH226944   5.774   2.760   2.755 -0.1958 -0.2147 -0.2448
 1818TIP3    H126945   5.778   2.842   2.707 -1.2439 -0.5144 -0.8893
 1818TIP3    H226946   5.842   2.768   2.822  0.3002  0.8105 -0.8417
 1819TIP3   OH226947   6.091   0.900   4.910  0.3682  0.4720  0.4315
 1819TIP3    H126948   6.048   0.985   4.914  0.6351  0.6232  0.0671
 1819TIP3    H226949   6.025   0.839   4.944 -0.0957  0.7178 -0.0207
 1820TIP3   OH226950   0.569   4.988  13.069  0.1436 -0.1987  0.1887
 1820TIP3    H126951   0.477   4.968  13.085 -0.3154 -0.0560 -1.9264
 1820TIP3    H226952   0.617   4.912  13.104 -1.2079 -2.9688 -3.3112
 1821TIP3   OH226953   3.781   6.439  16.147 -1.1670 -0.4843 -0.1015
 1821TIP3    H126954   3.785   6.377  16.219 -1.2727  0.3119  0.6167
 1821TIP3    H226955   3.743   6.518  16.187 -1.4592 -0.1163 -1.0883
 1822TIP3   OH226956   2.515   1.427   0.829  0.2692 -0.1997  0.4631
 1822TIP3    H126957   2.606   1.397   0.830  0.0199 -0.9784  1.3688
 1822TIP3    H226958   2.518   1.513   0.787  0.9757 -1.5916 -2.6755
 1823TIP3   OH226959   4.397   1.787  12.857  0.1630 -0.0664  0.0880
 1823TIP3    H126960   4.421   1.866  12.906  2.6310 -0.6056 -0.1089
 1823TIP3    H226961   4.472   1.771  12.800 -1.4255 -1.0941 -1.8123
 1824TIP3   OH226962   0.212   5.688   0.078 -0.3320  0.1854 -0.2155
 1824TIP3    H126963   0.172   5.737   0.006  1.3802  1.3535 -0.4335
 1824TIP3    H226964   0.224   5.753   0.148  0.8463 -0.1953 -0.0423
 1825TIP3   OH226965   2.017   2.729  14.332 -0.1119 -0.3756  0.1295
 1825TIP3    H126966   1.993   2.669  14.262 -2.0853 -0.3555  0.7221
 1825TIP3    H226967   1.941   2.729  14.391  0.0513  2.2391  0.4687
 1826TIP3   OH226968   4.837   0.791  12.646  0.0026  0.1228  0.2571
 1826TIP3    H126969   4.809   0.771  12.557  1.0713  2.3924 -0.6844
 1826TIP3    H226970   4.920   0.744  12.657  0.0389  0.1129 -0.0691
 1827TIP3   OH226971   4.397   4.681   2.429  0.8675  0.2639  0.6661
 1827TIP3    H126972   4.403   4.744   2.501  0.9211  0.9788  0.0436
 1827TIP3    H226973   4.377   4.734   2.352 -0.1018 -0.5915  0.3091
 1828TIP3   OH226974   5.371   3.095  16.075  0.1807 -0.6478  0.7844
 1828TIP3    H126975   5.321   3.129  16.148  0.8196  0.8426  0.5506
 1828TIP3    H226976   5.364   3.162  16.007 -1.2253 -2.4150 -0.9327
 1829TIP3   OH226977   3.775   3.569  13.425 -0.3649  0.0737 -0.3660
 1829TIP3    H126978   3.759   3.655  13.386 -1.8243  0.0473  0.1188
 1829TIP3    H226979   3.842   3.530  13.369 -1.4889  0.5252 -2.1217
 1830TIP3   OH226980   3.661   0.827   6.160 -0.0361  0.5894  0.0410
 1830TIP3    H126981   3.661   0.738   6.196  0.1663  0.0951 -1.1479
 1830TIP3    H226982   3.742   0.832   6.109 -0.2199  1.3473 -0.1847
 1831TIP3   OH226983   1.040   0.627   5.280 -0.2561 -0.4105  0.4289
 1831TIP3    H126984   1.042   0.595   5.370 -2.9842 -0.5744  0.5076
 1831TIP3    H226985   1.102   0.700   5.279  1.6602 -1.8933  1.7524
 1832TIP3   OH226986   5.581   1.356  17.207 -0.4442  0.8644 -0.4281
 1832TIP3    H126987   5.512   1.388  17.149 -0.8702  2.0900  0.7122
 1832TIP3    H226988   5.535   1.312  17.278 -0.1084  2.0696  0.5684
 1833TIP3   OH226989   1.170   0.799   0.651  0.1746  0.3492 -0.1815
 1833TIP3    H126990   1.132   0.719   0.614  2.2358 -0.9502  0.3611
 1833TIP3    H226991   1.234   0.827   0.585  0.3454  0.8308  0.1909
 1834TIP3   OH226992   0.281   6.778   4.622  0.1694  0.4934 -0.1054
 1834TIP3    H126993   0.350   6.816   4.567  0.7481  1.1362  1.0221
 1834TIP3    H226994   0.261   6.694   4.581  1.1052  0.6228 -0.8660
 1835TIP3   OH226995   5.210   6.374   3.886 -0.1309  0.2274  0.0215
 1835TIP3    H126996   5.306   6.374   3.889 -0.1205  0.0251 -0.2879
 1835TIP3    H226997   5.188   6.301   3.829 -0.4835  0.0183  0.4192
 1836TIP3   OH226998   5.259   1.266   1.843  0.3307  0.0532 -0.2730
 1836TIP3    H126999   5.325   1.201   1.869  0.1718 -0.5921 -1.3996
 1836TIP3    H227000   5.185   1.249   1.901  0.0068 -1.2995 -1.0389
 1837TIP3   OH227001   1.751   5.929   5.778  0.1770 -0.1865 -0.1983
 1837TIP3    H127002   1.656   5.933   5.766  0.2367 -1.4167 -1.4159
 1837TIP3    H227003   1.764   5.944   5.871 -1.4618 -2.7496  0.5662
 1838TIP3   OH227004   2.043   4.247  15.324  0.5110  0.3435 -0.7011
 1838TIP3    H127005   2.015   4.321  15.377  0.7706  0.8021 -1.1908
 1838TIP3    H227006   2.043   4.172  15.384  0.5512  0.8006 -0.1249
 1839TIP3   OH227007   5.148   1.146   0.565 -0.6790 -0.2824 -0.4061
 1839TIP3    H127008   5.078   1.116   0.507 -2.5084  0.8242  1.1251
 1839TIP3    H227009   5.138   1.094   0.644  0.0164  0.1302 -0.0408
 1840TIP3   OH227010   0.248   4.365   1.862 -0.7760  0.2217 -0.1876
 1840TIP3    H127011   0.333   4.329   1.890  0.1274  1.6274 -1.0087
 1840TIP3    H227012   0.207   4.293   1.813 -0.0190 -0.4531  0.1489
 1841TIP3   OH227013   1.700   2.870  15.921 -0.2486  0.0186 -0.2384
 1841TIP3    H127014   1.650   2.900  15.997  0.1040 -1.5704  0.6783
 1841TIP3    H227015   1.726   2.780  15.944 -0.1656 -0.5192 -2.2594
 1842TIP3   OH227016   0.287   2.265  11.994  0.2197  0.5297  0.1188
 1842TIP3    H127017   0.358   2.221  11.948  0.5747  1.0801  0.1304
 1842TIP3    H227018   0.243   2.317  11.926  0.4623  0.9848  0.3063
 1843TIP3   OH227019   6.158   3.238   1.057  0.1784  0.1412  0.2000
 1843TIP3    H127020   6.159   3.250   1.152 -2.0848 -0.9010  0.4187
 1843TIP3    H227021   6.070   3.207   1.037 -0.1229  2.2823 -2.5228
 1844TIP3   OH227022   4.410   0.331   0.100 -0.1298  0.3817  0.9918
 1844TIP3    H127023   4.340   0.317   0.164 -0.5889 -2.1180  0.0323
 1844TIP3    H227024   4.364   0.348   0.018  0.4156  0.4087  0.6919
 1845TIP3   OH227025   5.159   4.301  10.672  0.1066 -0.4616 -0.6250
 1845TIP3    H127026   5.159   4.205  10.671  1.2436 -0.5039  0.6307
 1845TIP3    H227027   5.220   4.324  10.742  0.4710  1.2001 -1.4523
 1846TIP3   OH227028   2.307   1.761  12.442 -0.1693  0.1499 -0.1388
 1846TIP3    H127029   2.257   1.802  12.513  0.1951 -0.6321  0.5865
 1846TIP3    H227030   2.241   1.736  12.377 -0.4835  1.0618 -0.1816
 1847TIP3   OH227031   3.802   3.247  17.034  0.1931 -0.4741  0.3480
 1847TIP3    H127032   3.850   3.323  17.001  0.6963 -0.0994  1.8941
 1847TIP3    H227033   3.716   3.253  16.992  1.1919 -0.7568 -1.8933
 1848TIP3   OH227034   0.719   3.788  17.259 -0.0446  0.2793 -0.0844
 1848TIP3    H127035   0.728   3.876  17.297  0.8400  0.2569 -0.2181
 1848TIP3    H227036   0.809   3.757  17.250 -0.3544 -0.6467 -0.0411
 1849TIP3   OH227037   1.364   1.982  12.616 -0.5886  0.0662  0.8351
 1849TIP3    H127038   1.296   1.992  12.683 -0.3127 -0.1701  1.1523
 1849TIP3    H227039   1.317   1.948  12.540 -1.0140  0.9464  0.6963
 1850TIP3   OH227040   0.860   1.256   2.447 -0.0873 -0.1313  0.2712
 1850TIP3    H127041   0.836   1.169   2.417  0.3735 -0.2844  0.3370
 1850TIP3    H227042   0.913   1.292   2.376  0.8791 -0.4373  0.8163
 1851TIP3   OH227043   2.972   5.454  13.230 -0.0692  0.5420  0.9708
 1851TIP3    H127044   3.057   5.449  13.186 -1.1229  0.7378 -1.1997
 1851TIP3    H227045   2.976   5.537  13.278  0.5248  1.1666 -0.1130
 1852TIP3   OH227046   0.487   6.702   6.072 -0.0092 -0.0979  0.5488
 1852TIP3    H127047   0.495   6.745   5.987 -1.0219 -0.4015  0.2908
 1852TIP3    H227048   0.423   6.755   6.120  1.8427  1.1188  1.8113
 1853TIP3   OH227049   5.527   5.321   2.703  0.0761 -0.0762 -0.6034
 1853TIP3    H127050   5.564   5.406   2.727 -0.6192 -0.1998  1.0659
 1853TIP3    H227051   5.585   5.287   2.635  1.6116  0.7962  0.2229
 1854TIP3   OH227052   0.693   6.774   5.718  0.0107 -0.2160 -0.1490
 1854TIP3    H127053   0.640   6.818   5.784  2.2369 -0.5079  1.9599
 1854TIP3    H227054   0.685   6.829   5.640 -0.8097  1.4395  1.0533
 1855TIP3   OH227055   0.573   0.571   0.754  0.2203 -0.1016 -0.2436
 1855TIP3    H127056   0.524   0.604   0.829  2.3639  0.4180  1.0123
 1855TIP3    H227057   0.518   0.501   0.718 -2.1217  1.4676  0.0774
 1856TIP3   OH227058   5.530   0.843  11.739 -0.2559 -0.3607  0.1030
 1856TIP3    H127059   5.614   0.809  11.708  0.5770  1.0062  0.7486
 1856TIP3    H227060   5.536   0.937  11.723 -0.5935  0.1236  2.5152
 1857TIP3   OH227061   2.033   3.532   0.634  0.4654 -0.2604 -0.0241
 1857TIP3    H127062   2.112   3.545   0.581  0.3599 -0.8892 -0.3476
 1857TIP3    H227063   1.983   3.612   0.622  0.0458 -0.7123 -1.5960
 1858TIP3   OH227064   1.446   2.341   4.846  0.5039 -0.0590  0.3882
 1858TIP3    H127065   1.380   2.274   4.832  0.2713  0.5025 -1.5153
 1858TIP3    H227066   1.468   2.335   4.939 -1.4411 -0.9633  0.8279
 1859TIP3   OH227067   2.424   5.322   1.158 -0.1260 -0.2098  0.7832
 1859TIP3    H127068   2.424   5.377   1.080 -1.6457 -1.7655 -0.4104
 1859TIP3    H227069   2.456   5.237   1.127 -1.6112 -1.1137  1.5901
 1860TIP3   OH227070   4.108   0.454   5.762 -0.1831  0.0790  0.1435
 1860TIP3    H127071   4.098   0.508   5.841  0.0466 -0.5558  0.6141
 1860TIP3    H227072   4.196   0.417   5.768  0.1425  0.6491 -0.8227
 1861TIP3   OH227073   3.201   4.836   5.943  0.4851 -0.2143  0.3685
 1861TIP3    H127074   3.243   4.846   6.028  2.5509 -1.1113 -0.4871
 1861TIP3    H227075   3.114   4.801   5.963  0.4839  0.7194  2.1525
 1862TIP3   OH227076   2.743   5.054  16.349  0.2590 -0.3261  0.1607
 1862TIP3    H127077   2.777   4.978  16.302 -2.1337 -0.3942 -1.6066
 1862TIP3    H227078   2.652   5.033  16.367 -0.1909  1.7050  0.5330
 1863TIP3   OH227079   1.143   3.556  16.001 -0.5834 -0.1672  0.1632
 1863TIP3    H127080   1.186   3.567  16.086  0.1884  0.6270 -0.3134
 1863TIP3    H227081   1.206   3.590  15.937 -1.5433  0.1531 -0.6408
 1864TIP3   OH227082   0.398   0.636   4.842 -0.0588  0.2900  0.2034
 1864TIP3    H127083   0.371   0.561   4.895  1.0540 -0.5101 -0.3265
 1864TIP3    H227084   0.475   0.605   4.793  0.1931  1.6535 -0.3160
 1865TIP3   OH227085   5.774   3.119   2.369 -0.0681  0.3194  0.3924
 1865TIP3    H127086   5.735   3.074   2.294  0.3953  0.1738  0.2346
 1865TIP3    H227087   5.739   3.208   2.364 -1.3495 -0.1349  0.9780
 1866TIP3   OH227088   1.221   2.334  14.964 -0.4353  0.2816 -0.1817
 1866TIP3    H127089   1.258   2.294  15.042 -1.5375  3.0533  1.9404
 1866TIP3    H227090   1.132   2.357  14.988 -0.3027  2.6932 -1.6354
 1867TIP3   OH227091   4.954   3.880  16.101  0.7209  0.2285 -0.2525
 1867TIP3    H127092   4.892   3.945  16.132  0.3166  1.3708 -3.1594
 1867TIP3    H227093   5.039   3.925  16.103  0.4982  0.7930 -1.8927
 1868TIP3   OH227094   3.302   2.112   0.421  0.2422 -0.1207 -0.4829
 1868TIP3    H127095   3.304   2.204   0.393 -1.2789  0.6330  1.5864
 1868TIP3    H227096   3.317   2.062   0.341 -1.0545  1.8999 -2.1010
 1869TIP3   OH227097   1.895   3.413  14.030  0.1458 -0.2379 -0.3017
 1869TIP3    H127098   1.923   3.492  14.077 -0.4108 -0.4528  0.4111
 1869TIP3    H227099   1.867   3.353  14.099 -1.4776 -0.2631 -0.9462
 1870TIP3   OH227100   6.255   1.954  14.156 -0.3428  0.0276  0.0558
 1870TIP3    H127101   6.281   2.045  14.169 -1.0056  0.1139  0.9115
 1870TIP3    H227102   6.282   1.910  14.237 -1.3819 -0.2003  0.2986
 1871TIP3   OH227103   6.572   2.340  16.788  0.0161  0.0444 -0.2961
 1871TIP3    H127104   6.510   2.362  16.857 -1.7618 -1.0786 -1.4477
 1871TIP3    H227105   6.632   2.277  16.829  0.2254  0.9032  0.7500
 1872TIP3   OH227106   2.672   0.995  11.007  0.5061 -0.3971  0.6594
 1872TIP3    H127107   2.746   0.937  11.026  2.3806  0.9485 -1.8459
 1872TIP3    H227108   2.610   0.939  10.959  0.8240 -1.0690  1.0200
 1873TIP3   OH227109   3.828   0.212   6.498  0.6882 -0.0436 -0.0629
 1873TIP3    H127110   3.762   0.226   6.565 -1.2520  1.6571 -2.1728
 1873TIP3    H227111   3.812   0.124   6.465 -0.9164  0.5231 -0.8776
 1874TIP3   OH227112   6.677   3.186  10.822  0.3441 -0.3919 -0.4567
 1874TIP3    H127113   6.607   3.223  10.769  1.0443 -1.3645 -2.1267
 1874TIP3    H227114   6.718   3.262  10.864 -1.3734  0.2257  0.1711
 1875TIP3   OH227115   2.155   0.164   1.604 -0.0322  0.4842 -0.0956
 1875TIP3    H127116   2.114   0.086   1.642  0.7989 -0.5098 -1.1305
 1875TIP3    H227117   2.099   0.186   1.529  1.3268 -1.0065 -1.6430
 1876TIP3   OH227118   2.254   5.636  14.178 -0.3245 -0.2519  0.8751
 1876TIP3    H127119   2.218   5.657  14.264  0.3957  1.2327  0.8343
 1876TIP3    H227120   2.224   5.706  14.120  0.6358 -0.2850  0.3080
 1877TIP3   OH227121   5.210   2.937   1.165  0.7879 -0.3170  0.0789
 1877TIP3    H127122   5.302   2.962   1.154  0.2800  1.3149 -0.8416
 1877TIP3    H227123   5.181   2.984   1.243  0.7217 -0.7904  0.3408
 1878TIP3   OH227124   5.097   4.150   5.129 -0.3487  0.3251 -0.1280
 1878TIP3    H127125   5.030   4.128   5.064 -0.3014  0.9584 -0.4057
 1878TIP3    H227126   5.134   4.233   5.097 -0.6991  0.9274  0.9903
 1879TIP3   OH227127   6.073   4.523   6.278 -0.4000 -0.1366 -0.8882
 1879TIP3    H127128   6.139   4.567   6.332  0.0607 -0.7225 -0.9611
 1879TIP3    H227129   6.000   4.507   6.337 -0.5577  0.6778 -0.8491
 1880TIP3   OH227130   2.655   3.706   3.407 -0.1783 -0.5628 -0.1649
 1880TIP3    H127131   2.599   3.664   3.342 -1.7474  0.5045  0.4486
 1880TIP3    H227132   2.602   3.777   3.442  1.4482  0.2785  0.7028
 1881TIP3   OH227133   2.311   4.467  13.135 -0.4785 -0.2171  0.4007
 1881TIP3    H127134   2.242   4.463  13.069 -0.5169  1.6479  0.2903
 1881TIP3    H227135   2.264   4.482  13.217 -0.2690 -0.1275  0.5039
 1882TIP3   OH227136   6.450   1.339   3.596 -0.3833  0.3465 -0.2247
 1882TIP3    H127137   6.528   1.295   3.628  0.1895  1.0302 -0.6421
 1882TIP3    H227138   6.379   1.305   3.650  0.5119  1.3423  1.6379
 1883TIP3   OH227139   2.239   2.379   0.107 -0.0771 -0.2751  0.3907
 1883TIP3    H127140   2.192   2.458   0.081 -1.7853 -1.4935 -0.3680
 1883TIP3    H227141   2.219   2.369   0.200  0.7876  0.5732  0.6903
 1884TIP3   OH227142   5.115   6.690   2.328  0.2253 -0.3972  0.4014
 1884TIP3    H127143   5.176   6.648   2.389 -0.2135 -0.1087  1.0540
 1884TIP3    H227144   5.091   6.772   2.371 -0.0018 -0.1295 -0.2200
 1885TIP3   OH227145   3.699   4.508  14.686 -0.2556  0.5344 -0.2399
 1885TIP3    H127146   3.724   4.532  14.775 -0.0276  1.4594 -0.5494
 1885TIP3    H227147   3.629   4.569  14.662 -0.7101 -0.0734 -0.4926
 1886TIP3   OH227148   3.548   4.107  15.709  0.2136 -0.2365 -0.3620
 1886TIP3    H127149   3.522   4.062  15.789  0.5846 -0.2413 -0.2384
 1886TIP3    H227150   3.497   4.066  15.639  0.1015 -0.4281 -0.1651
 1887TIP3   OH227151   3.183   1.406   3.328  0.0674 -0.1330  0.0638
 1887TIP3    H127152   3.217   1.428   3.414  0.6484  0.7626 -0.3812
 1887TIP3    H227153   3.180   1.489   3.280 -2.8572 -0.1289  0.0711
 1888TIP3   OH227154   3.849   1.446  15.338 -0.3047  0.4173 -0.2253
 1888TIP3    H127155   3.759   1.475  15.350 -0.1730  0.6835  0.1135
 1888TIP3    H227156   3.902   1.510  15.386 -0.0230 -0.4249  0.6257
 1889TIP3   OH227157   6.172   3.451   1.564 -0.2544  0.2237  0.3726
 1889TIP3    H127158   6.252   3.501   1.580 -0.6631  0.6628  1.1438
 1889TIP3    H227159   6.154   3.407   1.648  0.5382 -1.9000 -0.5149
 1890TIP3   OH227160   6.465   6.473  11.237 -0.0210  0.0764 -0.3989
 1890TIP3    H127161   6.373   6.448  11.246  0.0416  0.3089  1.2077
 1890TIP3    H227162   6.464   6.554  11.186 -0.8651  0.9948  1.0231
 1891TIP3   OH227163   0.361   1.759   0.056  0.5105 -0.4193 -0.2160
 1891TIP3    H127164   0.446   1.793   0.025  0.3972 -1.1609 -1.4297
 1891TIP3    H227165   0.323   1.719  -0.022 -2.2825  2.4081 -0.5133
 1892TIP3   OH227166   3.983   2.568   3.897  0.2735  0.2492 -0.2269
 1892TIP3    H127167   4.013   2.615   3.976  1.7906  0.1607 -0.7305
 1892TIP3    H227168   3.935   2.493   3.931 -1.0235  1.3943  0.6004
 1893TIP3   OH227169   3.325   2.440  13.063  0.4641 -0.0158 -0.2683
 1893TIP3    H127170   3.412   2.447  13.023  0.6197 -2.7431 -0.5915
 1893TIP3    H227171   3.341   2.448  13.157  1.1684 -1.0291 -0.2874
 1894TIP3   OH227172   5.515   1.194   3.056 -0.3628  0.2533 -0.1141
 1894TIP3    H127173   5.468   1.248   3.119 -1.5786  0.4778 -1.1577
 1894TIP3    H227174   5.455   1.122   3.036 -0.1174  0.3188 -1.1704
 1895TIP3   OH227175   2.039   2.542   3.440  0.2722  0.3379  0.2838
 1895TIP3    H127176   2.024   2.607   3.509  1.0494  1.2954 -0.4230
 1895TIP3    H227177   1.976   2.565   3.371  0.3545  0.1690  0.1515
 1896TIP3   OH227178   1.538   4.661  14.942 -0.1329  0.5169 -0.1159
 1896TIP3    H127179   1.461   4.639  14.889  0.8696  1.2688 -1.9928
 1896TIP3    H227180   1.552   4.754  14.925  3.2254 -0.2668 -2.8221
 1897TIP3   OH227181   3.818   4.531  10.538  0.0668 -0.2382  0.3500
 1897TIP3    H127182   3.912   4.516  10.527  0.2830  0.0955  1.6456
 1897TIP3    H227183   3.812   4.620  10.571 -0.7479 -0.1093 -0.1283
 1898TIP3   OH227184   4.760   5.923   3.019 -1.1519 -0.2707 -0.2179
 1898TIP3    H127185   4.798   5.988   2.959 -0.6527 -0.5583 -0.2254
 1898TIP3    H227186   4.666   5.939   3.017 -0.9764  0.8819  0.2900
 1899TIP3   OH227187   6.534   6.553   5.326 -0.1220  0.3827  0.1678
 1899TIP3    H127188   6.541   6.598   5.410  1.3708  0.9904 -0.2374
 1899TIP3    H227189   6.586   6.473   5.338 -0.2220  0.2844 -0.0492
 1900TIP3   OH227190   6.520   1.331  16.325 -0.3843  0.5694  0.2034
 1900TIP3    H127191   6.465   1.410  16.329 -0.5372  0.4898 -0.2171
 1900TIP3    H227192   6.485   1.274  16.393 -0.3299  0.8264  0.4493
 1901TIP3   OH227193   0.728   4.062   2.181  0.0203  0.4066 -0.4808
 1901TIP3    H127194   0.810   4.108   2.167  0.2580  0.0691 -0.1849
 1901TIP3    H227195   0.734   4.026   2.269 -0.2017 -0.1032 -0.6644
 1902TIP3   OH227196   0.878   1.784  13.801 -0.3065 -0.5609  0.0809
 1902TIP3    H127197   0.851   1.825  13.719 -0.3434  0.3075  0.5202
 1902TIP3    H227198   0.972   1.800  13.805 -0.3008 -0.6266  0.2007
 1903TIP3   OH227199   1.379   2.755  11.084 -0.4987 -0.3380  0.1691
 1903TIP3    H127200   1.460   2.806  11.077 -0.3638 -0.6156 -0.4190
 1903TIP3    H227201   1.397   2.676  11.033 -0.6367 -1.0726  1.2241
 1904TIP3   OH227202   4.076   0.552  11.066  0.2375 -0.3553  0.0054
 1904TIP3    H127203   4.144   0.487  11.049  1.4983  0.8924  0.0866
 1904TIP3    H227204   4.123   0.630  11.094 -1.2800  0.3632  0.6966
 1905TIP3   OH227205   0.456   6.709   1.204 -0.3934 -0.0266 -0.0359
 1905TIP3    H127206   0.407   6.750   1.133  0.9320  1.2237 -0.2640
 1905TIP3    H227207   0.463   6.776   1.271  0.9695 -0.1778  0.0004
 1906TIP3   OH227208   5.700   0.463   1.658 -0.1998 -0.1441  0.0559
 1906TIP3    H127209   5.641   0.426   1.593 -1.1156  1.1049  0.1578
 1906TIP3    H227210   5.706   0.395   1.726 -0.3502 -0.8717 -0.6364
 1907TIP3   OH227211   5.865   2.962  15.859  0.3970 -0.1673 -0.5277
 1907TIP3    H127212   5.839   3.053  15.873  0.7085 -0.2505  0.8105
 1907TIP3    H227213   5.918   2.963  15.779  0.1780  0.7780 -0.6674
 1908TIP3   OH227214   4.722   6.157  15.327  0.1337  0.1912  0.6652
 1908TIP3    H127215   4.647   6.115  15.368 -0.1312  0.5461  0.5473
 1908TIP3    H227216   4.717   6.133  15.235  0.6478 -0.4865  0.7989
 1909TIP3   OH227217   3.289   6.727  16.066 -0.7191  0.7484 -0.3508
 1909TIP3    H127218   3.291   6.768  15.980  1.2518 -0.4579 -0.9442
 1909TIP3    H227219   3.295   6.801  16.128 -0.6185  1.5389 -1.2817
 1910TIP3   OH227220   5.240   3.160  17.217  0.0145  0.2529  0.1261
 1910TIP3    H127221   5.301   3.208  17.272  1.7570 -2.6097  0.9225
 1910TIP3    H227222   5.250   3.198  17.130  1.0392  1.5200  0.7719
 1911TIP3   OH227223   0.796   3.599  10.826 -0.0897 -0.0324  0.7762
 1911TIP3    H127224   0.872   3.556  10.865  0.3060 -0.4648 -0.4114
 1911TIP3    H227225   0.723   3.541  10.844  0.2659 -0.7316  0.0512
 1912TIP3   OH227226   2.876   6.155  12.586  0.0955 -0.2919  0.1862
 1912TIP3    H127227   2.786   6.137  12.613 -0.5209  1.1187 -0.7989
 1912TIP3    H227228   2.897   6.239  12.626 -0.3566  1.1783 -2.4166
 1913TIP3   OH227229   5.028   4.959   5.357  0.0673  0.1763  0.0994
 1913TIP3    H127230   4.994   5.047   5.338 -2.3869 -0.7616 -0.1816
 1913TIP3    H227231   5.122   4.966   5.338  0.5736  3.4592  2.7430
 1914TIP3   OH227232   3.146   2.689  12.432  0.2417 -0.6846 -0.1273
 1914TIP3    H127233   3.080   2.707  12.500 -0.2257  0.0502 -0.7624
 1914TIP3    H227234   3.223   2.740  12.460 -0.8621  1.9772 -1.5762
 1915TIP3   OH227235   5.195   2.927   5.846 -0.3871  0.0345  0.0373
 1915TIP3    H127236   5.242   2.964   5.771 -0.2130 -1.6644 -0.7404
 1915TIP3    H227237   5.261   2.920   5.915 -0.1425  0.0532 -0.1921
 1916TIP3   OH227238   1.745   1.812  14.394  0.7396 -0.5693  0.1331
 1916TIP3    H127239   1.837   1.821  14.416  0.4002 -0.1563  1.4857
 1916TIP3    H227240   1.719   1.728  14.433  0.1498  0.1122  1.2343
 1917TIP3   OH227241   2.751   5.483  16.607 -0.2863 -0.1492 -0.0064
 1917TIP3    H127242   2.699   5.513  16.532  0.4174  0.2065 -0.3610
 1917TIP3    H227243   2.738   5.388  16.609  0.6787 -0.3271 -1.3400
 1918TIP3   OH227244   4.910   1.186   1.041  0.1056  0.4843  0.1435
 1918TIP3    H127245   4.859   1.156   1.116 -1.1459 -1.1195 -1.2838
 1918TIP3    H227246   4.931   1.277   1.061 -1.4763  0.5424  1.7462
 1919TIP3   OH227247   6.482   5.813  13.970 -0.2208  0.1978  0.4074
 1919TIP3    H127248   6.534   5.732  13.968 -1.1157 -0.3782 -1.1981
 1919TIP3    H227249   6.404   5.790  14.020 -0.4193  0.1109  0.0550
 1920TIP3   OH227250   2.498   2.787   1.818 -0.5235 -0.6957 -0.5142
 1920TIP3    H127251   2.488   2.693   1.838  0.5851 -0.6757  0.2168
 1920TIP3    H227252   2.561   2.790   1.747  0.0367 -0.4845 -0.0209
 1921TIP3   OH227253   0.298   2.103  12.361 -0.4149  0.3637  0.0847
 1921TIP3    H127254   0.335   2.018  12.336 -0.0304  0.4525  0.3421
 1921TIP3    H227255   0.212   2.081  12.397 -0.7608  0.1892 -0.8245
 1922TIP3   OH227256   0.831   1.985  15.623 -0.7300  0.2735  0.5771
 1922TIP3    H127257   0.909   2.013  15.672 -0.4222  0.1432  0.1607
 1922TIP3    H227258   0.780   2.065  15.612 -0.1519  0.5650 -0.0627
 1923TIP3   OH227259   2.831   5.148  13.587  0.1840 -0.2492  0.5663
 1923TIP3    H127260   2.823   5.205  13.664 -0.0309  1.1553 -0.4687
 1923TIP3    H227261   2.878   5.200  13.523 -0.3271 -1.1130 -0.5413
 1924TIP3   OH227262   0.382   6.114  12.942 -0.8083  0.1598  0.5919
 1924TIP3    H127263   0.439   6.171  12.889 -1.6849  1.8509  1.4200
 1924TIP3    H227264   0.298   6.114  12.896 -0.7328 -0.7466  0.4327
 1925TIP3   OH227265   0.263   2.408  14.298  0.1481 -0.3297  0.3801
 1925TIP3    H127266   0.348   2.380  14.331  0.7143  1.0082  0.1407
 1925TIP3    H227267   0.277   2.422  14.204 -0.2412  0.1837  0.3889
 1926TIP3   OH227268   2.017   6.787   5.647  0.1331 -0.2819 -0.5846
 1926TIP3    H127269   2.069   6.867   5.656  0.0684 -0.2003 -0.9203
 1926TIP3    H227270   1.967   6.800   5.567 -0.0789 -0.5470 -0.4972
 1927TIP3   OH227271   1.960   1.788  11.171 -0.2248  0.3046 -0.6092
 1927TIP3    H127272   1.893   1.725  11.197  1.6150 -1.2340  0.6863
 1927TIP3    H227273   1.936   1.814  11.083 -1.6383 -1.4483 -0.7888
 1928TIP3   OH227274   2.067   6.457  13.742  0.0415  0.0678  0.7067
 1928TIP3    H127275   2.108   6.384  13.788  2.1414  1.4010  1.1042
 1928TIP3    H227276   1.982   6.467  13.785  0.3332 -1.1786  1.6536
 1929TIP3   OH227277   2.763   2.420   4.844 -0.1562 -0.2535 -0.4321
 1929TIP3    H127278   2.743   2.327   4.841  1.7537 -0.6971 -0.3475
 1929TIP3    H227279   2.779   2.444   4.753 -0.1143 -0.1214 -0.3905
 1930TIP3   OH227280   5.227   3.185  16.280  0.5282 -0.7655  0.3251
 1930TIP3    H127281   5.167   3.259  16.274  2.2332  0.5972 -1.8559
 1930TIP3    H227282   5.222   3.156  16.371  0.2324  2.4343  1.4477
 1931TIP3   OH227283   1.851   4.860   5.662  0.2272 -0.3344  0.1264
 1931TIP3    H127284   1.809   4.800   5.600  0.6913 -1.2505  0.6861
 1931TIP3    H227285   1.822   4.829   5.748  2.7268 -1.5702  0.5993
 1932TIP3   OH227286   1.298   1.142  15.907  0.4783  0.4262 -0.7613
 1932TIP3    H127287   1.370   1.204  15.922 -0.7670  1.8972 -0.6519
 1932TIP3    H227288   1.259   1.171  15.824 -0.4018  0.0782 -0.4774
 1933TIP3   OH227289   4.169   3.685   0.509  0.6088 -0.1919 -0.1924
 1933TIP3    H127290   4.127   3.759   0.553  1.6153  0.3042 -0.0378
 1933TIP3    H227291   4.160   3.704   0.416  1.9199  0.7478 -0.1420
 1934TIP3   OH227292   2.939   5.282   3.337  0.4966  0.1070  0.1485
 1934TIP3    H127293   3.008   5.311   3.277  0.2968  0.7203  0.2124
 1934TIP3    H227294   2.978   5.290   3.424 -0.1392  1.9413  0.3158
 1935TIP3   OH227295   3.758   1.239  11.237  0.7259 -0.0211 -0.7501
 1935TIP3    H127296   3.831   1.242  11.299 -1.3263 -1.2456  1.9273
 1935TIP3    H227297   3.689   1.289  11.279 -0.9170 -1.3137 -1.7803
 1936TIP3   OH227298   5.367   5.988  11.362  0.0910  0.3650  0.3104
 1936TIP3    H127299   5.310   5.915  11.342  0.9073 -0.3426  0.4947
 1936TIP3    H227300   5.348   6.054  11.295 -2.6412  1.1672  1.7285
 1937TIP3   OH227301   1.398   2.303  11.911 -0.8374 -0.0952 -0.1957
 1937TIP3    H127302   1.354   2.379  11.873  0.3329  0.5756 -0.2754
 1937TIP3    H227303   1.387   2.313  12.005 -0.1235  0.5573 -0.1697
 1938TIP3   OH227304   5.923   2.822  16.086  0.3606 -0.5121 -0.0336
 1938TIP3    H127305   5.906   2.860  16.000 -1.2431 -1.4334 -0.1641
 1938TIP3    H227306   5.870   2.874  16.146 -1.4630 -2.0935 -0.1489
 1939TIP3   OH227307   0.703   0.914   0.726 -0.4116  0.1556 -0.3572
 1939TIP3    H127308   0.611   0.920   0.748 -0.2068  1.1812  0.2825
 1939TIP3    H227309   0.710   0.836   0.671 -1.4619 -0.6174  0.5663
 1940TIP3   OH227310   5.022   4.743  15.358 -0.0490 -0.0674 -0.2813
 1940TIP3    H127311   4.950   4.741  15.295 -0.4990  1.5096  0.1429
 1940TIP3    H227312   5.004   4.819  15.413  0.5068 -1.1729  1.5524
 1941TIP3   OH227313   4.536   4.099  16.176  0.6546 -0.3752  0.0471
 1941TIP3    H127314   4.609   4.094  16.238 -0.0577  0.1275  0.9568
 1941TIP3    H227315   4.482   4.023  16.197  0.0159  0.2073  0.5826
 1942TIP3   OH227316   1.467   1.335   4.475 -0.1726  0.4387  0.2527
 1942TIP3    H127317   1.383   1.354   4.434  0.7136 -0.1311 -1.9676
 1942TIP3    H227318   1.446   1.276   4.547 -1.4729 -1.9668 -1.9330
 1943TIP3   OH227319   6.077   6.084   3.364 -0.3855  0.0039 -0.4097
 1943TIP3    H127320   6.002   6.059   3.310 -0.7591  0.7189 -0.2195
 1943TIP3    H227321   6.065   6.036   3.446 -1.6176  1.4981  0.3274
 1944TIP3   OH227322   6.555   0.025  16.458  0.2753  0.2104  0.5682
 1944TIP3    H127323   6.595   0.110  16.477 -0.1133  1.2729 -2.8299
 1944TIP3    H227324   6.617  -0.018  16.399 -1.0759 -0.3968 -0.4583
 1945TIP3   OH227325   3.391   3.923  13.455 -0.2310 -0.5465  0.5177
 1945TIP3    H127326   3.311   3.876  13.432  0.1568 -1.1041  0.3075
 1945TIP3    H227327   3.423   3.881  13.534 -1.3851  1.1660  1.9720
 1946TIP3   OH227328   2.731   5.745   1.028 -0.0963 -0.0377  0.0101
 1946TIP3    H127329   2.703   5.728   1.118 -0.0663 -1.1590 -0.1785
 1946TIP3    H227330   2.772   5.664   1.000 -0.6640  0.0821 -1.2291
 1947TIP3   OH227331   1.911   3.788   5.913  0.0801 -0.1885 -0.4855
 1947TIP3    H127332   1.960   3.866   5.939 -1.0923 -0.0923  1.6473
 1947TIP3    H227333   1.940   3.770   5.824  2.7724  0.7801  0.1119
 1948TIP3   OH227334   2.612   0.609  12.629  0.3354 -0.5302  0.2978
 1948TIP3    H127335   2.681   0.646  12.573 -1.5407  1.8573 -0.6152
 1948TIP3    H227336   2.568   0.544  12.574  1.8058 -2.1078  0.9048
 1949TIP3   OH227337   4.565   2.293  16.011  0.1147 -0.0509  0.3470
 1949TIP3    H127338   4.551   2.377  16.056  0.1305  1.0119 -1.5303
 1949TIP3    H227339   4.509   2.298  15.933 -0.1367 -1.9417  0.3735
 1950TIP3   OH227340   0.914   5.025   3.591  0.2473  0.4146 -0.3410
 1950TIP3    H127341   0.883   4.999   3.505  1.0983 -0.0557 -0.5172
 1950TIP3    H227342   1.006   5.047   3.578  0.1699  1.1538  0.2877
 1951TIP3   OH227343   0.275   3.493   6.365  0.1462 -0.5808 -0.3837
 1951TIP3    H127344   0.270   3.398   6.366 -0.8477 -0.5402  0.9115
 1951TIP3    H227345   0.340   3.515   6.432  0.4241 -0.3460 -0.7253
 1952TIP3   OH227346   4.952   1.777   0.557 -0.2042 -0.0183  0.3979
 1952TIP3    H127347   4.857   1.774   0.546 -0.2414  1.5570  0.0052
 1952TIP3    H227348   4.980   1.685   0.557 -1.7386 -0.5113  0.7391
 1953TIP3   OH227349   6.111   2.125  11.860  0.0678  0.0062  0.1586
 1953TIP3    H127350   6.198   2.095  11.833 -0.5181 -1.8357  0.1514
 1953TIP3    H227351   6.127   2.207  11.907  1.6366  0.5026 -1.1713
 1954TIP3   OH227352   6.099   6.808   0.104 -0.5191  0.0561  0.2355
 1954TIP3    H127353   6.107   6.803   0.009  1.2888  0.5003  0.3439
 1954TIP3    H227354   6.181   6.772   0.138  0.3438  2.9740  1.5377
 1955TIP3   OH227355   4.944   4.150   1.811  0.0332 -0.6798  0.1793
 1955TIP3    H127356   4.974   4.211   1.743 -3.6336 -0.6719 -1.6758
 1955TIP3    H227357   4.938   4.065   1.766  0.7457 -1.4559  1.4873
 1956TIP3   OH227358   0.670   1.764  17.235  0.0952 -0.9028  1.1046
 1956TIP3    H127359   0.709   1.815  17.164  0.2496 -0.7884  1.2724
 1956TIP3    H227360   0.677   1.673  17.205  1.9799 -1.0485  1.8263
 1957TIP3   OH227361   0.501   3.854   5.047  0.0032 -0.1783  0.1877
 1957TIP3    H127362   0.478   3.904   4.968 -1.8538 -0.0849  0.7467
 1957TIP3    H227363   0.502   3.919   5.117  0.2546 -0.4977  0.4838
 1958TIP3   OH227364   5.000   3.511   1.535  0.9138 -0.2926 -0.1888
 1958TIP3    H127365   5.091   3.516   1.567  0.3498  0.2441  1.4734
 1958TIP3    H227366   4.999   3.565   1.456  2.0221 -0.2142 -0.1645
 1959TIP3   OH227367   0.857   5.476   5.246 -0.0218  0.3225  0.3294
 1959TIP3    H127368   0.828   5.560   5.283  0.7930  0.7570  0.0107
 1959TIP3    H227369   0.888   5.498   5.159 -0.1377 -0.3845  0.1060
 1960TIP3   OH227370   3.620   1.742   3.450 -0.4166 -0.4004  0.1654
 1960TIP3    H127371   3.538   1.719   3.406 -0.4461  0.8956 -0.4979
 1960TIP3    H227372   3.637   1.832   3.423  1.0534 -0.5360  0.5699
 1961TIP3   OH227373   5.681   3.405   4.703 -0.0039 -0.0990  0.4627
 1961TIP3    H127374   5.623   3.342   4.660 -0.9768  0.0887  1.4536
 1961TIP3    H227375   5.667   3.391   4.796  1.9817 -0.4037  0.7536
 1962TIP3   OH227376   2.549   1.108   5.483  0.2135  0.6038 -0.3010
 1962TIP3    H127377   2.587   1.176   5.427  0.1852  1.1174  0.2909
 1962TIP3    H227378   2.622   1.051   5.504  0.5108  1.1470  0.1921
 1963TIP3   OH227379   0.662   6.086  13.577  0.3517  0.0323  0.6561
 1963TIP3    H127380   0.590   6.051  13.525  0.7841  2.1357 -1.5546
 1963TIP3    H227381   0.729   6.017  13.576 -0.5622 -0.8645  0.4207
 1964TIP3   OH227382   6.263   2.623  12.254  0.6928 -0.0317 -0.1660
 1964TIP3    H127383   6.352   2.654  12.236  0.7668 -0.3187 -0.3006
 1964TIP3    H227384   6.206   2.692  12.221  0.8414 -0.3023 -0.9936
 1965TIP3   OH227385   0.857   1.795   1.734 -0.1990  0.0714  0.0392
 1965TIP3    H127386   0.808   1.870   1.701 -1.8383 -1.6941 -1.7982
 1965TIP3    H227387   0.942   1.801   1.690 -0.3683  0.7579 -0.2019
 1966TIP3   OH227388   0.218   2.853   3.809  0.0738 -0.0888  0.3013
 1966TIP3    H127389   0.194   2.882   3.721 -1.6702  0.6588  0.9623
 1966TIP3    H227390   0.280   2.919   3.840 -0.8455  0.7934  0.3347
 1967TIP3   OH227391   5.487   2.075   1.251  0.2623 -0.1518  0.1743
 1967TIP3    H127392   5.472   2.140   1.182 -0.8472 -0.8663 -0.2774
 1967TIP3    H227393   5.454   2.117   1.331 -1.2809 -0.4736 -0.2657
 1968TIP3   OH227394   5.866   2.436   5.378  0.0492  0.0516  0.4883
 1968TIP3    H127395   5.908   2.358   5.343 -0.0695 -0.0125  0.4876
 1968TIP3    H227396   5.795   2.402   5.433 -1.0643  0.1705 -0.8086
 1969TIP3   OH227397   0.226   1.506  10.582  0.0665  0.3292 -0.9595
 1969TIP3    H127398   0.248   1.430  10.530  1.3961 -0.3779  0.5535
 1969TIP3    H227399   0.255   1.484  10.671  0.4989  2.5836 -0.4720
 1970TIP3   OH227400   2.861   6.506  11.432  0.0610 -0.2712 -0.2442
 1970TIP3    H127401   2.801   6.518  11.358  0.5739  0.2082 -0.5978
 1970TIP3    H227402   2.850   6.585  11.485  2.0917  1.0386 -1.5869
 1971TIP3   OH227403   5.340   4.295   1.014  0.2829 -0.2721  0.0893
 1971TIP3    H127404   5.390   4.240   0.955  0.6629  0.4799 -0.3097
 1971TIP3    H227405   5.310   4.368   0.959 -0.3729 -0.1789  0.5559
 1972TIP3   OH227406   1.284   4.293  11.950 -0.0883 -0.4145 -0.1894
 1972TIP3    H127407   1.249   4.243  11.876 -0.0718 -0.7843  0.0539
 1972TIP3    H227408   1.252   4.247  12.028 -0.7500  0.4122  0.0451
 1973TIP3   OH227409   5.687   0.760   1.637 -0.8544 -0.6024 -0.1350
 1973TIP3    H127410   5.714   0.709   1.561 -0.6129  0.8223 -1.0453
 1973TIP3    H227411   5.595   0.735   1.651 -1.2369 -0.1247 -1.5830
 1974TIP3   OH227412   5.503   0.542  15.469  0.7242 -0.2173  0.1200
 1974TIP3    H127413   5.477   0.512  15.382  0.8164 -0.2015  0.0868
 1974TIP3    H227414   5.592   0.576  15.457  0.7737 -0.3038  0.2401
 1975TIP3   OH227415   4.455   6.801  14.212  0.4736  0.0921 -0.4530
 1975TIP3    H127416   4.374   6.849  14.224  0.1939 -0.6079  0.5673
 1975TIP3    H227417   4.432   6.729  14.153  0.7317  0.7623 -1.4089
 1976TIP3   OH227418   0.090   5.532   1.283  0.3295  0.7398  0.1130
 1976TIP3    H127419   0.063   5.467   1.219 -0.3175  0.8941  0.2173
 1976TIP3    H227420   0.076   5.489   1.368  0.9722  0.6142  0.1569
 1977TIP3   OH227421   5.345   4.865  14.956 -0.1005  0.2137 -0.0582
 1977TIP3    H127422   5.425   4.852  15.008 -0.6985 -1.4478  0.5089
 1977TIP3    H227423   5.374   4.862  14.865  0.6350  0.7634  0.1511
 1978TIP3   OH227424   1.130   1.222  13.578 -0.2115 -0.4360 -0.1806
 1978TIP3    H127425   1.131   1.306  13.624  1.3018 -1.2156  1.3169
 1978TIP3    H227426   1.186   1.235  13.501 -0.6834  0.1592 -0.4264
 1979TIP3   OH227427   0.343   5.715  10.910  0.4006  0.7959 -0.2687
 1979TIP3    H127428   0.428   5.682  10.879  1.1002  1.7990  0.5200
 1979TIP3    H227429   0.283   5.641  10.897  1.1633  0.3917 -1.7607
 1980TIP3   OH227430   0.431   0.933  12.811 -0.2309 -0.4844  0.3181
 1980TIP3    H127431   0.438   0.862  12.875 -0.2204 -1.0239 -0.2698
 1980TIP3    H227432   0.521   0.963  12.799 -0.2322 -0.3849  0.5463
 1981TIP3   OH227433   6.391   6.372   4.744 -0.3124  0.3534 -0.1190
 1981TIP3    H127434   6.313   6.413   4.782 -0.0228 -0.3212  1.2983
 1981TIP3    H227435   6.440   6.444   4.705 -0.8150  1.0483  0.4988
 1982TIP3   OH227436   3.380   5.191   6.227  0.6166  0.2193  0.4535
 1982TIP3    H127437   3.362   5.098   6.239  1.3531  0.2234  1.7999
 1982TIP3    H227438   3.418   5.197   6.140 -0.1399 -0.6213  0.0437
 1983TIP3   OH227439   5.969   4.572   2.178  0.0078 -0.0296  0.1441
 1983TIP3    H127440   5.927   4.656   2.160  1.1804  0.6378  0.4363
 1983TIP3    H227441   6.062   4.593   2.189  0.7318 -1.6723 -2.1370
 1984TIP3   OH227442   4.346   2.603   1.024 -0.1431 -0.2646  0.0262
 1984TIP3    H127443   4.327   2.541   1.094 -0.1188  0.0570  0.3202
 1984TIP3    H227444   4.425   2.649   1.052  0.6843 -1.0972 -0.8624
 1985TIP3   OH227445   5.291   0.013   4.520  0.4822  0.2256 -0.4521
 1985TIP3    H127446   5.223  -0.007   4.584  0.2700 -0.3677 -0.8570
 1985TIP3    H227447   5.247   0.066   4.454  0.2300 -0.6893 -1.0485
 1986TIP3   OH227448   4.486   6.560   1.575  0.5634 -0.4433  0.5940
 1986TIP3    H127449   4.535   6.484   1.607  0.8152 -0.6512 -0.2655
 1986TIP3    H227450   4.413   6.522   1.527  0.5362 -0.1402  0.3941
 1987TIP3   OH227451   6.174   4.374   5.195  0.2213 -0.5830 -0.2025
 1987TIP3    H127452   6.174   4.465   5.164  0.6986  0.1134  1.6734
 1987TIP3    H227453   6.259   4.339   5.169  0.2146 -0.3438 -0.5465
 1988TIP3   OH227454   5.320   3.016  16.490  0.2440  0.3301 -0.3776
 1988TIP3    H127455   5.390   3.010  16.425 -0.7086  3.5496 -1.8807
 1988TIP3    H227456   5.365   3.014  16.574  1.7872 -0.8303 -1.1690
 1989TIP3   OH227457   1.618   1.701   2.848  0.0376 -0.0962 -0.1124
 1989TIP3    H127458   1.676   1.670   2.918  0.1871  3.1247  1.3657
 1989TIP3    H227459   1.535   1.657   2.864  0.8543 -1.5353  0.3305
 1990TIP3   OH227460   4.819   6.748  16.810 -0.0337  0.3638 -0.2211
 1990TIP3    H127461   4.762   6.746  16.732 -0.7499 -1.6320  0.2721
 1990TIP3    H227462   4.884   6.679  16.793  0.9278  1.1635  0.1671
 1991TIP3   OH227463   2.259   2.982  12.175  0.0308 -0.0644 -0.5989
 1991TIP3    H127464   2.326   2.916  12.160  0.7049  0.3216  0.5897
 1991TIP3    H227465   2.297   3.063  12.141  0.5050  0.3038  0.7548
 1992TIP3   OH227466   0.424   0.081  17.233  0.2510  0.2249 -0.7334
 1992TIP3    H127467   0.494   0.146  17.228  0.4230  0.2490  1.2760
 1992TIP3    H227468   0.350   0.129  17.269 -0.3869 -0.1407 -1.5236
 1993TIP3   OH227469   4.297   1.373   1.529 -0.0533 -0.3459  0.2254
 1993TIP3    H127470   4.309   1.336   1.616 -2.3637 -2.1638 -0.1448
 1993TIP3    H227471   4.301   1.298   1.469  1.3241  0.8402 -1.2582
 1994TIP3   OH227472   5.325   1.221   3.436 -0.2628  0.1087 -0.0953
 1994TIP3    H127473   5.417   1.224   3.407 -0.1571  0.5074  0.2903
 1994TIP3    H227474   5.294   1.310   3.427 -0.3339  0.1681  0.6899
 1995TIP3   OH227475   5.685   2.662  13.901  0.1533  0.2568  0.1955
 1995TIP3    H127476   5.658   2.681  13.991  0.4312  1.0452  0.1249
 1995TIP3    H227477   5.607   2.677  13.848 -0.2397 -1.0380  0.3947
 1996TIP3   OH227478   0.200   4.511   5.194 -0.2524 -0.3232  0.0943
 1996TIP3    H127479   0.156   4.584   5.150 -1.3798  0.2610  2.0594
 1996TIP3    H227480   0.288   4.543   5.212 -0.4850  0.2517  0.2280
 1997TIP3   OH227481   5.937   0.326   1.844 -0.0653  0.0494  0.1222
 1997TIP3    H127482   5.969   0.301   1.931  1.1596 -0.2602 -0.3972
 1997TIP3    H227483   5.879   0.255   1.818  1.5995 -1.1875 -0.3828
 1998TIP3   OH227484   4.113   2.182   5.991 -0.4779 -0.3474  0.0198
 1998TIP3    H127485   4.180   2.248   6.011  0.9881 -1.2246 -1.7063
 1998TIP3    H227486   4.107   2.129   6.071  0.9805 -0.2871  0.1984
 1999TIP3   OH227487   3.345   6.745  12.259 -0.3462  0.5964  0.3452
 1999TIP3    H127488   3.313   6.784  12.340  1.2318  0.4156  1.1076
 1999TIP3    H227489   3.281   6.678  12.237 -0.0011 -0.4744  2.3596
 2000TIP3   OH227490   5.399   2.422   0.320  0.0107 -0.3673 -0.3843
 2000TIP3    H127491   5.456   2.499   0.326 -0.9131  0.5046 -2.1034
 2000TIP3    H227492   5.428   2.366   0.392  1.4457  1.0848  0.2503
 2001TIP3   OH227493   2.276   3.511  16.696  0.0285 -0.3275  0.6928
 2001TIP3    H127494   2.190   3.475  16.676 -0.1410 -0.1428  1.0680
 2001TIP3    H227495   2.298   3.475  16.782 -0.0571  0.2918  0.9864
 2002TIP3   OH227496   0.016   3.421  16.647  0.4019 -0.2754  0.3282
 2002TIP3    H127497   0.015   3.325  16.651  0.8672 -0.2610  0.8017
 2002TIP3    H227498   0.086   3.442  16.586  0.9303 -0.2176  0.9473
 2003TIP3   OH227499   5.699   4.347  11.227 -0.3368  0.1974 -0.2123
 2003TIP3    H127500   5.739   4.322  11.143  0.7492  0.3621  0.2400
 2003TIP3    H227501   5.657   4.267  11.258 -0.7878  0.1437 -0.9191
 2004TIP3   OH227502   6.613   1.626   1.989  0.4976  0.1547 -0.8060
 2004TIP3    H127503   6.581   1.695   2.047  0.6594 -0.3309 -0.1251
 2004TIP3    H227504   6.537   1.602   1.936  0.4439  0.8571 -1.0464
 2005TIP3   OH227505   4.037   1.235  11.909 -0.2366  0.3613  0.5070
 2005TIP3    H127506   4.043   1.236  12.005  0.3478 -2.0675  0.5698
 2005TIP3    H227507   4.128   1.241  11.880 -0.1786 -1.3084  0.2352
 2006TIP3   OH227508   4.503   3.514  15.556 -0.3790 -0.3393 -0.0616
 2006TIP3    H127509   4.427   3.558  15.518  0.1563 -0.1259 -0.8983
 2006TIP3    H227510   4.578   3.562  15.523  0.1243 -0.3562  1.0143
 2007TIP3   OH227511   5.364   6.159   0.575  0.3607  0.5645 -0.6848
 2007TIP3    H127512   5.407   6.083   0.536  0.0360 -0.2941  0.5631
 2007TIP3    H227513   5.395   6.159   0.666  1.3160  2.6624 -0.9543
 2008TIP3   OH227514   0.864   2.126  14.794  0.0039  0.7505  0.5686
 2008TIP3    H127515   0.951   2.142  14.755 -0.6435  0.8804 -0.9059
 2008TIP3    H227516   0.864   2.032  14.811  0.1003  0.5684 -0.3493
 2009TIP3   OH227517   4.664   4.098  14.302 -0.7060  0.2007  0.4741
 2009TIP3    H127518   4.751   4.092  14.342  0.0593  2.0239 -0.7557
 2009TIP3    H227519   4.631   4.184  14.329 -1.2194  0.4145 -0.7313
 2010TIP3   OH227520   3.538   1.100  16.134  0.7933 -0.6804 -0.0547
 2010TIP3    H127521   3.577   1.093  16.047  0.4595  0.5653 -0.3222
 2010TIP3    H227522   3.444   1.111  16.117  0.6650 -0.9059  0.4912
 2011TIP3   OH227523   5.495   6.730  13.217  0.5765 -0.5659 -0.1593
 2011TIP3    H127524   5.515   6.718  13.125 -1.0139  0.3131 -0.6502
 2011TIP3    H227525   5.457   6.647  13.245  0.7779 -0.7310 -0.3786
 2012TIP3   OH227526   1.005   6.512  13.200 -0.0031  0.0287 -0.2549
 2012TIP3    H127527   0.915   6.533  13.222  0.2992  0.7782  0.3281
 2012TIP3    H227528   1.038   6.461  13.274  0.8663  2.1362  0.9006
 2013TIP3   OH227529   3.726   3.879  12.584  0.0054 -0.1678  0.2138
 2013TIP3    H127530   3.645   3.925  12.562  0.2371  0.3054  0.3357
 2013TIP3    H227531   3.699   3.807  12.641 -0.0572  1.6531  2.6382
 2014TIP3   OH227532   0.400   2.779  14.296  0.0393 -0.2481  0.5282
 2014TIP3    H127533   0.384   2.864  14.255  2.8056  0.1765  0.1357
 2014TIP3    H227534   0.390   2.716  14.225 -0.1793 -0.0482  0.3802
 2015TIP3   OH227535   0.900   6.487  16.346  0.0387 -0.3389 -0.4387
 2015TIP3    H127536   0.848   6.460  16.422  1.6218 -0.3586  0.6878
 2015TIP3    H227537   0.935   6.572  16.371  0.4657 -0.2769 -1.2278
 2016TIP3   OH227538   0.936   1.289  12.552  0.5444 -0.6821  0.0456
 2016TIP3    H127539   0.957   1.209  12.503  1.4796 -1.2140  1.2500
 2016TIP3    H227540   0.889   1.257  12.629 -0.6561  0.1175 -0.3227
 2017TIP3   OH227541   0.644   5.137  12.013 -0.2176 -0.4023 -0.3282
 2017TIP3    H127542   0.714   5.143  11.948  1.3857 -1.4487  1.2303
 2017TIP3    H227543   0.615   5.046  12.009 -1.2535 -0.0793 -0.6678
 2018TIP3   OH227544   0.997   3.274   1.714 -0.3411 -0.1178  0.0999
 2018TIP3    H127545   1.029   3.189   1.746  2.0590  0.1255 -1.4209
 2018TIP3    H227546   0.913   3.254   1.674 -0.6777 -1.4409  1.3857
 2019TIP3   OH227547   0.306   2.782   1.073 -0.5949 -0.5683 -0.0365
 2019TIP3    H127548   0.263   2.867   1.068  0.9524  0.2723  0.4171
 2019TIP3    H227549   0.307   2.761   1.166  1.8159  0.4616  0.2466
 2020TIP3   OH227550   5.187   1.113   4.544 -0.1597 -0.1005 -0.2371
 2020TIP3    H127551   5.156   1.117   4.454 -0.1323  1.2856 -0.1927
 2020TIP3    H227552   5.209   1.020   4.556  1.1737 -0.0985 -2.1098
 2021TIP3   OH227553   4.670   0.118  14.010 -0.1702 -0.3884 -0.1699
 2021TIP3    H127554   4.680   0.212  14.025  1.5118 -0.8462  2.1640
 2021TIP3    H227555   4.595   0.093  14.063  0.7608 -0.6744  1.0657
 2022TIP3   OH227556   4.306   4.348  15.547 -0.2571  0.2985 -0.6201
 2022TIP3    H127557   4.270   4.432  15.575 -0.7524  0.4512 -1.6722
 2022TIP3    H227558   4.240   4.284  15.574  0.6058  0.0984  1.1410
 2023TIP3   OH227559   2.937   5.631  11.100  0.0491  0.4309  0.5020
 2023TIP3    H127560   2.928   5.654  11.193  1.9121  1.0420  0.5769
 2023TIP3    H227561   2.958   5.714  11.057  0.3798 -0.0439 -0.2745
 2024TIP3   OH227562   1.110   1.248  16.144  0.2478  0.0110 -0.7472
 2024TIP3    H127563   1.107   1.173  16.085  0.0400 -2.3372  1.9962
 2024TIP3    H227564   1.071   1.216  16.226 -0.9111  3.4934  0.2704
 2025TIP3   OH227565   4.013   1.069  11.555  0.1067 -0.3336 -0.8949
 2025TIP3    H127566   3.921   1.049  11.572  0.1772 -0.9948 -1.2431
 2025TIP3    H227567   4.059   1.039  11.634 -0.1679  1.8686  0.1868
 2026TIP3   OH227568   1.710   0.848  10.540  0.3100  0.2956  0.1059
 2026TIP3    H127569   1.737   0.775  10.485 -1.8269 -0.7962  0.4253
 2026TIP3    H227570   1.686   0.917  10.478 -0.0821 -0.1740 -0.2671
 2027TIP3   OH227571   5.098   3.421   4.145 -0.1309  0.3899  0.7790
 2027TIP3    H127572   5.064   3.482   4.210 -0.8962  0.0585  0.7027
 2027TIP3    H227573   5.034   3.349   4.145  0.6261 -0.2914  0.6976
 2028TIP3   OH227574   2.501   5.002  16.112 -0.1816 -0.3795  0.4458
 2028TIP3    H127575   2.494   4.965  16.200 -2.2780  1.4483  1.1447
 2028TIP3    H227576   2.418   5.049  16.099 -0.2366 -1.1359 -2.7953
 2029TIP3   OH227577   1.272   3.712   5.754 -0.3504 -0.5579 -0.0253
 2029TIP3    H127578   1.354   3.753   5.781 -1.9005  1.3179  2.3182
 2029TIP3    H227579   1.278   3.622   5.786  0.1997  0.0229  1.6097
 2030TIP3   OH227580   6.652   6.344  15.778 -0.1722  0.3605 -0.4563
 2030TIP3    H127581   6.592   6.402  15.825 -1.0323 -0.1623 -0.8806
 2030TIP3    H227582   6.644   6.260  15.824 -0.2357  0.1281 -0.8893
 2031TIP3   OH227583   3.879   2.827  13.410  0.8639  0.2237 -0.3982
 2031TIP3    H127584   3.929   2.841  13.491 -1.1914  3.1641  0.5125
 2031TIP3    H227585   3.802   2.778  13.437  1.0898 -0.4650 -0.9708
 2032TIP3   OH227586   4.957   5.380   3.125  0.0653  0.4446 -0.6221
 2032TIP3    H127587   5.007   5.456   3.094  0.7765 -0.2928 -1.3109
 2032TIP3    H227588   4.968   5.315   3.056 -1.2509  0.0060 -0.4368
 2033TIP3   OH227589   4.324   4.863  15.624 -0.2032 -0.0540  0.3618
 2033TIP3    H127590   4.339   4.913  15.543  1.5758  0.7193  1.1199
 2033TIP3    H227591   4.408   4.865  15.669 -1.4934  0.7792  2.9475
 2034TIP3   OH227592   5.717   3.950  16.971  0.1744 -0.5633  0.3652
 2034TIP3    H127593   5.794   4.005  16.985 -0.8379  1.4312 -1.3720
 2034TIP3    H227594   5.728   3.916  16.883  0.1700 -2.2315  0.9717
 2035TIP3   OH227595   0.358   0.065   4.280 -0.3308  0.4049 -0.0380
 2035TIP3    H127596   0.313  -0.011   4.318  1.5765 -1.4445 -1.2153
 2035TIP3    H227597   0.315   0.079   4.196  1.5989 -1.9601 -1.6002
 2036TIP3   OH227598   3.732   1.170  12.195  0.3942 -0.0806 -0.4132
 2036TIP3    H127599   3.819   1.205  12.213 -0.1797  1.1455  0.0343
 2036TIP3    H227600   3.685   1.243  12.154 -0.8706 -0.2678  0.6629
 2037TIP3   OH227601   6.101   1.505  13.270  1.0069 -0.2210 -0.1256
 2037TIP3    H127602   6.110   1.445  13.345  2.6732  0.1905  0.0233
 2037TIP3    H227603   6.174   1.565  13.278  0.5700  0.5269 -1.4868
 2038TIP3   OH227604   1.717   4.477  15.423 -0.3819  0.3577 -0.5726
 2038TIP3    H127605   1.688   4.389  15.448  0.1584  0.7233  1.4930
 2038TIP3    H227606   1.683   4.489  15.334 -0.7810 -1.7812 -0.7550
 2039TIP3   OH227607   4.676   1.750   1.158 -0.5168 -0.2400  0.9265
 2039TIP3    H127608   4.643   1.796   1.236 -0.7090  1.3895 -0.0655
 2039TIP3    H227609   4.601   1.748   1.099  0.6409  2.2853 -0.8155
 2040TIP3   OH227610   2.461   4.269  14.006  0.3389  0.1549 -0.5588
 2040TIP3    H127611   2.541   4.309  13.970  1.2394 -0.5312  0.6010
 2040TIP3    H227612   2.391   4.330  13.983  1.1319  0.5927 -1.9325
 2041TIP3   OH227613   3.161   6.453   0.130  0.3658 -0.0627 -0.4007
 2041TIP3    H127614   3.123   6.437   0.217  0.6086 -0.5752 -0.3840
 2041TIP3    H227615   3.215   6.531   0.142  0.5281 -0.2260 -0.0459
 2042TIP3   OH227616   3.611   6.351   0.042 -0.0475 -0.1827  0.0165
 2042TIP3    H127617   3.621   6.401   0.123  1.4274  0.1859 -0.3623
 2042TIP3    H227618   3.517   6.348   0.027 -0.2475  1.2857  0.7895
 2043TIP3   OH227619   0.898   1.501  12.754 -0.1601 -0.1647  0.1204
 2043TIP3    H127620   0.827   1.446  12.720  0.4360 -0.8246 -0.0884
 2043TIP3    H227621   0.906   1.571  12.689 -0.6815 -0.0305  0.1940
 2044TIP3   OH227622   0.453   1.837  11.978  0.0297 -0.9409 -0.2643
 2044TIP3    H127623   0.455   1.744  12.003 -0.1109 -1.0532 -0.6562
 2044TIP3    H227624   0.529   1.848  11.921 -0.4188 -1.0235 -0.9006
 2045TIP3   OH227625   0.275   3.713  15.613  0.2360 -0.7406  0.0880
 2045TIP3    H127626   0.358   3.721  15.565  0.4375  0.7314  0.6261
 2045TIP3    H227627   0.268   3.619  15.632  2.2684 -0.7933  0.8549
 2046TIP3   OH227628   0.056   0.481  11.379 -0.1144  0.3375  0.2238
 2046TIP3    H127629   0.107   0.520  11.309  0.4219  1.1690  1.0557
 2046TIP3    H227630  -0.020   0.539  11.388 -0.3486  0.0490  0.1117
 2047TIP3   OH227631   0.885   1.681  11.303 -0.5809  0.4807 -0.0151
 2047TIP3    H127632   0.979   1.695  11.306 -0.6156  1.2306 -1.5279
 2047TIP3    H227633   0.873   1.587  11.311  0.4006  0.2340 -1.2152
 2048TIP3   OH227634   4.238   2.529  14.556  0.2811 -0.4874  0.2213
 2048TIP3    H127635   4.177   2.513  14.627 -1.0056  1.0055 -0.4923
 2048TIP3    H227636   4.298   2.596  14.590  1.2516 -1.5642  0.7298
 2049TIP3   OH227637   0.655   2.312  15.728  0.4623  0.3210 -0.5487
 2049TIP3    H127638   0.743   2.343  15.708  0.5702  1.6788  1.6613
 2049TIP3    H227639   0.597   2.379  15.691  0.5402  1.1982  0.8396
 2050TIP3   OH227640   1.408   3.818   0.208  0.2431  0.6996  0.4715
 2050TIP3    H127641   1.474   3.888   0.213 -0.0720  1.0022  0.4260
 2050TIP3    H227642   1.368   3.829   0.122 -0.6950  1.2756  0.9628
 2051TIP3   OH227643   2.021   1.510  10.536 -0.1373  0.3979  0.0157
 2051TIP3    H127644   1.934   1.472  10.548  0.8339 -1.4748  1.7040
 2051TIP3    H227645   2.044   1.545  10.621  2.1758 -2.4781  0.7265
 2052TIP3   OH227646   1.024   0.895   2.519  0.3558  0.0080  0.4187
 2052TIP3    H127647   1.026   0.803   2.542 -2.9339  0.0816  1.5714
 2052TIP3    H227648   1.027   0.941   2.602  0.0906  0.8562 -0.0257
 2053TIP3   OH227649   0.029   6.404  16.410  1.0545 -0.2676  0.0074
 2053TIP3    H127650   0.011   6.381  16.501  0.0709  3.2046  0.8452
 2053TIP3    H227651  -0.038   6.357  16.360  0.7020 -1.1146  1.2184
 2054TIP3   OH227652   1.024   3.416  13.359 -0.3690 -0.9145  0.3092
 2054TIP3    H127653   1.021   3.320  13.359 -1.1106 -0.9347 -1.5659
 2054TIP3    H227654   1.114   3.437  13.336 -0.3238 -1.1857  0.2304
 2055TIP3   OH227655   4.726   5.060   6.176 -0.2649 -0.0058  0.1200
 2055TIP3    H127656   4.769   5.140   6.209  0.1756  0.1431 -0.7906
 2055TIP3    H227657   4.740   4.995   6.245 -0.6788  0.7106  0.8993
 2056TIP3   OH227658   2.058   4.725  14.732  0.5369  0.0718  0.5325
 2056TIP3    H127659   2.131   4.663  14.732  2.3100  1.8794  3.5412
 2056TIP3    H227660   1.983   4.674  14.763  1.1133 -1.2743 -0.2180
 2057TIP3   OH227661   5.228   3.905   5.124 -0.0749 -0.0461  0.0574
 2057TIP3    H127662   5.283   3.891   5.202  0.0064  0.4008  0.0812
 2057TIP3    H227663   5.186   3.989   5.139  0.9196  0.6548 -0.9701
 2058TIP3   OH227664   2.432   4.601   5.717  0.1538 -0.3528 -0.0564
 2058TIP3    H127665   2.341   4.624   5.700 -0.3505 -1.0505  1.5091
 2058TIP3    H227666   2.483   4.663   5.665 -1.2025  0.1688 -0.8087
 2059TIP3   OH227667   4.706   0.236  13.689 -0.1650  0.4131  0.2943
 2059TIP3    H127668   4.761   0.214  13.764  0.2135 -0.6933 -0.2771
 2059TIP3    H227669   4.744   0.316  13.653  0.9093 -0.1758  0.0803
 2060TIP3   OH227670   1.516   6.029   3.080 -0.4341 -0.3089  0.0761
 2060TIP3    H127671   1.542   6.026   3.172  3.0163  1.7923 -0.6320
 2060TIP3    H227672   1.520   5.938   3.051 -0.5683 -0.8827  1.7680
 2061TIP3   OH227673   6.150   2.485  16.502  0.2569 -0.1650  0.1410
 2061TIP3    H127674   6.151   2.580  16.486  0.7018  0.0396  1.2345
 2061TIP3    H227675   6.177   2.477  16.594  0.9161 -1.3943 -0.1442
 2062TIP3   OH227676   6.298   3.577  17.005  0.1083 -0.4058 -0.1648
 2062TIP3    H127677   6.272   3.668  17.018  1.4395  0.2256 -1.5796
 2062TIP3    H227678   6.328   3.574  16.914 -1.0216 -2.5556 -0.5210
 2063TIP3   OH227679   0.475   3.604  12.888 -0.0207 -0.2088 -0.1541
 2063TIP3    H127680   0.395   3.611  12.838  1.5591 -1.2709 -3.0923
 2063TIP3    H227681   0.447   3.573  12.974 -2.9309  2.2760 -0.0566
 2064TIP3   OH227682   5.903   5.704  13.378 -0.0645 -0.0434  0.1263
 2064TIP3    H127683   5.885   5.760  13.303  0.0042 -1.1334 -0.7375
 2064TIP3    H227684   5.946   5.762  13.441 -1.1743  1.1667 -0.1860
 2065TIP3   OH227685   5.533   4.839  11.657 -0.1770 -0.4737 -0.1682
 2065TIP3    H127686   5.540   4.911  11.594 -0.7282  0.5415  0.8781
 2065TIP3    H227687   5.570   4.763  11.612 -0.3727  0.2622 -1.6240
 2066TIP3   OH227688   4.844   2.474  14.045 -0.2691  0.0363 -0.2305
 2066TIP3    H127689   4.796   2.407  14.095  0.1690  1.4483  2.2931
 2066TIP3    H227690   4.831   2.450  13.954 -0.2078 -3.3980  0.5333
 2067TIP3   OH227691   2.200   2.119  14.414 -0.1589 -0.4421  0.2335
 2067TIP3    H127692   2.180   2.028  14.394 -0.5904 -0.0659 -1.0899
 2067TIP3    H227693   2.267   2.113  14.482  0.3388 -1.7506 -0.3267
 2068TIP3   OH227694   1.844   4.404  14.980 -0.4374 -0.2836 -0.2742
 2068TIP3    H127695   1.880   4.465  14.916  3.5928 -3.1580 -1.1760
 2068TIP3    H227696   1.787   4.346  14.929 -0.6227 -0.0418 -0.3452
 2069TIP3   OH227697   3.925   0.791   4.645  0.3882  0.1191 -0.3298
 2069TIP3    H127698   3.965   0.859   4.591  1.0041 -1.1820 -1.5980
 2069TIP3    H227699   3.981   0.714   4.632 -0.2697 -0.6378  1.0679
 2070TIP3   OH227700   5.986   0.026  17.141 -0.1625  0.3328 -0.0040
 2070TIP3    H127701   5.983   0.009  17.047  0.6879 -0.4737  0.0912
 2070TIP3    H227702   5.908  -0.017  17.175  0.4133 -0.8831 -0.1523
 2071TIP3   OH227703   3.942   1.744  14.091  0.1304 -0.3836  0.8012
 2071TIP3    H127704   3.995   1.787  14.024  0.7920 -2.4208 -0.0463
 2071TIP3    H227705   3.855   1.783  14.081  0.6317  0.5548 -0.0880
 2072TIP3   OH227706   2.702   2.291   1.494 -0.5676  0.1733  0.5955
 2072TIP3    H127707   2.649   2.350   1.548 -1.1721 -0.2608  0.4949
 2072TIP3    H227708   2.675   2.203   1.521 -1.6399 -0.0708 -1.0850
 2073TIP3   OH227709   0.761   6.625   1.971 -0.1145  0.4696 -0.6184
 2073TIP3    H127710   0.675   6.587   1.986  0.2544 -0.9893 -1.9517
 2073TIP3    H227711   0.753   6.669   1.886  0.7939 -0.8840 -1.4496
 2074TIP3   OH227712   6.745   6.371   0.329 -0.1530 -0.3232  0.8185
 2074TIP3    H127713   6.682   6.405   0.392 -0.2403 -1.0783  1.1516
 2074TIP3    H227714   6.827   6.364   0.378  0.4746  1.5635  0.1368
 2075TIP3   OH227715   3.721   3.984  16.921 -0.0268  0.3127 -0.0782
 2075TIP3    H127716   3.732   4.009  17.013 -1.3198  1.5120 -0.2128
 2075TIP3    H227717   3.788   3.916  16.907  0.7848  0.7200  1.4900
 2076TIP3   OH227718   6.596   5.088   0.841 -0.4668 -0.3954 -0.4263
 2076TIP3    H127719   6.646   5.026   0.789 -0.1575 -0.5190  0.0094
 2076TIP3    H227720   6.593   5.168   0.789 -0.7713 -0.7415 -0.9414
 2077TIP3   OH227721   2.135   0.448  16.687  0.1877 -0.1092 -0.3922
 2077TIP3    H127722   2.110   0.357  16.676  2.2849 -0.7021 -0.7184
 2077TIP3    H227723   2.189   0.468  16.611  2.2233  0.4465  1.1179
 2078TIP3   OH227724   0.583   4.810  14.259 -0.3466 -0.3500 -0.6144
 2078TIP3    H127725   0.668   4.853  14.250 -0.8574  0.7642 -0.3035
 2078TIP3    H227726   0.593   4.727  14.214  0.7526 -0.0076 -1.0301
 2079TIP3   OH227727   5.720   6.088   3.623  0.1151  0.5038 -0.3937
 2079TIP3    H127728   5.790   6.147   3.651  1.0762 -0.4553 -0.7192
 2079TIP3    H227729   5.716   6.021   3.691  0.0114  0.1598 -0.7337
 2080TIP3   OH227730   1.764   4.614   2.814  0.3153 -0.3297 -0.1602
 2080TIP3    H127731   1.834   4.556   2.844 -0.6826 -2.1876 -1.2276
 2080TIP3    H227732   1.692   4.555   2.793 -1.0799  1.4069 -0.4682
 2081TIP3   OH227733   2.839   4.396  13.099 -0.1430 -0.1315  0.1106
 2081TIP3    H127734   2.789   4.434  13.027  0.2737  0.1364 -0.0433
 2081TIP3    H227735   2.774   4.352  13.153 -0.6115  0.6001  0.1585
 2082TIP3   OH227736   4.667   4.287  12.558  0.5273  0.0847  0.0997
 2082TIP3    H127737   4.702   4.338  12.485 -0.6390  2.7450  1.2418
 2082TIP3    H227738   4.572   4.293  12.548  0.2905  1.4219  2.2714
 2083TIP3   OH227739   5.952   4.150  12.878 -0.1725 -0.0469  0.0278
 2083TIP3    H127740   5.885   4.210  12.848 -0.1262  1.0191  1.9091
 2083TIP3    H227741   5.907   4.091  12.938  0.0821 -0.9530 -0.6535
 2084TIP3   OH227742   3.131   3.498  13.209  0.4322 -0.4073 -0.5005
 2084TIP3    H127743   3.155   3.406  13.222  1.6232  0.1921  2.3627
 2084TIP3    H227744   3.192   3.529  13.143  1.6926 -1.1216  0.2864
 2085TIP3   OH227745   3.979   2.848  11.804  0.5702 -0.2899  0.3239
 2085TIP3    H127746   3.970   2.805  11.889  0.7326 -0.4435  0.2643
 2085TIP3    H227747   4.014   2.780  11.747  1.7694  0.1806  0.4636
 2086TIP3   OH227748   3.565   2.360  16.699  0.1117 -0.5333  0.5144
 2086TIP3    H127749   3.496   2.296  16.684 -1.0396  0.4711  1.2922
 2086TIP3    H227750   3.519   2.438  16.731  1.6014  0.1778  1.0351
 2087TIP3   OH227751   5.916   3.336  14.874  0.3089 -0.1319  0.2583
 2087TIP3    H127752   5.876   3.415  14.837 -1.2400 -0.9674  0.1080
 2087TIP3    H227753   5.858   3.311  14.946 -2.0398 -3.7777 -2.5415
 2088TIP3   OH227754   2.891   5.292  10.781  0.2283  0.5907  0.0205
 2088TIP3    H127755   2.914   5.383  10.801  0.6374  0.9544 -1.8978
 2088TIP3    H227756   2.842   5.297  10.699 -1.4798 -0.7766  0.8803
 2089TIP3   OH227757   0.378   5.853   2.813 -0.2575  0.3905 -0.3559
 2089TIP3    H127758   0.362   5.908   2.889 -0.3990  1.0421 -0.8490
 2089TIP3    H227759   0.428   5.779   2.847 -2.3705 -0.5869  0.8479
 2090TIP3   OH227760   1.193   6.549  15.643 -0.4165 -0.5078 -0.7724
 2090TIP3    H127761   1.153   6.632  15.621 -1.8194 -1.3256 -1.4250
 2090TIP3    H227762   1.143   6.484  15.594  0.7560 -1.7304 -0.4270
 2091TIP3   OH227763   1.413   5.115   4.730  0.8547 -0.1950  0.0967
 2091TIP3    H127764   1.398   5.169   4.652 -1.5606 -1.5795 -0.5188
 2091TIP3    H227765   1.436   5.029   4.695  0.2670 -0.6924  0.9075
 2092TIP3   OH227766   6.162   2.968  15.977 -0.0350 -0.1413  0.1328
 2092TIP3    H127767   6.168   3.060  15.954  1.6064  0.3343  2.1720
 2092TIP3    H227768   6.078   2.959  16.021 -0.3943  0.2678 -0.4611
 2093TIP3   OH227769   3.547   1.611   0.083  0.1106 -0.2185  0.2376
 2093TIP3    H127770   3.635   1.580   0.059 -0.2029 -0.2280 -0.9713
 2093TIP3    H227771   3.491   1.534   0.074  0.1650 -0.5371  2.2697
 2094TIP3   OH227772   6.047   0.673  13.909 -0.9063  0.7276  0.1866
 2094TIP3    H127773   5.969   0.621  13.932  0.2762 -0.3607  2.0295
 2094TIP3    H227774   6.015   0.762  13.900 -2.4819  0.1886  0.1655
 2095TIP3   OH227775   2.104   4.080   4.953 -0.6840  0.3702  0.0975
 2095TIP3    H127776   2.044   4.093   4.879  0.4574  1.4914 -0.6716
 2095TIP3    H227777   2.171   4.148   4.941  0.6779 -0.7766  0.9889
 2096TIP3   OH227778   1.975   6.104   2.055  0.2682 -0.1272 -0.2604
 2096TIP3    H127779   1.941   6.165   1.989 -1.5415  0.1121  0.8277
 2096TIP3    H227780   2.010   6.031   2.004 -1.3370 -0.0765 -1.5148
 2097TIP3   OH227781   4.249   1.386  12.732 -0.7987  0.3342 -0.1865
 2097TIP3    H127782   4.238   1.479  12.712 -0.7660  0.0811 -1.4831
 2097TIP3    H227783   4.302   1.385  12.812 -0.4950  1.4262 -0.3507
 2098TIP3   OH227784   4.064   3.747   3.860 -0.3355  0.5976  0.1791
 2098TIP3    H127785   3.979   3.781   3.888 -0.4866 -0.7494  1.4625
 2098TIP3    H227786   4.059   3.743   3.765 -1.6859  0.5867  0.2372
 2099TIP3   OH227787   2.672   3.089   2.283  0.1601 -0.3374 -0.3271
 2099TIP3    H127788   2.758   3.128   2.296  0.8219 -1.8142 -0.1189
 2099TIP3    H227789   2.689   3.006   2.238 -1.0405 -1.1759  0.6710
 2100TIP3   OH227790   0.461   4.398   6.435  0.0323  0.0300 -0.2101
 2100TIP3    H127791   0.509   4.475   6.404 -1.4864  0.6918 -1.0592
 2100TIP3    H227792   0.370   4.417   6.413 -0.3963 -1.9972 -0.3574
 2101TIP3   OH227793   0.181   3.703  11.513  0.1373 -0.1253  0.5605
 2101TIP3    H127794   0.154   3.645  11.584  2.3336 -1.6000  0.3089
 2101TIP3    H227795   0.250   3.758  11.551 -1.6406  2.1781  0.6833
 2102TIP3   OH227796   6.347   0.541  16.917 -0.0568 -0.4257  0.5646
 2102TIP3    H127797   6.396   0.617  16.885 -0.0884 -0.7559 -0.3067
 2102TIP3    H227798   6.266   0.577  16.952 -0.5384 -0.1339 -0.7983
 2103TIP3   OH227799   4.660   4.843   5.375 -0.2506 -0.9527  0.1412
 2103TIP3    H127800   4.693   4.790   5.448 -2.4232 -2.6078  0.0301
 2103TIP3    H227801   4.681   4.792   5.297  1.5029  0.5133 -0.4155
 2104TIP3   OH227802   6.066   6.776   4.562  0.3690  0.2131 -0.0787
 2104TIP3    H127803   6.098   6.812   4.645  0.1095  1.7923 -0.6230
 2104TIP3    H227804   6.142   6.735   4.522  1.4906  2.7239 -0.7251
 2105TIP3   OH227805   0.815   2.768   2.926 -0.4292  0.4990 -0.2524
 2105TIP3    H127806   0.817   2.673   2.937 -2.1334  0.3573 -0.8799
 2105TIP3    H227807   0.876   2.786   2.854 -1.1803 -0.2930 -1.1064
 2106TIP3   OH227808   5.976   4.651   0.616  0.3375  0.6506 -0.2792
 2106TIP3    H127809   5.968   4.704   0.695  0.2333  1.3404 -0.7468
 2106TIP3    H227810   6.063   4.612   0.622  1.1728  2.3483 -0.8173
 2107TIP3   OH227811   0.499   6.509   4.942  0.5457 -0.1400  0.3234
 2107TIP3    H127812   0.494   6.440   5.008  1.0930  1.1886  1.8166
 2107TIP3    H227813   0.410   6.514   4.906  0.1836 -0.7310  1.1042
 2108TIP3   OH227814   4.870   0.850  13.379 -0.0012 -0.3414  0.1716
 2108TIP3    H127815   4.862   0.789  13.306 -2.7596  0.5554 -0.4008
 2108TIP3    H227816   4.816   0.812  13.448 -1.2163  1.0461  0.0416
 2109TIP3   OH227817   1.158   6.371  16.904  0.4576  0.2576 -0.2134
 2109TIP3    H127818   1.097   6.444  16.895  0.2642 -0.1471 -3.2888
 2109TIP3    H227819   1.112   6.308  16.960 -1.2143  0.7201 -1.0069
 2110TIP3   OH227820   1.701   2.666   3.920  0.3140 -0.2830 -0.2825
 2110TIP3    H127821   1.686   2.739   3.980  2.3979  0.1052 -0.1641
 2110TIP3    H227822   1.768   2.698   3.859  0.8161 -1.8703 -0.6186
 2111TIP3   OH227823   6.274   5.212   2.973 -0.2359 -0.1679  0.3475
 2111TIP3    H127824   6.352   5.172   2.935 -0.3356  0.2115 -0.2618
 2111TIP3    H227825   6.233   5.141   3.022 -0.1175 -0.6732 -0.2684
 2112TIP3   OH227826   1.660   1.575  12.429  0.0158  0.0566  0.0070
 2112TIP3    H127827   1.618   1.659  12.412  0.8190  0.8248  1.5853
 2112TIP3    H227828   1.745   1.581  12.386 -0.0079 -0.0195 -0.0505
 2113TIP3   OH227829   5.709   3.838  16.056  0.6520  1.0038 -0.4388
 2113TIP3    H127830   5.701   3.746  16.030 -0.2582  1.2883 -1.2621
 2113TIP3    H227831   5.705   3.836  16.151  2.4771  0.0498 -0.3363
 2114TIP3   OH227832   2.461   6.283  15.907 -0.1902  0.0394  0.1944
 2114TIP3    H127833   2.434   6.195  15.883  2.7818 -1.1778  0.9073
 2114TIP3    H227834   2.534   6.270  15.967  1.9380  2.9646 -1.5533
 2115TIP3   OH227835   0.278   0.706   4.607 -0.1400  0.0243 -0.4091
 2115TIP3    H127836   0.264   0.622   4.652  0.9973 -0.0872 -0.2379
 2115TIP3    H227837   0.313   0.764   4.675 -1.7658  0.9279 -0.3023
 2116TIP3   OH227838   0.477   6.672  11.930  0.1084 -0.2624 -0.1431
 2116TIP3    H127839   0.514   6.706  11.849  1.7043 -2.2061 -0.2966
 2116TIP3    H227840   0.495   6.739  11.995 -0.7200  1.0877 -1.2588
 2117TIP3   OH227841   5.913   3.591  12.870 -0.1697 -0.2682 -0.7538
 2117TIP3    H127842   5.821   3.611  12.852 -0.7931 -2.5230 -0.3538
 2117TIP3    H227843   5.933   3.640  12.949 -1.2424 -0.2993 -0.4427
 2118TIP3   OH227844   0.364   6.207   2.699 -0.6386  0.6115  0.4062
 2118TIP3    H127845   0.305   6.217   2.774 -1.1641  0.6159  0.0015
 2118TIP3    H227846   0.434   6.150   2.731 -2.0461 -1.2872  0.2569
 2119TIP3   OH227847   6.294   3.897   5.456 -0.2203  0.3838 -0.3369
 2119TIP3    H127848   6.233   3.857   5.519  1.3960  0.7816  1.5613
 2119TIP3    H227849   6.287   3.841   5.378 -1.4387 -0.8235  0.5802
 2120TIP3   OH227850   3.664   6.109  13.073 -0.1694  0.1760 -0.6142
 2120TIP3    H127851   3.627   6.163  13.003  0.5427  0.8797 -0.4557
 2120TIP3    H227852   3.758   6.113  13.060 -0.0797 -0.5644 -0.2470
 2121TIP3   OH227853   6.756   0.267   1.489 -0.2800  0.5482 -0.3344
 2121TIP3    H127854   6.737   0.357   1.517  1.4348  0.9326 -0.3384
 2121TIP3    H227855   6.736   0.266   1.396 -0.3353  0.9045 -0.3259
 2122TIP3   OH227856   5.000   1.109  10.638  0.1365  0.2886 -0.4249
 2122TIP3    H127857   5.095   1.094  10.640  0.0523 -0.2981 -0.6471
 2122TIP3    H227858   4.965   1.045  10.700 -0.1309  0.3720 -0.4892
 2123TIP3   OH227859   1.766   3.915   0.983  0.0340  0.0671 -0.1731
 2123TIP3    H127860   1.801   3.977   1.046  1.6229 -0.0115 -0.9134
 2123TIP3    H227861   1.796   3.830   1.015 -0.0707 -0.0793 -0.4645
 2124TIP3   OH227862   0.583   6.478   1.529 -0.2128  0.5504 -0.3574
 2124TIP3    H127863   0.661   6.497   1.581  1.8588 -4.0087 -1.2475
 2124TIP3    H227864   0.610   6.491   1.438 -1.0854  0.6563 -0.6133
 2125TIP3   OH227865   5.531   0.976  14.931 -1.0713  0.0834  0.1683
 2125TIP3    H127866   5.522   0.895  14.880  0.5715 -0.4955  0.7116
 2125TIP3    H227867   5.556   1.041  14.866  1.2216 -0.6992  0.1577
 2126TIP3   OH227868   0.954   1.812  12.193  0.8273 -0.6584  0.0162
 2126TIP3    H127869   0.881   1.769  12.239  0.0180 -0.9737 -1.4738
 2126TIP3    H227870   0.971   1.755  12.118  2.2056 -0.2415 -0.0120
 2127TIP3   OH227871   6.702   3.685   2.642 -0.5268 -0.5456  0.3665
 2127TIP3    H127872   6.612   3.654   2.651 -0.3610 -0.4006  3.1919
 2127TIP3    H227873   6.749   3.647   2.717  0.8627  2.4120  1.1324
 2128TIP3   OH227874   1.758   3.558   5.984  0.1831 -0.0093  0.4008
 2128TIP3    H127875   1.818   3.611   5.932  0.1090 -0.1740  0.1464
 2128TIP3    H227876   1.775   3.468   5.956  2.0784 -0.4255  2.5648
 2129TIP3   OH227877   4.639   4.820   0.043 -0.2735 -0.0278  0.3583
 2129TIP3    H127878   4.579   4.793   0.112 -0.1966 -0.8988  0.0974
 2129TIP3    H227879   4.583   4.862  -0.023 -0.4722 -0.0102  0.5366
 2130TIP3   OH227880   1.893   4.929  12.395 -0.2282  0.0571  0.3434
 2130TIP3    H127881   1.848   5.013  12.406  0.7589  1.1986 -3.1980
 2130TIP3    H227882   1.986   4.952  12.391  0.1472 -1.3581  0.2973
 2131TIP3   OH227883   4.849   0.364  14.780 -0.5064  0.2018  0.2736
 2131TIP3    H127884   4.919   0.338  14.839 -1.4322 -0.9093  0.9258
 2131TIP3    H227885   4.869   0.317  14.698 -0.3987  0.0330  0.3966
 2132TIP3   OH227886   1.346   0.866   1.081  0.2081 -0.3122  0.3560
 2132TIP3    H127887   1.348   0.961   1.091  0.0501 -0.0553 -1.6058
 2132TIP3    H227888   1.266   0.849   1.031  0.3266 -1.4590  0.5370
 2133TIP3   OH227889   2.503   5.421   2.799  0.1266  0.0684 -0.5337
 2133TIP3    H127890   2.594   5.442   2.774  0.2487  1.0153  0.6255
 2133TIP3    H227891   2.511   5.371   2.880 -0.3685 -0.8198 -1.0125
 2134TIP3   OH227892   4.446   4.545   5.079  0.1795  0.2009  0.1242
 2134TIP3    H127893   4.387   4.584   5.014  1.7693 -0.1991 -1.6524
 2134TIP3    H227894   4.522   4.603   5.080  1.4842 -1.4233 -0.6749
 2135TIP3   OH227895   2.277   5.402  16.413 -0.4936  0.1214 -0.2260
 2135TIP3    H127896   2.208   5.422  16.350  0.4048 -1.6172 -1.8526
 2135TIP3    H227897   2.234   5.347  16.479 -0.9348 -0.0212 -0.6277
 2136TIP3   OH227898   4.558   0.788  11.953 -0.1445  0.1898 -0.1003
 2136TIP3    H127899   4.585   0.855  12.016 -0.1311  1.8101 -1.7457
 2136TIP3    H227900   4.467   0.808  11.933 -0.8568 -1.6648  0.9963
 2137TIP3   OH227901   4.549   5.613  14.161 -0.4486 -0.1038  0.8314
 2137TIP3    H127902   4.637   5.646  14.182  0.6760 -2.3892 -0.0053
 2137TIP3    H227903   4.513   5.677  14.100  2.4529 -1.2586 -2.3686
 2138TIP3   OH227904   0.760   5.104   4.720  0.2281 -0.2419  0.3203
 2138TIP3    H127905   0.755   5.039   4.790 -0.4259  0.0600  0.5554
 2138TIP3    H227906   0.832   5.161   4.747  1.3013 -1.2708 -0.2502
 2139TIP3   OH227907   6.022   4.490   0.066 -0.0662  0.0718  0.2778
 2139TIP3    H127908   5.944   4.438   0.089 -0.3119  1.1112  1.9524
 2139TIP3    H227909   6.025   4.559   0.132  0.6811  1.7697 -1.4410
 2140TIP3   OH227910   2.212   0.184   5.318  0.1653  0.0337  0.0179
 2140TIP3    H127911   2.301   0.219   5.324  1.0147 -1.8566 -0.7763
 2140TIP3    H227912   2.210   0.113   5.382 -1.0285  0.5243  0.5500
 2141TIP3   OH227913   5.886   6.358   5.871  0.8422 -0.3645  0.1545
 2141TIP3    H127914   5.836   6.292   5.823 -0.0049  0.6581 -0.4120
 2141TIP3    H227915   5.887   6.327   5.961 -0.4913 -0.6040  0.0972
 2142TIP3   OH227916   1.654   1.542   6.267  0.2916 -0.0364  0.0943
 2142TIP3    H127917   1.633   1.566   6.358  2.7124  0.8185  0.4932
 2142TIP3    H227918   1.592   1.471   6.247 -0.5401 -0.0276  2.2760
 2143TIP3   OH227919   2.162   1.591   3.148  0.3035  0.0182 -0.7686
 2143TIP3    H127920   2.106   1.654   3.193 -0.2298 -0.7806 -0.2846
 2143TIP3    H227921   2.241   1.640   3.127  0.0113  0.7756 -0.1613
 2144TIP3   OH227922   3.858   6.055  10.978 -0.0724  0.3024 -0.1506
 2144TIP3    H127923   3.836   6.023  11.066  2.3196 -0.0265  0.4091
 2144TIP3    H227924   3.875   5.975  10.927 -1.3920  0.4953 -0.9423
 2145TIP3   OH227925   0.741   5.065  11.218  0.3705  0.5527 -0.6008
 2145TIP3    H127926   0.773   5.072  11.308  0.2916  0.1431 -0.5402
 2145TIP3    H227927   0.656   5.022  11.226  0.6149  0.0048 -0.9222
 2146TIP3   OH227928   2.231   0.991  12.163 -0.1045  0.3673  0.0687
 2146TIP3    H127929   2.323   0.975  12.180 -0.1237  1.8582  1.9396
 2146TIP3    H227930   2.197   0.907  12.131  1.7079 -0.4329  0.1567
 2147TIP3   OH227931   0.634   3.923   1.958  0.0878  0.0082 -0.3238
 2147TIP3    H127932   0.690   3.968   2.022  0.8297  0.4796 -1.2886
 2147TIP3    H227933   0.659   3.831   1.965 -1.1686 -0.2598  1.3879
 2148TIP3   OH227934   6.305   5.011  14.446 -0.1808  0.0463  0.2243
 2148TIP3    H127935   6.245   5.078  14.479 -1.6840 -1.4471  0.6654
 2148TIP3    H227936   6.248   4.939  14.418  1.3877 -1.6911  1.2151
 2149TIP3   OH227937   5.426   1.777  16.602 -0.6907  0.7272  0.2206
 2149TIP3    H127938   5.444   1.827  16.682  0.5513  0.9012 -0.1493
 2149TIP3    H227939   5.478   1.697  16.612 -0.6112  0.7043 -0.3574
 2150TIP3   OH227940   6.009   2.277   2.405  0.0455  0.6193  0.2266
 2150TIP3    H127941   5.979   2.212   2.342  0.4080  1.2606 -0.6179
 2150TIP3    H227942   5.971   2.249   2.489  1.9470 -1.9587  0.3602
 2151TIP3   OH227943   3.557   0.460   2.506  0.0258  0.3404  0.1587
 2151TIP3    H127944   3.512   0.501   2.432 -0.3080  0.1521  0.2563
 2151TIP3    H227945   3.546   0.366   2.492  2.3865  0.1729 -1.0844
 2152TIP3   OH227946   4.284   3.441  13.701  0.1738  0.3990 -0.0070
 2152TIP3    H127947   4.257   3.519  13.751 -0.4183  0.0295  0.2616
 2152TIP3    H227948   4.298   3.374  13.768 -0.8151 -0.1578 -0.3476
 2153TIP3   OH227949   1.821   0.862  12.627 -0.1237 -0.1301 -0.3823
 2153TIP3    H127950   1.837   0.948  12.589 -0.7498  0.3097  0.3126
 2153TIP3    H227951   1.741   0.874  12.679  0.5891 -0.7555  0.8863
 2154TIP3   OH227952   5.344   1.320   4.321 -0.5200 -0.0873  0.1670
 2154TIP3    H127953   5.400   1.350   4.393 -0.8730 -0.1061  0.4523
 2154TIP3    H227954   5.305   1.400   4.287  0.6042  0.0637 -0.8242
 2155TIP3   OH227955   2.797   6.273   0.373 -0.5759 -0.2407  0.1242
 2155TIP3    H127956   2.706   6.250   0.390 -0.4791 -2.5593 -1.9630
 2155TIP3    H227957   2.836   6.193   0.337  1.9701  1.0450 -0.2307
 2156TIP3   OH227958   0.600   5.645   0.427 -0.2535  0.2663  0.0648
 2156TIP3    H127959   0.544   5.722   0.417  1.3612  1.4816  0.0738
 2156TIP3    H227960   0.566   5.582   0.363 -0.5062  1.6552 -1.2240
 2157TIP3   OH227961   2.000   2.313  13.816  0.5217  0.0413  0.0512
 2157TIP3    H127962   1.961   2.347  13.897  0.3495  1.4022 -0.5604
 2157TIP3    H227963   2.025   2.224  13.836  1.2812  0.6290  1.8761
 2158TIP3   OH227964   2.035   5.214  15.213 -0.0333  0.5588 -0.9014
 2158TIP3    H127965   2.065   5.271  15.142  2.8117  0.0416 -0.2635
 2158TIP3    H227966   1.985   5.272  15.271  2.4092  2.4134 -0.5003
 2159TIP3   OH227967   5.572   2.043  13.696  0.2452 -0.5572  0.2148
 2159TIP3    H127968   5.528   2.121  13.661  0.9290  0.0258  0.6193
 2159TIP3    H227969   5.588   2.064  13.788  0.4084 -1.1989  0.3390
 2160TIP3   OH227970   5.545   5.947   1.084  0.0279 -0.2382  0.0276
 2160TIP3    H127971   5.540   6.000   1.163 -1.9225 -1.2237  0.6382
 2160TIP3    H227972   5.460   5.902   1.080  1.0925 -2.2958 -1.1398
 2161TIP3   OH227973   4.136   0.534  14.409  0.2074  0.0526  0.9834
 2161TIP3    H127974   4.179   0.620  14.413 -0.4517  0.4435  0.0266
 2161TIP3    H227975   4.154   0.502  14.321 -1.9741  0.5410  0.2785
 2162TIP3   OH227976   4.386   4.582   5.871  0.3432  0.3279 -0.2424
 2162TIP3    H127977   4.456   4.596   5.807  2.8467 -0.6150  2.1023
 2162TIP3    H227978   4.406   4.642   5.943  0.0499 -1.4480  1.4163
 2163TIP3   OH227979   1.292   4.640   1.334  0.4589 -0.6372 -0.7525
 2163TIP3    H127980   1.244   4.574   1.284  1.8155 -0.9287 -1.7235
 2163TIP3    H227981   1.383   4.611   1.332  0.6093 -0.5258  1.7449
 2164TIP3   OH227982   4.425   0.876  14.887 -0.1279 -0.0634  0.6025
 2164TIP3    H127983   4.420   0.969  14.912 -1.5441 -0.2092  0.9837
 2164TIP3    H227984   4.356   0.834  14.939 -0.2436 -1.1432 -0.3887
 2165TIP3   OH227985   5.002   5.446  11.840 -0.1280  0.3819 -0.2992
 2165TIP3    H127986   5.073   5.509  11.824  0.7895 -1.0112 -2.2170
 2165TIP3    H227987   4.922   5.495  11.823  0.6113  0.4265 -5.1797
 2166TIP3   OH227988   0.149   0.742   0.723  0.0994  0.1893 -0.3059
 2166TIP3    H127989   0.123   0.741   0.816  2.3523 -2.0955  0.4237
 2166TIP3    H227990   0.170   0.650   0.704 -0.6356  0.5533 -3.2220
 2167TIP3   OH227991   6.524   0.963  11.374 -0.6385  0.5625 -0.3982
 2167TIP3    H127992   6.507   0.943  11.282 -0.8626  0.3245 -0.3047
 2167TIP3    H227993   6.469   0.902  11.423 -1.1113  1.2021 -0.1085
 2168TIP3   OH227994   4.438   0.261   3.843 -0.4142  0.2499  0.4294
 2168TIP3    H127995   4.368   0.204   3.873 -0.8915 -0.4321 -1.7911
 2168TIP3    H227996   4.420   0.274   3.750  1.8164  0.9435  0.0411
 2169TIP3   OH227997   6.203   1.006  13.673  0.0750 -0.8628 -0.0708
 2169TIP3    H127998   6.233   1.060  13.600  0.1943 -0.8115  0.0148
 2169TIP3    H227999   6.279   1.000  13.731  0.0219 -1.0143 -0.0162
 2170TIP3   OH228000   6.444   3.522   3.661 -0.8887 -0.3608 -0.0021
 2170TIP3    H128001   6.473   3.604   3.621 -1.0080 -0.7388 -0.8830
 2170TIP3    H228002   6.358   3.505   3.622 -0.4605 -1.3744 -0.5530
 2171TIP3   OH228003   4.241   6.480   1.458  0.2719  0.1199 -0.3732
 2171TIP3    H128004   4.199   6.394   1.458 -0.1277  0.2815 -2.0518
 2171TIP3    H228005   4.241   6.507   1.366 -0.2480  2.2247  0.1791
 2172TIP3   OH228006   3.489   6.549   2.852 -0.0679 -0.0934  0.2047
 2172TIP3    H128007   3.421   6.562   2.787 -0.3208  1.1427  0.6883
 2172TIP3    H228008   3.568   6.583   2.812 -0.4320  1.6659  0.9070
 2173TIP3   OH228009   0.240   5.753  14.944  0.3409  0.0719  0.6651
 2173TIP3    H128010   0.245   5.659  14.961  0.0125 -0.2913 -1.0586
 2173TIP3    H228011   0.293   5.793  15.013  0.4204 -1.3652  1.4660
 2174TIP3   OH228012   4.347   5.187   2.360  0.5900  0.1721  0.3953
 2174TIP3    H128013   4.436   5.209   2.331 -0.0450  2.4670  0.0159
 2174TIP3    H228014   4.325   5.107   2.312  2.0810  0.1105 -0.2410
 2175TIP3   OH228015   4.918   5.882  15.208 -0.3825 -0.0583  0.2173
 2175TIP3    H128016   4.880   5.860  15.123  0.6232 -0.1022 -0.2299
 2175TIP3    H228017   4.868   5.829  15.270  0.0318 -1.3674 -0.5289
 2176TIP3   OH228018   4.284   1.547  16.354 -0.1975  0.5191 -0.4595
 2176TIP3    H128019   4.215   1.493  16.392  0.4241  1.7824  2.7468
 2176TIP3    H228020   4.366   1.505  16.380  0.3605  0.0025 -2.7650
 2177TIP3   OH228021   5.841   5.890   2.390 -0.1406  0.1201 -0.0107
 2177TIP3    H128022   5.876   5.876   2.302  1.9791  0.0371  0.7942
 2177TIP3    H228023   5.823   5.984   2.394 -1.7281 -0.1058 -1.0103
 2178TIP3   OH228024   5.044   0.336   0.271 -0.8444  0.7513  0.7954
 2178TIP3    H128025   5.054   0.246   0.304 -0.1176 -0.2466 -1.9072
 2178TIP3    H228026   4.958   0.336   0.228 -0.9534  1.4315  1.0062
 2179TIP3   OH228027   1.170   4.585  14.918  0.1480  0.5295 -0.4441
 2179TIP3    H128028   1.181   4.563  14.825 -0.9221  0.4361 -0.5610
 2179TIP3    H228029   1.196   4.506  14.965 -3.3516 -1.0497 -0.8461
 2180TIP3   OH228030   3.417   5.286  11.349 -0.2737  0.3255 -0.1358
 2180TIP3    H128031   3.411   5.197  11.384 -1.3118 -0.2566 -1.6802
 2180TIP3    H228032   3.327   5.310  11.329  0.1389  1.1192 -1.1567
 2181TIP3   OH228033   1.153   2.890   5.805 -0.2641 -0.0357  0.1687
 2181TIP3    H128034   1.135   2.842   5.887 -0.4637  0.0985  0.2037
 2181TIP3    H228035   1.229   2.944   5.826 -0.4429  0.1557  0.3311
 2182TIP3   OH228036   3.072   1.935  11.481  0.5766 -0.5174  0.7350
 2182TIP3    H128037   2.977   1.938  11.469  0.4224 -0.2348  1.8851
 2182TIP3    H228038   3.099   2.027  11.481  0.6399 -0.5223  1.8256
 2183TIP3   OH228039   6.749   1.463  16.408 -0.2122  0.0946 -0.1027
 2183TIP3    H128040   6.765   1.384  16.460  0.0191  0.5470  0.5218
 2183TIP3    H228041   6.667   1.445  16.363 -0.5697 -0.2019  0.6389
 2184TIP3   OH228042   4.779   2.380   4.885 -0.1781 -0.0885 -0.4910
 2184TIP3    H128043   4.791   2.303   4.830  0.5333  0.4504 -1.1221
 2184TIP3    H228044   4.711   2.431   4.841 -0.5643 -0.2906 -0.1383
 2185TIP3   OH228045   3.793   4.362   0.636  0.5879 -0.1030 -0.3596
 2185TIP3    H128046   3.842   4.301   0.580  1.9605  0.5781  0.0541
 2185TIP3    H228047   3.732   4.405   0.577  0.0580 -1.3773 -0.7860
 2186TIP3   OH228048   0.666   5.294   3.413  0.1722 -0.1705 -0.2307
 2186TIP3    H128049   0.664   5.228   3.343 -2.9033  0.2953 -0.7078
 2186TIP3    H228050   0.584   5.281   3.460 -0.7216  3.4352 -0.5224
 2187TIP3   OH228051   0.603   0.720  13.194 -0.0192  0.4610  0.3860
 2187TIP3    H128052   0.579   0.653  13.258 -0.4288  0.0725 -0.1724
 2187TIP3    H228053   0.690   0.694  13.164  0.1957  0.6709  0.8148
 2188TIP3   OH228054   1.401   5.094   1.118 -0.4235  0.0176 -0.6865
 2188TIP3    H128055   1.316   5.099   1.162 -0.1361 -1.8858  0.1953
 2188TIP3    H228056   1.425   5.002   1.123  1.2300  0.3387 -1.8468
 2189TIP3   OH228057   4.867   1.047   3.713 -0.8330  0.3787 -0.1107
 2189TIP3    H128058   4.839   1.135   3.687  0.3133  0.8962  0.3443
 2189TIP3    H228059   4.808   0.988   3.667 -0.6471  1.3473 -1.6373
 2190TIP3   OH228060   5.385   0.636  12.852 -0.4369  0.0398  0.3742
 2190TIP3    H128061   5.328   0.710  12.875 -0.2377  1.0517 -2.0787
 2190TIP3    H228062   5.456   0.640  12.915 -0.6512  1.7233  0.5564
 2191TIP3   OH228063   3.247   4.364  14.893 -0.1227  0.3793  0.2232
 2191TIP3    H128064   3.201   4.409  14.821 -0.7308 -0.3208  0.1659
 2191TIP3    H228065   3.339   4.391  14.882  0.1238 -1.0239 -1.8761
 2192TIP3   OH228066   0.987   5.780  11.009 -0.9525  0.3848 -0.4977
 2192TIP3    H128067   0.933   5.813  10.937 -0.9106  0.8728 -0.3083
 2192TIP3    H228068   0.929   5.718  11.055 -0.6679 -0.6332 -1.4891
 2193TIP3   OH228069   4.669   2.773   5.418  0.5091  0.2833 -0.3399
 2193TIP3    H128070   4.592   2.723   5.390  1.5870 -0.0764 -3.0247
 2193TIP3    H228071   4.645   2.864   5.401  0.3268  0.2513 -0.2552
 2194TIP3   OH228072   4.610   5.713   0.309  0.0307 -0.3253 -0.1171
 2194TIP3    H128073   4.687   5.667   0.277  0.1428 -0.8997  0.9262
 2194TIP3    H228074   4.644   5.796   0.344 -0.1921  0.7031 -2.1548
 2195TIP3   OH228075   3.830   4.124  15.387 -0.0154 -0.3736 -0.9397
 2195TIP3    H128076   3.906   4.170  15.351  1.1513 -1.8117 -0.3596
 2195TIP3    H228077   3.755   4.176  15.357  1.1764  1.0629 -1.5318
 2196TIP3   OH228078   2.901   2.870   0.668 -0.0549  0.1123  0.2370
 2196TIP3    H128079   2.820   2.823   0.647  0.5568 -0.8168 -0.0770
 2196TIP3    H228080   2.880   2.962   0.650 -1.5259  0.1026  1.6408
 2197TIP3   OH228081   2.107   6.711  11.970  0.1337  0.6055 -0.1153
 2197TIP3    H128082   2.082   6.651  12.041 -0.5558  0.1328 -0.7463
 2197TIP3    H228083   2.097   6.660  11.890  0.0021  1.4093 -0.6314
 2198TIP3   OH228084   0.114   3.496   5.405 -0.0829  0.0117 -0.3133
 2198TIP3    H128085   0.037   3.540   5.367  1.4936  1.1648 -2.4130
 2198TIP3    H228086   0.078   3.431   5.465 -2.7189  0.1206 -1.6417
 2199TIP3   OH228087   1.321   4.088   0.849  0.1396  0.2596  0.6395
 2199TIP3    H128088   1.281   4.057   0.768 -0.4533  0.4581  0.8489
 2199TIP3    H228089   1.389   4.024   0.869 -1.3096 -1.1336  1.2786
 2200TIP3   OH228090   2.072   6.473  14.780  0.4330  0.0397  0.3959
 2200TIP3    H128091   2.015   6.416  14.728  2.1259 -0.0589 -1.5193
 2200TIP3    H228092   2.023   6.554  14.790 -0.4100 -0.3527 -0.3772
 2201TIP3   OH228093   3.080   5.470  13.715  0.1031 -0.1060  0.2420
 2201TIP3    H128094   3.008   5.420  13.753 -0.3626 -0.3846 -0.9316
 2201TIP3    H228095   3.132   5.405  13.667  0.6987  0.2128  0.4484
 2202TIP3   OH228096   0.910   3.180  13.005  0.3867  0.6373 -0.2865
 2202TIP3    H128097   0.859   3.112  12.961 -0.4437  1.1982 -0.2298
 2202TIP3    H228098   0.977   3.133  13.054 -0.1802 -0.1326 -0.2375
 2203TIP3   OH228099   0.622   6.170   1.708  0.3831 -0.2011 -0.2522
 2203TIP3    H128100   0.707   6.165   1.664 -0.0895  0.6069 -1.3033
 2203TIP3    H228101   0.626   6.252   1.756 -0.6022  1.0231 -2.1356
 2204TIP3   OH228102   0.216   5.604  13.081  0.4382 -0.0114 -0.5089
 2204TIP3    H128103   0.176   5.653  13.153  0.4390  0.6091 -0.9186
 2204TIP3    H228104   0.234   5.671  13.014  0.0301 -0.6435 -1.2685
 2205TIP3   OH228105   1.759   1.855   3.804  0.6610 -0.4426  0.0903
 2205TIP3    H128106   1.817   1.909   3.859  1.6196 -1.6904  0.3439
 2205TIP3    H228107   1.671   1.881   3.830  1.0022  2.5699 -1.3158
 2206TIP3   OH228108   0.882   2.884   5.257  0.4423 -0.3569 -0.0808
 2206TIP3    H128109   0.912   2.891   5.348 -1.1083  2.1342  0.3340
 2206TIP3    H228110   0.796   2.841   5.264  1.0645 -1.7494 -0.6032
 2207TIP3   OH228111   2.864   4.385   5.711  0.0512 -0.2435  0.0609
 2207TIP3    H128112   2.789   4.361   5.764 -1.4999 -0.2221 -1.9795
 2207TIP3    H228113   2.867   4.480   5.714  0.2865 -0.2629  0.4986
 2208TIP3   OH228114   6.770   6.315  12.924 -0.0303  0.3346  0.4929
 2208TIP3    H128115   6.767   6.385  12.990  1.3820  1.0300 -0.1445
 2208TIP3    H228116   6.784   6.235  12.975  0.0887  0.7370  1.1063
 2209TIP3   OH228117   1.468   6.230   6.309 -0.3831 -0.2376  0.2516
 2209TIP3    H128118   1.476   6.320   6.341  0.1410  0.2189 -1.0813
 2209TIP3    H228119   1.511   6.177   6.375 -1.7861  0.3294  1.6817
 2210TIP3   OH228120   0.045   5.392   2.452 -0.0861 -0.1936 -0.4791
 2210TIP3    H128121   0.113   5.326   2.460  2.8247  2.5977 -0.4003
 2210TIP3    H228122   0.012   5.405   2.541  2.2374  1.2044  0.2493
 2211TIP3   OH228123   3.597   2.108   4.756  0.6000  0.1978  0.4325
 2211TIP3    H128124   3.659   2.113   4.829  1.2694 -1.4236  0.0278
 2211TIP3    H228125   3.549   2.026   4.772 -2.6793  2.1739  1.6322
 2212TIP3   OH228126   5.506   5.289  17.223  0.0182  0.1921 -0.5423
 2212TIP3    H128127   5.582   5.346  17.210  0.7553 -0.8416 -0.9186
 2212TIP3    H228128   5.455   5.332  17.292  0.4517  1.3873 -0.9438
 2213TIP3   OH228129   0.550   5.914   1.301 -0.5329 -0.8296  0.2751
 2213TIP3    H128130   0.508   5.960   1.373 -0.6979  1.2990 -1.1079
 2213TIP3    H228131   0.618   5.861   1.343 -1.3989 -0.5851  2.0718
 2214TIP3   OH228132   2.584   4.228   5.708  0.8584 -0.0517 -0.1169
 2214TIP3    H128133   2.631   4.296   5.755 -3.4782  3.8825 -0.7624
 2214TIP3    H228134   2.598   4.248   5.615 -0.0982 -0.2432 -0.3189
 2215TIP3   OH228135   2.524   0.616  15.784 -0.1180 -0.1610  0.1295
 2215TIP3    H128136   2.490   0.637  15.871  1.1514  0.6059  0.4511
 2215TIP3    H228137   2.525   0.520  15.782 -0.3654 -0.1867  0.8692
 2216TIP3   OH228138   1.163   1.520  13.762  0.0943  0.0499  0.2090
 2216TIP3    H128139   1.222   1.570  13.706 -0.7660  0.8136 -0.0545
 2216TIP3    H228140   1.217   1.451  13.799  0.5099 -1.0788 -2.2719
 2217TIP3   OH228141   3.171   1.067  11.726  0.0277 -0.0009 -0.0889
 2217TIP3    H128142   3.152   1.148  11.679 -0.7534 -0.5187 -0.6981
 2217TIP3    H228143   3.209   1.095  11.809 -0.7274  1.0103 -0.0645
 2218TIP3   OH228144   3.509   2.891   2.427 -0.2698  0.0132 -0.2658
 2218TIP3    H128145   3.597   2.905   2.463 -0.2095 -0.4358 -0.2216
 2218TIP3    H228146   3.489   2.800   2.450 -0.4771 -0.0936 -0.8454
 2219TIP3   OH228147   5.775   2.704   1.590  0.5113  1.1013 -0.1836
 2219TIP3    H128148   5.866   2.729   1.599  0.3948  1.1161  1.3096
 2219TIP3    H228149   5.745   2.690   1.680 -1.0346  1.3811 -0.6131
 2220TIP3   OH228150   3.703   0.100   5.772 -0.5046 -0.0155 -0.0686
 2220TIP3    H128151   3.740   0.095   5.684 -0.0416 -0.8026  0.1656
 2220TIP3    H228152   3.755   0.166   5.817  0.3799 -0.8324  0.1341
 2221TIP3   OH228153   4.793   4.829   1.042 -0.1310  0.3341 -0.2487
 2221TIP3    H128154   4.877   4.864   1.072  0.8250 -0.3443 -1.9359
 2221TIP3    H228155   4.745   4.905   1.009  0.2738  0.5957 -0.2388
 2222TIP3   OH228156   1.314   2.548  13.453  0.1157 -0.1407 -0.2613
 2222TIP3    H128157   1.340   2.476  13.395  1.7949 -0.5281  0.9126
 2222TIP3    H228158   1.332   2.515  13.541  0.8584  1.6958  0.3154
 2223TIP3   OH228159   5.678   6.782   1.255  0.2656 -0.5840  0.8343
 2223TIP3    H128160   5.760   6.820   1.287 -0.0439 -0.8807  2.0254
 2223TIP3    H228161   5.611   6.815   1.315 -0.3669 -1.0020  0.3723
 2224TIP3   OH228162   3.320   5.076   3.947  0.0149 -0.3938  0.2013
 2224TIP3    H128163   3.409   5.046   3.964  0.0480 -0.6366 -0.3867
 2224TIP3    H228164   3.268   5.041   4.019  0.1272 -1.5184 -0.2511
 2225TIP3   OH228165   5.918   5.721   1.757  0.0895  0.0321  0.1557
 2225TIP3    H128166   5.890   5.689   1.843  2.1678  1.0043  1.2571
 2225TIP3    H228167   5.990   5.780   1.776  1.9723 -1.2691 -2.3830
 2226TIP3   OH228168   6.604   1.164  14.533  0.7915  0.8977 -0.0591
 2226TIP3    H128169   6.567   1.140  14.448 -2.5695  0.7931  1.2729
 2226TIP3    H228170   6.617   1.080  14.578 -0.2259  1.0186  0.5107
 2227TIP3   OH228171   0.110   4.099   3.191  0.5789  0.2329 -0.1179
 2227TIP3    H128172   0.160   4.174   3.161  0.4652 -0.5455 -2.4174
 2227TIP3    H228173   0.018   4.122   3.176  0.5908 -0.8250 -2.1889
 2228TIP3   OH228174   4.307   2.943   5.159 -0.1291  0.6989 -0.5415
 2228TIP3    H128175   4.339   3.023   5.117  1.4678 -0.1838 -1.0900
 2228TIP3    H228176   4.234   2.915   5.105  0.8118  0.5132 -1.7599
 2229TIP3   OH228177   4.055   4.958  13.019  0.3961  0.0018 -0.8789
 2229TIP3    H128178   4.036   4.964  13.113 -0.2265  1.3756 -1.0773
 2229TIP3    H228179   4.129   5.017  13.006  1.0879 -0.8852 -1.1239
 2230TIP3   OH228180   6.120   3.300   3.631  0.0266  0.2877 -0.2956
 2230TIP3    H128181   6.150   3.243   3.702  0.4251  2.3570  1.2771
 2230TIP3    H228182   6.026   3.312   3.648  0.3220  1.6310  0.5856
 2231TIP3   OH228183   6.475   4.555  13.239 -0.1414 -0.1079  0.0419
 2231TIP3    H128184   6.485   4.630  13.299  0.1070 -1.4004  1.6809
 2231TIP3    H228185   6.381   4.541  13.233 -0.1628 -0.0300  0.1995
 2232TIP3   OH228186   3.126   5.722  13.789  0.0595  0.3012  0.3807
 2232TIP3    H128187   3.219   5.732  13.810  0.8739  0.4818 -2.8402
 2232TIP3    H228188   3.116   5.628  13.772 -0.3620  0.2964  0.6333
 2233TIP3   OH228189   0.867   4.089   2.483 -0.2438  0.1169  0.0211
 2233TIP3    H128190   0.962   4.085   2.470  0.0552  0.9774  1.5741
 2233TIP3    H228191   0.857   4.134   2.567 -2.0000 -1.2985  0.6270
 2234TIP3   OH228192   4.020   4.935  15.090 -0.0754  0.0734  0.7954
 2234TIP3    H128193   3.996   4.864  15.029  0.3661  0.2047  0.4656
 2234TIP3    H228194   4.091   4.898  15.142  1.1367  0.7314 -0.3218
 2235TIP3   OH228195   4.461   1.816  14.636 -0.4881 -0.4394  0.0345
 2235TIP3    H128196   4.409   1.847  14.709 -1.6741  0.2620 -1.0722
 2235TIP3    H228197   4.407   1.832  14.559  0.6842 -1.2395 -0.9984
 2236TIP3   OH228198   5.650   6.335   1.416 -0.3911 -0.7757  0.0333
 2236TIP3    H128199   5.737   6.296   1.427  0.1119 -0.1049 -1.3289
 2236TIP3    H228200   5.618   6.348   1.505  1.4519  0.1721  0.6018
 2237TIP3   OH228201   6.417   0.937  13.482 -0.0865  0.6728  0.2636
 2237TIP3    H128202   6.345   0.889  13.440 -2.1398  1.9894  2.0710
 2237TIP3    H228203   6.440   0.884  13.558  2.2400 -0.6698 -1.2319
 2238TIP3   OH228204   6.368   3.707  13.231  0.0481 -0.0247  0.5055
 2238TIP3    H128205   6.367   3.665  13.145 -0.0647  1.3099 -0.1667
 2238TIP3    H228206   6.279   3.741  13.243  0.2698  0.4810  0.7900
 2239TIP3   OH228207   4.891   1.110   4.148  0.7075 -0.1797 -0.2780
 2239TIP3    H128208   4.821   1.175   4.159  1.6812  0.7217  0.8070
 2239TIP3    H228209   4.844   1.026   4.145 -0.4442  0.4100  0.2619
 2240TIP3   OH228210   0.187   2.620  16.665 -0.1176  0.0232 -0.3121
 2240TIP3    H128211   0.099   2.601  16.697 -0.0566  0.3867  0.0784
 2240TIP3    H228212   0.232   2.660  16.740  0.7320 -1.1684 -0.1425
 2241TIP3   OH228213   2.704   4.249  11.165  0.1416 -0.0223  0.7373
 2241TIP3    H128214   2.716   4.220  11.074 -0.3408 -1.1122  0.9966
 2241TIP3    H228215   2.737   4.338  11.167 -0.9114  0.4428 -0.7953
 2242TIP3   OH228216   5.205   6.290   1.676 -0.3255  0.1592 -0.1873
 2242TIP3    H128217   5.144   6.217   1.662 -1.6788  1.2045  0.0362
 2242TIP3    H228218   5.174   6.358   1.616 -0.1103  1.1374  0.7964
 2243TIP3   OH228219   5.172   2.983   2.877 -0.3831 -0.2709 -0.5571
 2243TIP3    H128220   5.229   2.970   2.952 -0.3851  0.6921 -0.3816
 2243TIP3    H228221   5.108   2.911   2.883 -0.6022 -0.0026  0.5653
 2244TIP3   OH228222   4.821   6.128   0.620  0.0950  0.3558  0.2611
 2244TIP3    H128223   4.842   6.043   0.658 -1.1062 -0.3533 -0.6076
 2244TIP3    H228224   4.864   6.191   0.678 -1.3803 -0.6812  2.6010
 2245TIP3   OH228225   1.168   2.930  11.927 -0.5301  0.5564 -0.3738
 2245TIP3    H128226   1.211   2.852  11.962  0.3877  0.8371 -0.8437
 2245TIP3    H228227   1.227   3.002  11.949 -1.6528  1.2090  0.5736
 2246TIP3   OH228228   4.990   4.623   2.495  0.7127  0.1994  0.7107
 2246TIP3    H128229   4.970   4.540   2.451  1.8013  0.9697 -1.3411
 2246TIP3    H228230   4.934   4.687   2.452 -1.6181  0.3564  3.6061
 2247TIP3   OH228231   3.920   2.851   0.268 -0.2194  0.5604  0.4066
 2247TIP3    H128232   3.848   2.819   0.214  0.5771  0.4016 -0.6067
 2247TIP3    H228233   3.996   2.848   0.210  0.6616  0.4544  1.5351
 2248TIP3   OH228234   1.709   4.380  13.100 -0.1359  0.1036  0.3195
 2248TIP3    H128235   1.785   4.337  13.060 -0.7528 -1.4186  0.7213
 2248TIP3    H228236   1.638   4.316  13.092 -0.9188  0.7813  1.5522
 2249TIP3   OH228237   3.949   4.412  15.499 -0.5968  0.1646  0.0242
 2249TIP3    H128238   3.968   4.342  15.562 -1.8341 -0.3058 -0.0923
 2249TIP3    H228239   4.007   4.484  15.524  0.3820 -0.7321  0.4303
 2250TIP3   OH228240   1.293   3.115   2.704  0.8989  0.6397 -0.9452
 2250TIP3    H128241   1.306   3.021   2.689 -0.5539  0.5792 -2.1100
 2250TIP3    H228242   1.328   3.156   2.625 -0.2224  0.9055 -1.3224
 2251TIP3   OH228243   2.374   4.874   6.697  0.1706  0.2263  0.3452
 2251TIP3    H128244   2.292   4.825   6.705  0.5900 -0.8093 -1.3082
 2251TIP3    H228245   2.412   4.871   6.785 -0.0303 -2.0797  0.4245
 2252TIP3   OH228246   3.632   2.912   1.994 -0.0323 -0.6774  0.8561
 2252TIP3    H128247   3.606   2.975   2.060  0.7291 -1.0862  1.5671
 2252TIP3    H228248   3.719   2.941   1.965 -1.5019  1.2431 -2.1958
 2253TIP3   OH228249   3.559   1.651   0.852 -0.0468  0.2172 -0.1719
 2253TIP3    H128250   3.533   1.631   0.942  0.4866  0.0699 -0.0479
 2253TIP3    H228251   3.587   1.743   0.854 -1.1413  0.5779 -0.4422
 2254TIP3   OH228252   5.060   0.718   3.591 -0.1404  0.6803 -0.1446
 2254TIP3    H128253   5.051   0.776   3.668  1.5047 -1.0885  1.4938
 2254TIP3    H228254   4.974   0.677   3.583 -0.5919  1.5102  0.2094
 2255TIP3   OH228255   3.096   1.352  13.170  0.1680 -0.9519  0.3936
 2255TIP3    H128256   3.113   1.399  13.088  0.7885  1.3188  1.7324
 2255TIP3    H228257   3.160   1.281  13.171 -0.6218 -1.7656 -1.5854
 2256TIP3   OH228258   1.487   3.062  13.866 -0.0469  0.7876 -0.1208
 2256TIP3    H128259   1.553   3.120  13.904 -1.5883  2.0136  0.8126
 2256TIP3    H228260   1.403   3.100  13.893 -1.1414 -1.6311  0.1595
 2257TIP3   OH228261   3.495   5.405  15.146  0.1912  0.3117  0.0366
 2257TIP3    H128262   3.487   5.374  15.056 -2.3541 -0.1976  0.3760
 2257TIP3    H228263   3.507   5.326  15.198 -0.8684  0.3552  0.3674
 2258TIP3   OH228264   0.616   0.319   4.903 -0.0469  0.2372  0.4970
 2258TIP3    H128265   0.568   0.374   4.841  0.8906  0.7580  0.2150
 2258TIP3    H228266   0.549   0.265   4.944 -1.1779  2.1898  1.4195
 2259TIP3   OH228267   0.100   1.710   3.304 -0.2791 -0.0054 -0.4126
 2259TIP3    H128268   0.037   1.781   3.317  0.2440  0.3073  0.5632
 2259TIP3    H228269   0.184   1.748   3.331  0.1096 -0.8030 -0.4814
 2260TIP3   OH228270   3.824   6.441   3.109  0.5333  0.1577  0.6535
 2260TIP3    H128271   3.747   6.384   3.117  1.5717 -1.3270  0.3641
 2260TIP3    H228272   3.810   6.508   3.176 -0.3699 -0.8498  1.5291
 2261TIP3   OH228273   2.750   6.090   4.229 -0.0081 -0.1884 -0.4883
 2261TIP3    H128274   2.805   6.081   4.151  1.5486 -0.6823  0.6064
 2261TIP3    H228275   2.768   6.179   4.260  0.0915 -0.3156 -0.1833
 2262TIP3   OH228276   2.300   0.784   4.866 -0.1631  0.1286  0.6797
 2262TIP3    H128277   2.347   0.703   4.883 -0.8907 -0.4834 -0.1541
 2262TIP3    H228278   2.263   0.809   4.951  0.9964  0.2101  1.1768
 2263TIP3   OH228279   4.191   3.852  14.722  0.5480  0.4126 -0.4375
 2263TIP3    H128280   4.096   3.840  14.713  0.1419  0.1582  2.9799
 2263TIP3    H228281   4.228   3.801  14.650 -1.8719 -0.7478 -0.9739
 2264TIP3   OH228282   1.586   5.736   2.284 -0.0787 -0.0076 -0.0343
 2264TIP3    H128283   1.629   5.652   2.300  0.6670  0.4013  0.1574
 2264TIP3    H228284   1.504   5.713   2.240 -1.2783 -1.0351  2.5454
 2265TIP3   OH228285   6.267   2.246   5.860  0.1790 -0.0221 -0.0059
 2265TIP3    H128286   6.226   2.332   5.858  1.5727  0.6589 -1.2041
 2265TIP3    H228287   6.300   2.237   5.949  0.8340  1.0989 -0.1213
 2266TIP3   OH228288   4.437   4.190   2.067 -0.2950  0.2009 -0.1531
 2266TIP3    H128289   4.468   4.115   2.117 -0.0909  1.0683  1.0649
 2266TIP3    H228290   4.422   4.156   1.978 -1.8759 -1.6887  0.7603
 2267TIP3   OH228291   1.296   5.521   6.712 -0.4041  0.2732  0.1320
 2267TIP3    H128292   1.305   5.576   6.790  1.7630  1.8985 -1.1656
 2267TIP3    H228293   1.206   5.538   6.682 -0.7475  0.8257  1.3706
 2268TIP3   OH228294   4.229   0.929  17.006  0.3644 -0.3048  0.3118
 2268TIP3    H128295   4.144   0.956  16.972  1.1699 -1.7207 -3.3142
 2268TIP3    H228296   4.280   1.010  17.015 -1.3677  0.6184  3.0236
 2269TIP3   OH228297   4.647   1.013  13.797  0.0458 -0.2095  0.0567
 2269TIP3    H128298   4.598   1.095  13.793  0.7810  0.2059 -0.4464
 2269TIP3    H228299   4.684   1.012  13.885  0.3744  0.1960 -0.0763
 2270TIP3   OH228300   0.247   3.856  11.868  0.2940 -0.0225  0.5194
 2270TIP3    H128301   0.191   3.922  11.908 -0.1808 -1.0029  1.5174
 2270TIP3    H228302   0.190   3.780  11.855  1.3142 -0.9913  1.4200
 2271TIP3   OH228303   4.594   5.071  17.138  0.2953  0.1971  0.1899
 2271TIP3    H128304   4.661   5.070  17.070  0.1243  0.5235  0.0118
 2271TIP3    H228305   4.642   5.085  17.219  0.6232 -1.4030  0.2972
 2272TIP3   OH228306   1.302   0.133  15.603  0.2518 -0.1090  0.2905
 2272TIP3    H128307   1.280   0.090  15.520  0.7438  0.5154 -0.1695
 2272TIP3    H228308   1.383   0.180  15.585 -0.4762  1.3314  0.6712
 2273TIP3   OH228309   3.610   0.929  14.585  0.0818 -0.1674  0.3056
 2273TIP3    H128310   3.564   0.951  14.666 -1.0436 -2.8158  0.5024
 2273TIP3    H228311   3.555   0.862  14.544  0.2171  1.6110 -3.1067
 2274TIP3   OH228312   4.686   2.826   0.811 -0.6042 -0.6238 -0.6764
 2274TIP3    H128313   4.698   2.773   0.889  0.7719 -1.0287 -1.1438
 2274TIP3    H228314   4.633   2.901   0.841  0.0814 -0.6539  0.6815
 2275TIP3   OH228315   6.267   6.530   0.430 -0.1169  0.3019  0.2994
 2275TIP3    H128316   6.233   6.452   0.386  0.4931 -1.0819  2.1255
 2275TIP3    H228317   6.189   6.573   0.466 -0.3217 -0.6755  1.0904
 2276TIP3   OH228318   1.103   0.271   5.436 -0.4197  0.0530  0.0268
 2276TIP3    H128319   1.104   0.208   5.508 -0.0430 -0.8697 -0.7611
 2276TIP3    H228320   1.106   0.356   5.479 -0.3314 -0.4739  1.1072
 2277TIP3   OH228321   1.549   5.547   5.320 -0.2584 -0.4431  0.2674
 2277TIP3    H128322   1.575   5.585   5.405 -0.4390 -2.4811  1.2961
 2277TIP3    H228323   1.629   5.504   5.289 -0.1598  0.4101 -0.6943
 2278TIP3   OH228324   5.843   3.849   1.374 -0.1594 -0.0251 -0.0278
 2278TIP3    H128325   5.871   3.896   1.296 -0.0816  0.4379  0.2735
 2278TIP3    H228326   5.878   3.761   1.362  1.5623  0.5504  0.3700
 2279TIP3   OH228327   2.864   5.987  11.462  0.7324 -0.1039  0.2246
 2279TIP3    H128328   2.854   5.951  11.373 -0.0069 -0.1139  0.3028
 2279TIP3    H228329   2.885   6.079  11.448  1.0617 -0.2073  0.0352
 2280TIP3   OH228330   1.813   6.754  16.515 -0.5214  0.4832 -0.5343
 2280TIP3    H128331   1.822   6.810  16.592 -0.6745  0.8624 -0.7826
 2280TIP3    H228332   1.778   6.672  16.548 -0.0166  0.4333 -0.1210
 2281TIP3   OH228333   6.362   1.252  14.649 -0.7325 -0.1094  0.2626
 2281TIP3    H128334   6.453   1.253  14.617 -0.4004 -1.6410  1.0407
 2281TIP3    H228335   6.370   1.230  14.741 -1.8321  1.5058  0.7801
 2282TIP3   OH228336   0.039   4.638  15.854 -0.2276 -0.1493 -0.3189
 2282TIP3    H128337   0.000   4.554  15.828 -0.2959 -0.2727  0.1622
 2282TIP3    H228338   0.127   4.637  15.816 -0.3049 -0.3450 -0.4943
 2283TIP3   OH228339   3.332   3.195  11.991  0.1778 -0.0237 -0.3581
 2283TIP3    H128340   3.273   3.264  12.021 -0.6065 -0.9180  0.1976
 2283TIP3    H228341   3.412   3.208  12.042 -0.3034 -0.1008  0.4229
 2284TIP3   OH228342   0.102   0.137   1.732  0.1108  0.3431 -0.1484
 2284TIP3    H128343   0.035   0.070   1.719 -0.0975  0.1709  1.5354
 2284TIP3    H228344   0.056   0.220   1.716 -0.5215  0.2265  0.9769
 2285TIP3   OH228345   6.738   3.881   2.911  0.0338  0.6900  0.4379
 2285TIP3    H128346   6.833   3.888   2.919  0.0379 -0.4686  1.6415
 2285TIP3    H228347   6.719   3.788   2.924 -1.1044  0.5451 -1.7968
 2286TIP3   OH228348   6.237   6.680   1.412 -0.1709  0.2556  0.2965
 2286TIP3    H128349   6.237   6.617   1.340 -1.0034 -1.0718  1.4084
 2286TIP3    H228350   6.325   6.718   1.411 -0.6168  1.4484 -2.3695
 2287TIP3   OH228351   2.484   6.319   5.706 -0.4699 -0.0624  0.3232
 2287TIP3    H128352   2.542   6.247   5.731 -1.3139 -1.2676 -1.0651
 2287TIP3    H228353   2.493   6.382   5.778  1.3349 -0.9132  0.9053
 2288TIP3   OH228354   0.136   2.729  11.976  0.1113  0.2405  0.1436
 2288TIP3    H128355   0.123   2.696  12.065  1.3651  0.3608  0.3835
 2288TIP3    H228356   0.145   2.650  11.923  0.8974  0.1721  0.3704
 2289TIP3   OH228357   1.364   6.036   2.799 -0.0168  0.1646  0.0289
 2289TIP3    H128358   1.382   6.125   2.830  0.0660 -0.1466  0.9031
 2289TIP3    H228359   1.448   5.990   2.807  0.1535  0.2229 -1.2211
 2290TIP3   OH228360   0.477   1.876  12.283  0.1235 -0.0794  0.5325
 2290TIP3    H128361   0.537   1.826  12.339  0.5780 -1.5758 -1.1968
 2290TIP3    H228362   0.534   1.938  12.237 -0.4006  1.9762  2.4622
 2291TIP3   OH228363   2.203   1.641   5.743  0.2389  0.9263 -0.1516
 2291TIP3    H128364   2.188   1.547   5.743  0.3677  0.8871 -1.1185
 2291TIP3    H228365   2.259   1.656   5.666  0.9080  1.6898  0.4617
 2292TIP3   OH228366   4.354   2.812  14.606 -0.1471 -0.5796  0.1754
 2292TIP3    H128367   4.434   2.863  14.595 -0.9580  1.0038  1.2256
 2292TIP3    H228368   4.297   2.867  14.660 -2.0872 -1.5049 -0.8034
 2293TIP3   OH228369   2.362   4.994  11.598 -0.1990  0.1971 -0.1406
 2293TIP3    H128370   2.289   5.053  11.575 -1.8145 -1.2431  1.0493
 2293TIP3    H228371   2.336   4.909  11.563  0.2654 -0.6327  1.4295
 2294TIP3   OH228372   1.036   3.823   3.003 -0.4701  0.3043 -0.2616
 2294TIP3    H128373   1.015   3.731   3.022 -2.1124  0.4648 -1.0739
 2294TIP3    H228374   1.038   3.866   3.088  1.2517 -0.6305  0.2155
 2295TIP3   OH228375   6.331   1.556  15.725  0.0755 -0.1191  0.7442
 2295TIP3    H128376   6.269   1.536  15.655  0.0149 -2.0514  1.2732
 2295TIP3    H228377   6.283   1.536  15.806  0.1086  2.1434  1.3997
 2296TIP3   OH228378   2.083   1.618   4.639  0.3843 -0.3712 -0.4409
 2296TIP3    H128379   2.038   1.610   4.554 -0.2153  2.7215 -0.5372
 2296TIP3    H228380   2.015   1.598   4.704  1.0494 -3.5851 -0.5494
 2297TIP3   OH228381   1.235   2.918  15.154 -0.1373  0.4247  0.3757
 2297TIP3    H128382   1.183   2.839  15.136 -0.1326  1.0584 -3.0942
 2297TIP3    H228383   1.256   2.911  15.247 -2.0349 -2.4924  0.7485
 2298TIP3   OH228384   2.693   1.731   5.699  0.2976  0.3823 -0.0612
 2298TIP3    H128385   2.604   1.706   5.724  0.2443  0.6468  0.0204
 2298TIP3    H228386   2.743   1.650   5.705  0.2419  0.3935  0.7183
 2299TIP3   OH228387   0.579   1.082   5.726  0.1440  0.4573 -0.4499
 2299TIP3    H128388   0.494   1.081   5.770  0.4334 -0.3102  0.1272
 2299TIP3    H228389   0.638   1.040   5.788  0.5177 -0.9184 -1.6832
 2300TIP3   OH228390   0.675   3.642   1.955  0.1057 -0.3182 -0.5824
 2300TIP3    H128391   0.626   3.576   1.906  0.4866 -0.8341 -0.2773
 2300TIP3    H228392   0.637   3.640   2.042  0.6058 -0.6709 -0.3640
 2301TIP3   OH228393   6.460   2.120  11.102  0.1433 -0.2655  0.3067
 2301TIP3    H128394   6.371   2.089  11.085  0.6269 -0.5515 -1.9965
 2301TIP3    H228395   6.516   2.060  11.053  1.3840  1.7590 -0.8572
 2302TIP3   OH228396   1.515   5.241  12.156 -0.2506 -0.2106  0.2866
 2302TIP3    H128397   1.443   5.304  12.148  0.0012  0.1001  0.4622
 2302TIP3    H228398   1.565   5.252  12.075  1.3165  1.7196  1.4236
 2303TIP3   OH228399   3.128   4.847  14.615  0.0929  0.0016 -0.5625
 2303TIP3    H128400   3.169   4.771  14.572  1.7590 -0.6310  1.9206
 2303TIP3    H228401   3.197   4.914  14.616 -0.2097  0.3182  0.2463
 2304TIP3   OH228402   4.612   1.660   3.875  0.0024 -0.1929  0.8111
 2304TIP3    H128403   4.563   1.657   3.958  3.4806  0.1933  3.0952
 2304TIP3    H228404   4.654   1.746   3.875  1.9361 -1.0703 -0.1269
 2305TIP3   OH228405   2.772   1.511   1.241 -0.1096 -0.0243  0.5404
 2305TIP3    H128406   2.853   1.523   1.291  0.1392 -1.7798  0.6157
 2305TIP3    H228407   2.772   1.418   1.217 -2.0707 -0.0575  0.5024
 2306TIP3   OH228408   6.698   1.949  11.366  0.3902 -0.7431 -0.6566
 2306TIP3    H128409   6.622   1.994  11.401  0.6486  0.1364 -1.1812
 2306TIP3    H228410   6.665   1.901  11.290  0.0012 -1.9403  0.2436
 2307TIP3   OH228411   3.759   0.762  15.275  0.5880  0.9198  0.1667
 2307TIP3    H128412   3.711   0.679  15.276 -0.2802  1.4079  0.2638
 2307TIP3    H228413   3.705   0.821  15.329  1.0899  1.6032 -0.0667
 2308TIP3   OH228414   3.440   1.021  13.042  0.0474 -0.0649 -0.1756
 2308TIP3    H128415   3.529   0.984  13.046  0.0490 -0.0641  3.5498
 2308TIP3    H228416   3.452   1.106  13.001  1.3818 -0.9171 -1.6696
 2309TIP3   OH228417   2.579   1.076  14.348 -0.5805 -0.1347  0.2420
 2309TIP3    H128418   2.595   1.170  14.356 -1.9549  0.0519  1.1076
 2309TIP3    H228419   2.660   1.035  14.377 -0.3938  0.7820  1.0712
 2310TIP3   OH228420   1.945   4.811  12.793  0.0417  0.1839  0.0211
 2310TIP3    H128421   2.013   4.786  12.856  0.6024  1.0939 -0.2254
 2310TIP3    H228422   1.955   4.749  12.721 -2.1149 -2.4906  1.7404
 2311TIP3   OH228423   1.614   3.347  12.957 -0.0468 -0.8007 -0.2872
 2311TIP3    H128424   1.572   3.346  12.871 -0.5681  3.5002 -0.2894
 2311TIP3    H228425   1.541   3.356  13.018  0.4938 -0.0045  0.2590
 2312TIP3   OH228426   6.310   6.421  16.695 -0.0280 -0.0585 -0.0783
 2312TIP3    H128427   6.367   6.446  16.622  0.3681  1.3774  0.6857
 2312TIP3    H228428   6.224   6.454  16.670 -0.2468 -0.9611 -0.5798
 2313TIP3   OH228429   4.195   2.643   4.496  0.4353  0.0524  0.3211
 2313TIP3    H128430   4.237   2.717   4.450 -0.1162 -1.3113 -2.6034
 2313TIP3    H228431   4.164   2.586   4.426 -0.2647 -2.3815  2.4629
 2314TIP3   OH228432   4.783   1.526   0.045  0.2387  0.2676 -0.6566
 2314TIP3    H128433   4.726   1.544  -0.030 -1.8613 -2.2999  0.1267
 2314TIP3    H228434   4.849   1.466   0.011  0.1504  0.2264 -0.7559
 2315TIP3   OH228435   2.655   5.343  15.314  0.0669 -0.8327 -0.4299
 2315TIP3    H128436   2.642   5.268  15.373 -0.4823 -0.5930 -0.2309
 2315TIP3    H228437   2.603   5.322  15.237 -1.0302 -0.1625  0.0942
 2316TIP3   OH228438   3.411   6.782  16.319  0.3800 -0.0916  0.6772
 2316TIP3    H128439   3.361   6.737  16.387 -1.0473 -0.0753 -0.3174
 2316TIP3    H228440   3.503   6.762  16.340 -0.0757 -1.0527  1.9147
 2317TIP3   OH228441   5.253   2.275  16.770 -0.1545 -0.2431  0.6058
 2317TIP3    H128442   5.190   2.320  16.714 -0.6834 -2.5551 -0.7615
 2317TIP3    H228443   5.334   2.275  16.719 -0.4103 -1.5981  0.1515
 2318TIP3   OH228444   1.804   4.657   3.153  0.3276  0.1819 -0.2109
 2318TIP3    H128445   1.747   4.721   3.110  1.7513  1.9868  0.4653
 2318TIP3    H228446   1.754   4.626   3.228 -1.5797 -1.8585 -2.1831
 2319TIP3   OH228447   0.552   0.516  13.400  0.5358  0.4429  0.1044
 2319TIP3    H128448   0.540   0.562  13.483 -1.4089 -0.4590  0.3823
 2319TIP3    H228449   0.511   0.431  13.414  0.0569  0.3137 -1.8083
 2320TIP3   OH228450   0.704   1.604  16.379 -0.3035 -0.0275 -0.6491
 2320TIP3    H128451   0.656   1.541  16.433 -1.9234  1.4587 -0.2374
 2320TIP3    H228452   0.720   1.679  16.438 -1.0475  1.1411 -1.8720
 2321TIP3   OH228453   2.210   3.390   1.051 -0.5867  0.1890 -0.0775
 2321TIP3    H128454   2.165   3.339   1.118  1.3050 -0.6476  0.6344
 2321TIP3    H228455   2.271   3.445   1.099  0.1565  0.2471 -1.0497
 2322TIP3   OH228456   5.350   6.201  13.359 -0.2527  0.3052 -0.5363
 2322TIP3    H128457   5.265   6.189  13.401 -0.2758 -2.1007 -1.1066
 2322TIP3    H228458   5.341   6.160  13.273  1.4076  0.2254 -0.7112
 2323TIP3   OH228459   2.153   4.542  16.976  0.4173  0.4483  0.1196
 2323TIP3    H128460   2.125   4.619  17.025  0.8953  0.1430  0.8878
 2323TIP3    H228461   2.173   4.477  17.043 -1.4882 -0.8990 -0.5456
 2324TIP3   OH228462   2.026   2.880   1.738 -0.0141  0.1193  0.1410
 2324TIP3    H128463   2.016   2.790   1.707 -0.0018 -0.1396  0.8813
 2324TIP3    H228464   2.034   2.873   1.833  0.9792  0.8207  0.1240
 2325TIP3   OH228465   2.772   3.403  12.989  0.3539 -0.3966  0.0337
 2325TIP3    H128466   2.686   3.391  13.029  0.6938  0.1055  0.9290
 2325TIP3    H228467   2.802   3.488  13.020  0.3375  0.3497 -1.8613
 2326TIP3   OH228468   5.248   1.607   2.849 -0.6347 -0.1758 -0.4465
 2326TIP3    H128469   5.294   1.551   2.787 -0.6163  0.7911 -1.3429
 2326TIP3    H228470   5.191   1.662   2.793  0.1940  1.4811  0.2786
 2327TIP3   OH228471   3.163   0.716   0.928  0.3918  0.3126 -0.5285
 2327TIP3    H128472   3.159   0.700   1.022  0.4823 -0.2511 -0.6194
 2327TIP3    H228473   3.200   0.804   0.920  1.6664 -0.1589 -0.0724
 2328TIP3   OH228474   6.208   0.850  14.849 -0.1817  0.1901 -0.4488
 2328TIP3    H128475   6.271   0.902  14.900  0.0308  0.6565 -1.1712
 2328TIP3    H228476   6.123   0.887  14.871 -0.2530 -0.5808  0.6999
 2329TIP3   OH228477   1.222   5.781  16.235  0.6256  0.8160  0.1525
 2329TIP3    H128478   1.153   5.825  16.185  0.6693  0.4802 -0.2107
 2329TIP3    H228479   1.304   5.813  16.197  0.7179  2.4708  1.6645
 2330TIP3   OH228480   5.482   1.305   6.294  0.3038  0.2352 -0.9742
 2330TIP3    H128481   5.476   1.397   6.321 -0.0777  0.3099 -1.3063
 2330TIP3    H228482   5.435   1.302   6.210  0.3385 -0.2586 -0.9755
 2331TIP3   OH228483   3.780   6.663   1.224 -0.7667  0.2463 -0.4785
 2331TIP3    H128484   3.796   6.570   1.237 -1.0300  0.2091 -0.4202
 2331TIP3    H228485   3.859   6.706   1.257  0.0210 -0.0389 -1.9322
 2332TIP3   OH228486   5.877   3.761  10.533 -0.1664 -0.3632 -0.2972
 2332TIP3    H128487   5.972   3.763  10.538 -0.1958 -1.3080  1.6949
 2332TIP3    H228488   5.854   3.834  10.476  1.7684 -0.6440 -1.5093
 2333TIP3   OH228489   0.946   2.623   4.610  0.0027  0.0503 -0.4614
 2333TIP3    H128490   0.933   2.693   4.546 -0.4391  0.0139 -0.4164
 2333TIP3    H228491   1.025   2.648   4.658  0.4881 -0.0602 -1.1962
 2334TIP3   OH228492   6.476   0.918   4.303 -1.1249 -0.1347  0.3159
 2334TIP3    H128493   6.474   0.936   4.397 -2.0776 -0.2737  0.3331
 2334TIP3    H228494   6.433   0.994   4.264 -1.3106 -0.3795  0.0473
 2335TIP3   OH228495   3.227   2.073   4.265 -0.3167 -0.2975 -0.1566
 2335TIP3    H128496   3.253   1.983   4.244  2.7552  0.6931 -1.0688
 2335TIP3    H228497   3.201   2.110   4.181  0.5077  0.2491 -0.1821
 2336TIP3   OH228498   3.932   1.865  11.069  0.5149 -0.6125 -0.0990
 2336TIP3    H128499   3.950   1.938  11.010 -0.4035  0.0481  0.4083
 2336TIP3    H228500   3.873   1.901  11.135  0.2589 -1.7443  0.3198
 2337TIP3   OH228501   2.683   5.454  15.568  0.2220  0.2349  0.0771
 2337TIP3    H128502   2.713   5.363  15.570 -0.9857 -0.1756  0.3921
 2337TIP3    H228503   2.631   5.460  15.487  0.5615  0.7377 -0.1091
 2338TIP3   OH228504   5.451   4.458  13.281  0.2165  0.3676  0.5432
 2338TIP3    H128505   5.375   4.409  13.250 -0.1126  0.5343  1.0593
 2338TIP3    H228506   5.415   4.543  13.306  1.1903  2.0294 -3.0611
 2339TIP3   OH228507   5.078   6.664   0.164  0.2575  1.1318 -0.2120
 2339TIP3    H128508   4.986   6.640   0.159  0.8694 -1.2773 -1.9387
 2339TIP3    H228509   5.108   6.629   0.248 -0.3131  1.6025  0.1883
 2340TIP3   OH228510   5.935   2.503   4.491  0.0507 -0.9578 -0.6123
 2340TIP3    H128511   5.937   2.598   4.488  2.2301 -0.9093  0.3003
 2340TIP3    H228512   5.847   2.479   4.462 -0.1688  1.2722 -1.9679
 2341TIP3   OH228513   1.059   2.555   3.715  0.2459 -0.3792  0.2355
 2341TIP3    H128514   1.128   2.606   3.674 -0.7105  0.5490 -0.2486
 2341TIP3    H228515   1.079   2.464   3.692  0.1948  0.0484 -1.5904
 2342TIP3   OH228516   5.989   6.539  11.595  0.1152 -0.0903  0.2633
 2342TIP3    H128517   5.969   6.632  11.605  1.4134  0.1646  0.7127
 2342TIP3    H228518   5.983   6.503  11.683  1.6996  0.0439  0.4659
 2343TIP3   OH228519   1.999   5.460  16.962 -0.6124  0.1909  0.3543
 2343TIP3    H128520   1.914   5.417  16.960 -1.0444  1.0064  0.7353
 2343TIP3    H228521   2.044   5.428  16.884 -0.1056 -2.5300  1.6343
 2344TIP3   OH228522   0.746   0.863  12.084  0.4492 -0.4310 -0.4905
 2344TIP3    H128523   0.676   0.804  12.058  1.0865 -0.6783 -1.6851
 2344TIP3    H228524   0.759   0.921  12.009  1.7480 -0.6146 -0.4347
 2345TIP3   OH228525   5.276   1.646  16.387  0.2265 -0.2111  0.0190
 2345TIP3    H128526   5.275   1.572  16.327  1.2062 -0.8403  0.7476
 2345TIP3    H228527   5.190   1.642  16.430 -1.2129  1.2750 -2.4604
 2346TIP3   OH228528   5.442   3.057  16.740 -0.2512  0.8151 -0.1499
 2346TIP3    H128529   5.409   3.066  16.830 -1.3682 -2.1217 -0.1781
 2346TIP3    H228530   5.535   3.038  16.750 -0.9091 -2.5362  0.6825
 2347TIP3   OH228531   3.063   6.212  12.146  0.3608  0.1520  0.4748
 2347TIP3    H128532   3.144   6.205  12.095 -0.2094  2.1089 -0.7913
 2347TIP3    H228533   2.997   6.238  12.082 -1.0704 -0.4476  1.6704
 2348TIP3   OH228534   5.804   3.098  12.208 -0.5001  0.3411  0.2677
 2348TIP3    H128535   5.812   3.187  12.241 -2.0244  1.3170 -1.7636
 2348TIP3    H228536   5.806   3.108  12.112 -0.1234 -1.8844 -0.0147
 2349TIP3   OH228537   0.925   4.266   0.143 -0.1168  1.0647 -0.0940
 2349TIP3    H128538   0.875   4.347   0.148 -2.0100  0.0340 -1.3171
 2349TIP3    H228539   0.900   4.217   0.222 -1.3943  0.4004 -0.8768
 2350TIP3   OH228540   3.365   1.470   4.622 -1.3741 -0.7860 -0.1383
 2350TIP3    H128541   3.443   1.499   4.669 -1.8366  0.9135 -0.3712
 2350TIP3    H228542   3.381   1.377   4.604  1.2447 -0.1748 -1.4319
 2351TIP3   OH228543   3.529   6.233  14.290 -0.0605  0.0604 -0.3874
 2351TIP3    H128544   3.482   6.180  14.355 -1.9817  1.7550 -0.2995
 2351TIP3    H228545   3.543   6.174  14.216 -0.2592 -1.1382  0.5046
 2352TIP3   OH228546   5.987   2.265   5.024 -0.0788  0.1043 -0.1835
 2352TIP3    H128547   6.036   2.341   5.057 -2.1939  1.0744  0.9612
 2352TIP3    H228548   5.966   2.215   5.103 -0.5927 -0.4915 -0.6905
 2353TIP3   OH228549   6.777   3.370  16.196  0.2537 -0.1180 -0.0866
 2353TIP3    H128550   6.841   3.324  16.142  0.8765 -1.1172  1.4102
 2353TIP3    H228551   6.751   3.446  16.144  1.3259 -0.6460 -1.4651
 2354TIP3   OH228552   3.355   3.012  13.418 -0.6213 -0.2577 -0.3511
 2354TIP3    H128553   3.446   2.987  13.429 -0.8931 -1.3851 -0.4984
 2354TIP3    H228554   3.350   3.101  13.452  0.2795 -0.6350  0.8498
 2355TIP3   OH228555   1.087   1.956   2.610  0.2317  0.0980  0.4129
 2355TIP3    H128556   1.155   1.922   2.553  0.6550  0.1280  0.8903
 2355TIP3    H228557   1.109   1.922   2.697 -0.5502 -0.1622  0.5135
 2356TIP3   OH228558   1.691   2.182   0.377 -0.1083 -0.1668  0.2183
 2356TIP3    H128559   1.706   2.098   0.421 -1.1977  0.1076  1.1728
 2356TIP3    H228560   1.773   2.230   0.388  0.3234 -0.8831  0.1704
 2357TIP3   OH228561   6.292   3.062  11.493  0.1605  0.1988 -0.3622
 2357TIP3    H128562   6.206   3.030  11.467 -0.0659 -1.4740  2.0925
 2357TIP3    H228563   6.352   2.991  11.472  0.8233  0.9750 -1.1845
 2358TIP3   OH228564   4.996   1.236   3.010  0.0887 -0.0578  0.2193
 2358TIP3    H128565   4.911   1.257   2.970 -0.5570 -0.4553  1.3343
 2358TIP3    H228566   4.990   1.272   3.098  1.0467 -0.1945  0.3432
 2359TIP3   OH228567   2.980   6.754   0.889  0.1563  0.2076 -0.3151
 2359TIP3    H128568   2.985   6.814   0.814  0.1707  1.7690  0.8799
 2359TIP3    H228569   2.889   6.761   0.919  0.6891  1.3735  1.1569
 2360TIP3   OH228570   1.246   2.894   4.244  0.4004 -0.5348  0.1968
 2360TIP3    H128571   1.303   2.969   4.265 -0.3465 -0.1590  0.9060
 2360TIP3    H228572   1.189   2.926   4.174 -1.1027  0.1699  1.6783
 2361TIP3   OH228573   1.524   0.322  14.384  0.3156  0.4945 -0.3227
 2361TIP3    H128574   1.552   0.403  14.426 -1.1106  0.4610  0.7682
 2361TIP3    H228575   1.445   0.346  14.335 -0.4124 -0.3076  0.4123
 2362TIP3   OH228576   1.605   6.120   2.610  0.2837 -0.6617  0.4395
 2362TIP3    H128577   1.691   6.149   2.639 -0.2411 -0.0649  1.4985
 2362TIP3    H228578   1.618   6.031   2.580  1.4133 -0.3033 -0.1787
 2363TIP3   OH228579   6.002   1.791  12.594  0.4579 -0.0727  0.5267
 2363TIP3    H128580   5.967   1.853  12.658 -0.8202 -1.0311  0.8123
 2363TIP3    H228581   6.029   1.715  12.646  2.3085  0.3295  0.2180
 2364TIP3   OH228582   1.193   2.861   6.530  0.1432  0.0613  0.1240
 2364TIP3    H128583   1.133   2.791   6.505  1.6622 -1.5717  0.8263
 2364TIP3    H228584   1.175   2.932   6.467 -1.3733 -0.9835 -0.6712
 2365TIP3   OH228585   0.493   5.010  14.464  0.4310 -0.5437 -0.8015
 2365TIP3    H128586   0.439   5.065  14.407  1.0510  0.6101 -0.3010
 2365TIP3    H228587   0.510   4.931  14.412 -0.8061 -0.4519 -1.3859
 2366TIP3   OH228588   1.402   0.589  11.261  0.1652 -0.7243  0.0891
 2366TIP3    H128589   1.388   0.600  11.167 -0.2462  0.1038  0.2432
 2366TIP3    H228590   1.433   0.674  11.291  0.8127 -1.1360  0.6192
 2367TIP3   OH228591   4.031   3.989   2.443 -0.4605 -0.5175 -0.0384
 2367TIP3    H128592   4.056   4.078   2.417 -1.9959  0.2630  0.9816
 2367TIP3    H228593   4.107   3.956   2.491 -0.2868  0.7033  0.5719
 2368TIP3   OH228594   5.363   3.950  14.016  0.1784 -0.3237 -0.0425
 2368TIP3    H128595   5.420   4.018  14.052  0.4921 -0.0924 -0.9571
 2368TIP3    H228596   5.324   3.990  13.939 -0.2444 -0.9220 -0.1441
 2369TIP3   OH228597   0.287   2.693   0.268  0.3145  0.0895  0.0985
 2369TIP3    H128598   0.366   2.672   0.218  0.9943 -0.8491  1.5166
 2369TIP3    H228599   0.215   2.667   0.210  1.0704 -0.8968 -0.4268
 2370TIP3   OH228600   3.581   6.772   6.225 -0.2837  0.1051 -0.5567
 2370TIP3    H128601   3.542   6.849   6.183 -1.7421 -0.0941  0.3597
 2370TIP3    H228602   3.586   6.706   6.156 -2.2180 -0.0694 -0.5827
 2371TIP3   OH228603   2.218   5.794  12.938 -0.2492 -0.0547  0.2993
 2371TIP3    H128604   2.213   5.887  12.914  0.8674 -0.0078  0.2068
 2371TIP3    H228605   2.266   5.793  13.021  0.5473 -0.6062 -0.1522
 2372TIP3   OH228606   3.487   6.635   2.078 -0.6374  0.4484  0.2001
 2372TIP3    H128607   3.480   6.656   1.985  2.6991  0.6867 -0.1153
 2372TIP3    H228608   3.404   6.591   2.100 -0.5320 -1.9987 -3.5013
 2373TIP3   OH228609   3.968   4.717   5.405  0.2244  0.7005 -0.4990
 2373TIP3    H128610   3.897   4.764   5.363  1.0065  1.0058 -1.5246
 2373TIP3    H228611   4.031   4.702   5.335  0.6542 -0.5735  0.1422
 2374TIP3   OH228612   4.174   1.992  13.432  0.0764  0.3466 -0.3045
 2374TIP3    H128613   4.213   1.905  13.430 -0.0412  0.2978 -0.7754
 2374TIP3    H228614   4.086   1.980  13.396 -0.3990  0.4489  0.7798
 2375TIP3   OH228615   2.493   5.663  15.329 -0.1086 -0.3307 -0.3211
 2375TIP3    H128616   2.547   5.720  15.275 -0.2263  0.1411  0.0546
 2375TIP3    H228617   2.488   5.581  15.280  0.8651 -0.3508 -0.4071
 2376TIP3   OH228618   4.791   0.490   3.873  0.6158 -0.0510  0.1441
 2376TIP3    H128619   4.712   0.452   3.912 -1.2940  3.3176 -0.0822
 2376TIP3    H228620   4.800   0.445   3.789 -2.1230  0.6034 -0.5926
 2377TIP3   OH228621   1.857   3.215  16.982 -0.4316 -0.5827 -0.1016
 2377TIP3    H128622   1.799   3.214  17.058  0.1306  0.2686  0.3539
 2377TIP3    H228623   1.900   3.301  16.985  0.7212 -1.1194 -0.5286
 2378TIP3   OH228624   1.112   4.775   1.174  0.0782 -0.7677  0.6017
 2378TIP3    H128625   1.201   4.782   1.209  0.1206 -2.7959  0.9999
 2378TIP3    H228626   1.056   4.774   1.251 -0.2684 -0.0675  0.3718
 2379TIP3   OH228627   4.842   2.525  16.063  0.1027  0.0353 -0.3650
 2379TIP3    H128628   4.870   2.460  16.127 -1.9698  0.1158  0.7006
 2379TIP3    H228629   4.747   2.516  16.060 -0.1583  2.3895 -0.8715
 2380TIP3   OH228630   2.538   0.600   4.397 -0.1594  0.0035  0.2924
 2380TIP3    H128631   2.467   0.562   4.449  0.2617 -1.3477 -0.0762
 2380TIP3    H228632   2.503   0.683   4.366 -1.5753 -0.6025  0.1701
 2381TIP3   OH228633   0.829   2.152  13.364 -0.3633  0.1329 -0.0860
 2381TIP3    H128634   0.796   2.142  13.275 -0.0787 -0.4294 -0.1349
 2381TIP3    H228635   0.874   2.236  13.364  0.2855 -0.1974 -0.6899
 2382TIP3   OH228636   2.543   1.700   5.116 -0.1501 -0.2062 -0.2049
 2382TIP3    H128637   2.449   1.679   5.115 -0.1536 -0.1828 -0.3410
 2382TIP3    H228638   2.579   1.652   5.042 -0.0333 -0.3092 -0.0819
 2383TIP3   OH228639   5.201   6.363  15.954 -0.0190 -0.0761  0.3976
 2383TIP3    H128640   5.139   6.291  15.939 -2.0474  1.6343  0.1248
 2383TIP3    H228641   5.218   6.399  15.867  0.3282  0.2926  0.6123
 2384TIP3   OH228642   0.913   0.204  12.074 -0.0361  0.0392  0.6818
 2384TIP3    H128643   0.901   0.286  12.122  0.7394  0.9933 -0.6733
 2384TIP3    H228644   0.920   0.231  11.982  0.1610 -1.5545  0.2007
 2385TIP3   OH228645   4.430   6.507   5.215 -0.4560 -0.4805  0.1127
 2385TIP3    H128646   4.489   6.476   5.146  0.4261  2.6686 -0.7194
 2385TIP3    H228647   4.480   6.573   5.262 -1.4275 -1.7228  3.1841
 2386TIP3   OH228648   6.594   2.752   5.818  0.8182  0.3216 -0.2265
 2386TIP3    H128649   6.560   2.737   5.906 -0.9696 -0.3271 -0.9778
 2386TIP3    H228650   6.629   2.841   5.821  1.8642 -0.1130  1.4344
 2387TIP3   OH228651   5.666   6.382  11.895  0.2657 -0.4871 -0.1606
 2387TIP3    H128652   5.645   6.394  11.987 -2.0219  0.1912 -0.7097
 2387TIP3    H228653   5.757   6.410  11.887  0.1285  0.5996  1.6610
 2388TIP3   OH228654   3.997   6.311  15.469 -0.4243  0.4758  0.1982
 2388TIP3    H128655   4.051   6.332  15.393  2.1222  0.2726  1.8355
 2388TIP3    H228656   3.953   6.393  15.491 -2.0653  0.2936 -2.0263
 2389TIP3   OH228657   6.533   4.886  12.824 -0.2743 -0.2643  0.8905
 2389TIP3    H128658   6.543   4.981  12.823 -0.9429 -0.1950  0.7272
 2389TIP3    H228659   6.455   4.870  12.877 -0.1222 -0.7304  0.9846
 2390TIP3   OH228660   0.738   2.649   0.647 -0.4920 -0.1584 -0.3565
 2390TIP3    H128661   0.768   2.606   0.567 -0.9900 -0.3979 -0.4162
 2390TIP3    H228662   0.785   2.604   0.718  1.4846  1.3636 -0.6213
 2391TIP3   OH228663   4.724   0.026   0.359  1.2928 -0.3064  0.2493
 2391TIP3    H128664   4.631   0.049   0.354  0.8912 -2.0354 -0.7370
 2391TIP3    H228665   4.729  -0.041   0.427  2.0222  0.5588  1.0868
 2392TIP3   OH228666   6.425   5.646  14.782 -0.3011  0.3240 -0.2943
 2392TIP3    H128667   6.413   5.665  14.876  1.6090  0.0101  0.0439
 2392TIP3    H228668   6.425   5.732  14.741  1.1149  0.6420  0.3118
 2393TIP3   OH228669   6.097   6.183   6.057 -0.0768  0.5515  0.1047
 2393TIP3    H128670   6.019   6.227   6.092  0.2269  1.1947 -0.0203
 2393TIP3    H228671   6.099   6.099   6.102 -0.7341  0.6083  0.2577
 2394TIP3   OH228672   6.721   3.620  12.626  0.1871  0.0753  0.0942
 2394TIP3    H128673   6.736   3.703  12.672 -0.2560  0.7758 -0.9984
 2394TIP3    H228674   6.726   3.554  12.695 -1.6699  1.1962  1.4000
 2395TIP3   OH228675   3.264   4.919   5.563 -0.5759 -0.1312 -0.0370
 2395TIP3    H128676   3.354   4.927   5.531 -0.3680  0.2981  0.6255
 2395TIP3    H228677   3.229   5.008   5.555 -0.5371 -0.0290  0.8485
 2396TIP3   OH228678   2.391   4.059  10.808 -0.0067  0.5616  0.0723
 2396TIP3    H128679   2.347   3.977  10.786  1.1063  0.4258 -1.8739
 2396TIP3    H228680   2.484   4.036  10.816  0.2413  1.5102  0.1447
 2397TIP3   OH228681   6.049   4.995   0.235  0.0820 -0.7010  0.4457
 2397TIP3    H128682   6.091   5.063   0.288  0.3803 -0.8014  0.3398
 2397TIP3    H228683   6.018   5.040   0.157  0.2800 -0.6866  0.3757
 2398TIP3   OH228684   4.790   5.114  12.471 -0.2139 -0.2317  0.2878
 2398TIP3    H128685   4.810   5.119  12.377 -0.3318 -2.1285  0.1254
 2398TIP3    H228686   4.695   5.124  12.475 -0.0521  1.5159  0.3877
 2399TIP3   OH228687   0.907   3.108   5.465  0.2959 -0.5429 -0.2115
 2399TIP3    H128688   0.982   3.136   5.413  0.5683  0.3907  0.6517
 2399TIP3    H228689   0.830   3.128   5.411  0.5304  1.1057  0.0271
 2400TIP3   OH228690   2.642   2.909   4.270  0.6325  0.3949  0.3412
 2400TIP3    H128691   2.556   2.923   4.230 -0.3884 -3.4327  0.7541
 2400TIP3    H228692   2.644   2.971   4.343 -1.5619  0.9610  0.0150
 2401TIP3   OH228693   3.638   2.906  16.007  0.4643  0.1076 -0.7762
 2401TIP3    H128694   3.684   2.822  16.001 -0.5318 -0.4845 -0.2645
 2401TIP3    H228695   3.706   2.971  15.988  1.2485 -0.8010 -1.2017
 2402TIP3   OH228696   5.211   3.317   2.343 -0.2164 -0.1536 -0.1612
 2402TIP3    H128697   5.121   3.349   2.349  0.1623  0.7632  1.2979
 2402TIP3    H228698   5.233   3.321   2.250 -1.2327  0.9345 -0.3759
 2403TIP3   OH228699   5.492   6.366   5.251  0.1300 -0.2198  0.1490
 2403TIP3    H128700   5.439   6.349   5.329  2.9435 -1.4708  1.9563
 2403TIP3    H228701   5.502   6.280   5.210 -0.3550  0.2426 -0.9674
 2404TIP3   OH228702   1.773   5.513  16.534  0.4717 -0.3418  0.2586
 2404TIP3    H128703   1.819   5.596  16.536 -0.0408 -0.0210 -0.6474
 2404TIP3    H228704   1.842   5.447  16.525  0.9170 -0.0719  1.5076
 2405TIP3   OH228705   4.322   5.862  13.311  0.3282  0.2455 -0.6983
 2405TIP3    H128706   4.280   5.789  13.356  1.5372 -0.9687 -1.4280
 2405TIP3    H228707   4.397   5.885  13.367  1.2824 -0.6424 -1.5562
 2406TIP3   OH228708   5.082   4.228   0.889  1.1304 -0.5409  0.2383
 2406TIP3    H128709   5.064   4.179   0.809  1.6561  0.7350 -0.7012
 2406TIP3    H228710   5.178   4.227   0.896  1.1055 -0.3340  0.6417
 2407TIP3   OH228711   4.003   5.896  11.338  0.4321  0.2054  0.7039
 2407TIP3    H128712   4.066   5.859  11.276 -1.6077 -2.2924 -0.0626
 2407TIP3    H228713   3.993   5.827  11.404 -1.6907  0.4030  0.6363
 2408TIP3   OH228714   3.579   2.087   6.360  0.4472 -0.7177 -0.0206
 2408TIP3    H128715   3.488   2.088   6.333  0.5354 -1.8702 -0.3885
 2408TIP3    H228716   3.616   2.167   6.321 -0.3268 -0.3797 -0.0793
 2409TIP3   OH228717   2.663   0.181   3.900 -0.3025  0.1607  0.6820
 2409TIP3    H128718   2.751   0.152   3.927 -0.4679 -2.2054 -0.9611
 2409TIP3    H228719   2.654   0.147   3.811 -2.0127  2.4444 -0.1040
 2410TIP3   OH228720   5.772   5.091  14.078  0.9489  0.2881 -0.2726
 2410TIP3    H128721   5.838   5.048  14.023  0.2034 -0.5513 -0.5422
 2410TIP3    H228722   5.702   5.114  14.016  0.4909  0.1310  0.1818
 2411TIP3   OH228723   2.307   0.335   1.763  0.3895 -0.0867  0.5595
 2411TIP3    H128724   2.274   0.302   1.679 -0.6293  2.1989 -0.0192
 2411TIP3    H228725   2.258   0.416   1.777  3.1131  1.5138  1.5712
 2412TIP3   OH228726   6.426   3.631   5.412  0.3013  0.0412  0.5600
 2412TIP3    H128727   6.356   3.565   5.406 -0.8179  1.2164  0.2457
 2412TIP3    H228728   6.410   3.675   5.496 -1.0963  2.1631 -0.7203
 2413TIP3   OH228729   2.127   2.588   4.236 -0.9270  0.0737  0.0016
 2413TIP3    H128730   2.120   2.632   4.151  1.7196 -0.3295 -0.5192
 2413TIP3    H228731   2.126   2.495   4.215 -1.3867 -0.0505  0.5500
 2414TIP3   OH228732   2.125   5.032   4.591  0.1191 -0.1899  0.1250
 2414TIP3    H128733   2.109   4.938   4.597  0.4729 -0.1771  1.9899
 2414TIP3    H228734   2.049   5.066   4.542  0.3292 -1.4883 -1.1637
 2415TIP3   OH228735   5.123   6.249   3.669 -0.6232  0.4854  0.0353
 2415TIP3    H128736   5.158   6.166   3.635 -1.0834 -0.6937  2.2117
 2415TIP3    H228737   5.030   6.248   3.643 -0.6914  0.1658  0.2751
 2416TIP3   OH228738   0.055   0.123   4.483 -0.4952  0.5256  0.0066
 2416TIP3    H128739   0.102   0.102   4.403 -0.4353  2.0612 -0.4010
 2416TIP3    H228740   0.116   0.102   4.553  0.8240  2.3449 -0.5085
 2417TIP3   OH228741   5.960   2.725   1.308  0.4549  0.1344 -0.8875
 2417TIP3    H128742   5.942   2.745   1.216 -1.8496 -0.9335 -0.7444
 2417TIP3    H228743   5.921   2.798   1.356  2.5572  1.2198 -0.7321
 2418TIP3   OH228744   3.578   0.566   4.087  0.6105 -0.0388 -0.0036
 2418TIP3    H128745   3.656   0.521   4.119  0.1836 -2.0233 -1.5504
 2418TIP3    H228746   3.506   0.533   4.142  0.3356 -1.0797 -0.9648
 2419TIP3   OH228747   5.957   0.668  12.977  0.5157  0.0170  0.3184
 2419TIP3    H128748   5.926   0.744  13.026  0.8233  1.0309 -0.9970
 2419TIP3    H228749   6.052   0.673  12.984  0.5527 -2.1589  2.9697
 2420TIP3   OH228750   0.628   2.676   1.733 -0.5466  0.1809 -0.3214
 2420TIP3    H128751   0.564   2.732   1.778 -0.2991 -0.5161  0.9636
 2420TIP3    H228752   0.584   2.649   1.653 -1.2205  1.0480 -0.2714
 2421TIP3   OH228753   6.032   5.902  14.545 -0.0176  0.0632  0.3772
 2421TIP3    H128754   5.996   5.887  14.457  0.6166 -2.1197  0.4360
 2421TIP3    H228755   6.121   5.934  14.529 -0.1604  0.3954  0.2341
 2422TIP3   OH228756   6.620   0.388   0.492  0.2499 -0.0927  0.8644
 2422TIP3    H128757   6.548   0.427   0.443 -0.0579 -2.4375 -0.7167
 2422TIP3    H228758   6.592   0.390   0.583 -1.5404 -0.3132  0.3459
 2423TIP3   OH228759   6.165   1.554   1.646  0.1964 -0.0051  0.1776
 2423TIP3    H128760   6.129   1.559   1.734  2.3717 -1.8773  1.2972
 2423TIP3    H228761   6.150   1.641   1.608 -1.0528  0.7525  2.2598
 2424TIP3   OH228762   0.530   5.133  15.435  0.3509 -0.1688  0.1092
 2424TIP3    H128763   0.609   5.149  15.382  0.8273  0.0642  0.8735
 2424TIP3    H228764   0.561   5.080  15.508 -0.1378  0.1904  0.5825
 2425TIP3   OH228765   0.231   2.999  12.130 -0.1452 -0.4926  0.1790
 2425TIP3    H128766   0.164   2.931  12.138  0.3968 -1.0390  0.0853
 2425TIP3    H228767   0.307   2.964  12.176  0.1806 -0.0071  0.0135
 2426TIP3   OH228768   2.848   2.404  17.164  0.0189 -0.3430 -0.9227
 2426TIP3    H128769   2.792   2.359  17.101 -1.0023 -0.8025  0.2748
 2426TIP3    H228770   2.849   2.347  17.241  0.7731  0.4675 -0.3119
 2427TIP3   OH228771   0.488   4.670  12.534 -0.1410  0.5317  0.2093
 2427TIP3    H128772   0.516   4.754  12.570 -1.2177  1.4790 -1.0515
 2427TIP3    H228773   0.549   4.654  12.461 -1.3510  1.4122 -1.0298
 2428TIP3   OH228774   1.259   6.762   2.783  0.2259  0.1969  0.1079
 2428TIP3    H128775   1.266   6.816   2.862  1.6115 -0.7799  0.6849
 2428TIP3    H228776   1.165   6.748   2.772 -0.0135  0.7173  1.3188
 2429TIP3   OH228777   2.976   0.232   4.888  0.2827 -0.6013 -0.1363
 2429TIP3    H128778   3.043   0.291   4.855  0.1189 -0.9059 -1.0331
 2429TIP3    H228779   2.901   0.245   4.829 -0.5299 -0.1034  0.9769
 2430TIP3   OH228780   0.081   6.047   3.454  0.1214 -0.2628 -0.3309
 2430TIP3    H128781   0.048   6.050   3.364 -0.3673  0.5856 -0.1288
 2430TIP3    H228782   0.170   6.083   3.447 -0.5279  1.4654 -0.2251
 2431TIP3   OH228783   4.195   0.234   1.981 -0.4381 -0.4711  0.0645
 2431TIP3    H128784   4.181   0.186   1.899  2.0453 -0.8308 -0.2171
 2431TIP3    H228785   4.186   0.167   2.049 -1.9651 -0.2792  0.0856
 2432TIP3   OH228786   0.121   4.989   1.522  0.4159  0.0873  0.0886
 2432TIP3    H128787   0.171   4.913   1.492  1.7457  1.3709 -1.1094
 2432TIP3    H228788   0.180   5.033   1.583  1.0879  1.9378 -1.7857
 2433TIP3   OH228789   3.743   4.701  15.172  0.0720  0.5784  0.3867
 2433TIP3    H128790   3.725   4.623  15.223 -1.0730  1.0193  0.6803
 2433TIP3    H228791   3.766   4.768  15.236 -0.2309  0.8296  0.2356
 2434TIP3   OH228792   6.682   5.180  16.888  0.0730 -0.0091  0.5774
 2434TIP3    H128793   6.715   5.269  16.899 -1.1548  0.7593 -1.3567
 2434TIP3    H228794   6.707   5.135  16.968  2.4716  1.5053  0.7972
 2435TIP3   OH228795   1.815   6.675  15.678  0.3845 -0.2083 -0.1195
 2435TIP3    H128796   1.819   6.579  15.670  2.1860 -0.0817 -1.5407
 2435TIP3    H228797   1.906   6.703  15.673 -0.1900  1.6728 -1.0131
 2436TIP3   OH228798   2.746   0.819  11.339  0.0582 -0.4378 -0.0697
 2436TIP3    H128799   2.823   0.802  11.394  0.8534 -0.3237 -1.0967
 2436TIP3    H228800   2.768   0.778  11.255 -0.4082  0.7681 -0.8123
 2437TIP3   OH228801   4.692   6.396  13.497 -0.0197  0.1099  0.0150
 2437TIP3    H128802   4.614   6.441  13.464  0.2135  1.1609  0.8412
 2437TIP3    H228803   4.746   6.381  13.419 -0.5209  0.4291 -0.4018
 2438TIP3   OH228804   2.262   5.606  12.750  0.0749  0.2648  0.5159
 2438TIP3    H128805   2.189   5.576  12.697  0.5719  0.3811 -0.2456
 2438TIP3    H228806   2.221   5.644  12.828 -0.6859  0.7011 -0.0896
 2439TIP3   OH228807   2.016   4.086   3.654  0.2394  0.1964 -0.1898
 2439TIP3    H128808   2.021   4.038   3.737  0.3663 -1.2504 -1.0203
 2439TIP3    H228809   1.925   4.075   3.625  0.0204  1.2456  0.0571
 2440TIP3   OH228810   3.208   4.056  12.505 -0.4976  0.2093 -0.3044
 2440TIP3    H128811   3.202   3.991  12.575 -0.4259  1.5943  1.0298
 2440TIP3    H228812   3.244   4.007  12.431 -0.6797 -1.3308  0.5683
 2441TIP3   OH228813   3.775   2.106   2.907 -0.2142  0.7424 -0.2909
 2441TIP3    H128814   3.842   2.087   2.974  3.6509  1.4066 -3.5874
 2441TIP3    H228815   3.766   2.201   2.909 -1.4363  0.6340  0.3487
 2442TIP3   OH228816   0.485   2.752  17.174  0.3901  0.0007  0.4091
 2442TIP3    H128817   0.552   2.759  17.106  0.7827  1.0334  0.8858
 2442TIP3    H228818   0.442   2.837  17.174  0.6267  0.1368  1.6847
 2443TIP3   OH228819   1.493   4.491  10.767 -0.5490  0.2829  0.1229
 2443TIP3    H128820   1.411   4.540  10.759 -1.1633 -0.4983  1.4310
 2443TIP3    H228821   1.484   4.419  10.706 -1.1411 -0.1889  0.7528
 2444TIP3   OH228822   4.213   1.972   6.403  0.5426  0.6083 -0.4250
 2444TIP3    H128823   4.263   1.913   6.346 -0.0674  0.1920 -0.5438
 2444TIP3    H228824   4.137   1.997   6.351  0.0162  0.2898  0.1659
 2445TIP3   OH228825   0.753   4.091   4.352 -0.3296 -0.3939 -0.1927
 2445TIP3    H128826   0.723   4.175   4.319 -1.2451  0.2705  2.1414
 2445TIP3    H228827   0.825   4.067   4.294 -0.6492  1.5200 -1.4826
 2446TIP3   OH228828   3.838   4.188  10.680  0.3302  0.2250  0.6116
 2446TIP3    H128829   3.833   4.280  10.706 -0.1456  0.4787 -0.3421
 2446TIP3    H228830   3.752   4.168  10.645  0.9144 -0.1236 -0.6669
 2447TIP3   OH228831   4.417   2.546  12.872  0.1898 -0.1251 -0.1633
 2447TIP3    H128832   4.485   2.597  12.917 -0.0060 -1.4889  1.8057
 2447TIP3    H228833   4.376   2.494  12.942 -2.1217 -0.1941 -1.4880
 2448TIP3   OH228834   0.539   5.130  14.106  0.1157  0.5967 -0.0198
 2448TIP3    H128835   0.448   5.136  14.137  0.1022  1.6864 -0.2242
 2448TIP3    H228836   0.533   5.081  14.024 -0.2264  0.2849  0.1864
 2449TIP3   OH228837   1.521   3.334  12.687  0.2751  0.0383  0.2522
 2449TIP3    H128838   1.570   3.317  12.606  1.7763  0.8065  0.9526
 2449TIP3    H228839   1.446   3.386  12.659  0.0727 -0.7681 -0.7922
 2450TIP3   OH228840   2.045   0.601   1.138  0.5897 -0.3546 -0.3758
 2450TIP3    H128841   1.974   0.589   1.075 -0.7092 -1.6342  1.2359
 2450TIP3    H228842   2.076   0.690   1.122 -1.9041  0.5468 -0.6697
 2451TIP3   OH228843   1.695   6.365   0.409  0.2845 -0.0889  0.0548
 2451TIP3    H128844   1.728   6.294   0.464 -0.5535 -0.9278 -0.4902
 2451TIP3    H228845   1.773   6.401   0.367  0.7777 -0.3566  0.7229
 2452TIP3   OH228846   6.713   4.495   1.286 -0.2916 -0.2029 -0.4545
 2452TIP3    H128847   6.685   4.503   1.194  2.2692 -2.3037 -1.5280
 2452TIP3    H228848   6.785   4.433   1.284  1.6776  1.7146  2.6540
 2453TIP3   OH228849   2.093   3.531   6.018 -0.1429 -0.0929 -0.1489
 2453TIP3    H128850   2.187   3.520   6.033 -0.0513  0.4592 -0.2900
 2453TIP3    H228851   2.073   3.617   6.056 -0.6680 -0.3748  0.2252
 2454TIP3   OH228852   1.208   2.146   5.329 -0.0149 -0.1665 -0.8092
 2454TIP3    H128853   1.126   2.110   5.362  0.4945 -0.0018  0.7499
 2454TIP3    H228854   1.268   2.071   5.326  1.0803  0.4180  2.5529
 2455TIP3   OH228855   3.467   1.135  11.778  0.4557 -0.4691 -0.0102
 2455TIP3    H128856   3.558   1.140  11.807 -0.1191 -0.0754  1.8709
 2455TIP3    H228857   3.431   1.060  11.825 -0.3438 -0.2614 -0.2750
 2456TIP3   OH228858   4.652   3.051  13.492  0.1393  0.4298 -0.2635
 2456TIP3    H128859   4.662   3.125  13.434  2.2991  0.6474  0.3069
 2456TIP3    H228860   4.636   3.090  13.578 -1.5342  0.1438 -0.4224
 2457TIP3   OH228861   4.250   0.668  12.716 -0.5869  0.3115 -0.1593
 2457TIP3    H128862   4.173   0.640  12.767 -0.4231  1.3502  0.6974
 2457TIP3    H228863   4.225   0.753  12.680 -0.8673 -0.6118 -2.2488
 2458TIP3   OH228864   5.814   5.724  12.427 -0.2596 -0.1225 -0.0423
 2458TIP3    H128865   5.872   5.668  12.376 -0.5530  0.4296 -1.0060
 2458TIP3    H228866   5.766   5.774  12.361 -2.4458 -1.1623  0.6852
 2459TIP3   OH228867   4.079   0.020   5.114  0.7738  0.0265  0.6476
 2459TIP3    H128868   4.108   0.075   5.041  0.3991  0.0204  0.4908
 2459TIP3    H228869   4.108  -0.068   5.091  0.4929 -0.0077  0.4125
 2460TIP3   OH228870   5.400   6.252  17.023  0.4516  0.0024 -0.4312
 2460TIP3    H128871   5.367   6.165  17.001 -0.6574  0.0589  0.8719
 2460TIP3    H228872   5.456   6.238  17.100 -1.6539  0.6816  1.3203
 2461TIP3   OH228873   2.059   2.143   2.921  0.1203 -0.0212  0.3044
 2461TIP3    H128874   1.966   2.138   2.901  0.4147 -0.9753 -0.9392
 2461TIP3    H228875   2.088   2.052   2.924  0.9041  0.2485  1.2407
 2462TIP3   OH228876   5.571   3.055  12.368  0.7348 -0.0593 -0.2997
 2462TIP3    H128877   5.629   3.062  12.292  1.2139 -0.9564 -0.0239
 2462TIP3    H228878   5.508   2.987  12.344 -0.4801  1.1720 -0.7541
 2463TIP3   OH228879   5.465   2.741  13.757  0.4961 -0.0233  0.3767
 2463TIP3    H128880   5.376   2.725  13.789  0.3327  1.6395  0.8662
 2463TIP3    H228881   5.473   2.837  13.756  2.0923 -0.1329 -0.1944
 2464TIP3   OH228882   6.699   0.785   0.300  0.1504  0.0949  0.4402
 2464TIP3    H128883   6.662   0.829   0.376  0.6912  0.7864  0.3176
 2464TIP3    H228884   6.648   0.817   0.226 -1.9899 -2.4192  0.7217
 2465TIP3   OH228885   3.291   6.551   4.278 -0.4881 -0.1862  0.3917
 2465TIP3    H128886   3.259   6.568   4.367 -1.6436 -0.2543  0.0056
 2465TIP3    H228887   3.242   6.475   4.249 -1.6601  1.0519 -1.0495
 2466TIP3   OH228888   1.018   0.779  14.579 -0.7350 -0.2837  0.3825
 2466TIP3    H128889   1.003   0.800  14.487 -2.7501 -0.4265  0.6499
 2466TIP3    H228890   0.968   0.845  14.627  0.8414  0.2245  1.4373
 2467TIP3   OH228891   0.707   6.776   1.736 -0.2789  0.5479 -0.6443
 2467TIP3    H128892   0.801   6.792   1.743  0.1503 -1.4081 -1.2355
 2467TIP3    H228893   0.679   6.824   1.659 -0.0928  2.2994  0.3282
 2468TIP3   OH228894   0.732   4.296  13.056  0.1224 -0.0055  0.4772
 2468TIP3    H128895   0.809   4.328  13.008 -0.3521  1.3158  0.5412
 2468TIP3    H228896   0.717   4.208  13.022  1.8429 -0.4206  0.6955
 2469TIP3   OH228897   3.343   4.108  11.584  0.2282 -0.1974 -0.5140
 2469TIP3    H128898   3.399   4.110  11.661 -1.1467 -1.4897  0.5802
 2469TIP3    H228899   3.359   4.191  11.540  1.3338  0.4046  0.9570
 2470TIP3   OH228900   0.761   0.967  11.692 -0.0392 -0.4860 -0.1184
 2470TIP3    H128901   0.745   0.885  11.738  1.3617 -0.6795  0.0751
 2470TIP3    H228902   0.751   1.034  11.760  1.0768 -0.6968  0.2807
 2471TIP3   OH228903   1.279   4.961   0.734 -0.5321  0.3532  0.2945
 2471TIP3    H128904   1.321   5.014   0.666 -0.1290 -2.6024 -1.9245
 2471TIP3    H228905   1.233   4.892   0.686 -1.3757 -1.1089  3.0137
 2472TIP3   OH228906   1.410   4.063   0.489  0.0789 -0.3934  0.0966
 2472TIP3    H128907   1.328   4.025   0.457  0.6225  0.7792 -3.0974
 2472TIP3    H228908   1.383   4.138   0.542 -0.9846  0.0327 -0.9950
 2473TIP3   OH228909   0.406   0.216  12.868 -0.2235  0.3617 -0.2540
 2473TIP3    H128910   0.472   0.151  12.893  0.9958  2.0433  1.1580
 2473TIP3    H228911   0.440   0.255  12.787  0.9925  1.7647  0.8825
 2474TIP3   OH228912   4.065   4.055  16.655 -0.2744  0.6216 -0.6282
 2474TIP3    H128913   4.133   3.996  16.624  0.5531  1.8552 -1.2346
 2474TIP3    H228914   4.106   4.142  16.655 -1.4392  1.1993  0.2762
 2475TIP3   OH228915   6.560   0.409  13.875  0.1806  0.2245 -0.8361
 2475TIP3    H128916   6.520   0.451  13.951  0.8319 -1.3791  0.4470
 2475TIP3    H228917   6.600   0.481  13.827  0.8545  1.1521  1.0154
 2476TIP3   OH228918   5.203   0.683  11.451 -0.0383  0.3246  0.1605
 2476TIP3    H128919   5.218   0.759  11.507  0.2119  0.4720 -0.1087
 2476TIP3    H228920   5.256   0.613  11.491 -0.9241  0.0511  0.9024
 2477TIP3   OH228921   3.615   3.983  11.489 -0.2541  0.1550  0.1891
 2477TIP3    H128922   3.583   4.056  11.435 -0.8943 -0.5690 -0.4301
 2477TIP3    H228923   3.557   3.910  11.468 -0.0198 -0.3608  1.2881
 2478TIP3   OH228924   6.283   3.836   2.664  0.3352  0.0237  0.0455
 2478TIP3    H128925   6.260   3.883   2.744  0.3995 -2.0280  1.3339
 2478TIP3    H228926   6.203   3.838   2.611 -0.1968  0.0947  0.8404
 2479TIP3   OH228927   0.748   4.991  13.675  0.3568  0.6186  0.6779
 2479TIP3    H128928   0.694   4.912  13.673  0.6228  0.3881  1.6898
 2479TIP3    H228929   0.685   5.064  13.675  0.1183  0.4444 -0.6965
 2480TIP3   OH228930   2.770   4.754   0.588 -0.1939  0.0493 -0.2745
 2480TIP3    H128931   2.717   4.731   0.512  0.7863  1.0817 -1.3005
 2480TIP3    H228932   2.731   4.836   0.620  0.3238  0.4282 -0.6006
 2481TIP3   OH228933   6.247   5.140  16.503  0.1928 -0.0850  0.0453
 2481TIP3    H128934   6.165   5.146  16.552 -0.6634  2.1872 -1.4795
 2481TIP3    H228935   6.314   5.165  16.566 -0.3695 -1.0284  1.0607
 2482TIP3   OH228936   4.221   2.344  17.000  0.8622  0.3496  0.5654
 2482TIP3    H128937   4.307   2.320  17.035  0.5206 -0.9354  0.5385
 2482TIP3    H228938   4.158   2.294  17.052  0.3416 -1.9574 -2.0543
 2483TIP3   OH228939   4.677   0.158   2.331  0.2943 -0.0247  0.0319
 2483TIP3    H128940   4.588   0.126   2.347  0.4839 -0.5513  0.0519
 2483TIP3    H228941   4.719   0.088   2.281  0.8638 -0.0155  0.4894
 2484TIP3   OH228942   5.372   6.180   1.940  0.1511  0.6373  0.6637
 2484TIP3    H128943   5.438   6.140   1.883 -2.7400 -0.0426 -2.5019
 2484TIP3    H228944   5.372   6.272   1.917  0.0062  0.6408  0.6741
 2485TIP3   OH228945   3.265   3.780   0.916 -0.1956 -0.1398  0.1514
 2485TIP3    H128946   3.243   3.728   0.993  3.0639 -0.0602  1.3196
 2485TIP3    H228947   3.343   3.737   0.880 -0.0228  1.4210 -1.4641
 2486TIP3   OH228948   6.494   6.581   1.190 -0.0082  0.6763  0.5606
 2486TIP3    H128949   6.517   6.528   1.114  0.6420  0.9846  0.5389
 2486TIP3    H228950   6.503   6.521   1.264  1.4634  0.9311  0.6198
 2487TIP3   OH228951   3.948   0.651  13.116  0.4370  0.4125 -0.1643
 2487TIP3    H128952   3.932   0.556  13.111 -0.1132  0.5519 -1.2196
 2487TIP3    H228953   3.896   0.679  13.191  0.8930 -0.1699  0.3884
 2488TIP3   OH228954   2.629   0.827  11.962 -0.1082  0.7070  0.6028
 2488TIP3    H128955   2.625   0.891  11.890 -0.6308  1.2576  1.1157
 2488TIP3    H228956   2.560   0.764  11.942  0.7905 -0.0591 -0.2210
 2489TIP3   OH228957   2.737   3.745  11.635 -0.1157 -0.2011 -0.0983
 2489TIP3    H128958   2.689   3.761  11.554  1.0041  1.3279 -0.5051
 2489TIP3    H228959   2.819   3.793  11.625  1.1499 -1.9844  0.9399
 2490TIP3   OH228960   5.820   6.524  10.777 -0.1258  0.2024  0.1569
 2490TIP3    H128961   5.740   6.553  10.820 -0.4847  0.8028 -0.8860
 2490TIP3    H228962   5.866   6.605  10.755  0.4435 -0.1211  0.1399
 2491TIP3   OH228963   6.425   1.976   5.482 -0.6890  0.4650 -0.3274
 2491TIP3    H128964   6.339   1.970   5.441 -0.4564 -3.8031 -0.6028
 2491TIP3    H228965   6.435   1.894   5.530  3.9500 -0.1838 -1.8940
 2492TIP3   OH228966   5.795   5.939  15.267 -0.2097  0.1369  0.6898
 2492TIP3    H128967   5.876   5.984  15.288  0.2424 -0.4532  0.2367
 2492TIP3    H228968   5.821   5.848  15.250 -0.1297  0.8640 -4.4879
 2493TIP3   OH228969   3.509   2.315   0.817  0.9242  0.2086  0.3050
 2493TIP3    H128970   3.508   2.305   0.721 -0.8004  1.4617  0.1665
 2493TIP3    H228971   3.472   2.233   0.849  0.1882  0.3473 -0.1692
 2494TIP3   OH228972   6.348   2.221  12.279 -0.1879 -0.1370  0.1785
 2494TIP3    H128973   6.268   2.273  12.288 -1.7662 -2.5994  1.7659
 2494TIP3    H228974   6.359   2.210  12.185 -1.9304  0.0376 -0.0836
 2495TIP3   OH228975   0.179   3.097  14.078  0.2659 -0.2124 -0.2338
 2495TIP3    H128976   0.249   3.121  14.139 -1.6932  1.4014  1.5243
 2495TIP3    H228977   0.176   3.002  14.080 -1.0899 -0.2554  3.9927
 2496TIP3   OH228978   0.627   1.790  11.751 -0.2780 -0.3012  0.6669
 2496TIP3    H128979   0.706   1.825  11.709 -2.4487  3.6939 -0.6233
 2496TIP3    H228980   0.605   1.712  11.699  2.8067 -1.7414  1.2748
 2497TIP3   OH228981   5.960   2.352   0.568  0.1599 -0.1371 -0.8271
 2497TIP3    H128982   6.055   2.351   0.567  0.1566 -0.4240 -1.4270
 2497TIP3    H228983   5.935   2.294   0.640  0.4379  1.4739  0.6498
 2498TIP3   OH228984   5.416   6.292   2.565 -0.5221  0.8904  0.0852
 2498TIP3    H128985   5.324   6.314   2.547 -0.8495 -1.0960 -0.9080
 2498TIP3    H228986   5.432   6.327   2.652 -2.2409  1.2363  0.2958
 2499TIP3   OH228987   5.342   1.391   3.178  0.4463  0.3942 -0.0788
 2499TIP3    H128988   5.247   1.392   3.173  0.5064  0.9940 -3.1136
 2499TIP3    H228989   5.365   1.474   3.220 -0.3502  0.4170  0.3205
 2500TIP3   OH228990   0.522   4.464   2.947  0.0963  0.0399  0.4810
 2500TIP3    H128991   0.464   4.392   2.923 -0.1206  0.7916 -1.4151
 2500TIP3    H228992   0.607   4.440   2.909 -0.3375  1.4119 -1.5410
 2501TIP3   OH228993   0.153   6.408  16.868  0.5094  0.8455  0.2606
 2501TIP3    H128994   0.110   6.385  16.786  2.1059 -0.3791 -0.2649
 2501TIP3    H228995   0.205   6.486  16.847 -0.1016  1.3147  0.4620
 2502TIP3   OH228996   4.585   6.586  14.562 -0.4318 -0.0770 -0.4840
 2502TIP3    H128997   4.531   6.537  14.624 -0.3135 -0.6252 -0.8086
 2502TIP3    H228998   4.675   6.562  14.585 -0.4250 -2.1997 -2.3694
 2503TIP3   OH228999   1.803   0.275  12.187  0.6123  0.7202 -0.3316
 2503TIP3    H129000   1.756   0.196  12.215  0.6817  1.6155  2.6157
 2503TIP3    H229001   1.846   0.249  12.105 -0.7368 -1.7451 -0.3616
 2504TIP3   OH229002   4.943   5.044  16.441  1.0331  0.0938 -0.1575
 2504TIP3    H129003   4.991   5.040  16.524  2.8605  0.9808 -1.1096
 2504TIP3    H229004   4.885   5.119  16.451 -0.7921 -1.4104  1.2755
 2505TIP3   OH229005   1.109   0.581   1.041  0.2286  0.4088 -0.0061
 2505TIP3    H129006   1.091   0.664   0.997  0.0637 -0.2604 -1.2674
 2505TIP3    H229007   1.195   0.592   1.081  0.3782  1.0529 -0.5023
 2506TIP3   OH229008   6.496   5.712   3.418  0.0922  1.1516  0.1016
 2506TIP3    H129009   6.587   5.720   3.389 -0.3543  2.2319 -1.1004
 2506TIP3    H229010   6.451   5.786   3.377 -0.8912  2.0002  2.4954
 2507TIP3   OH229011   2.833   1.778  16.643 -0.1925  0.4249  0.8259
 2507TIP3    H129012   2.807   1.707  16.584 -0.1057  2.1775 -1.4118
 2507TIP3    H229013   2.891   1.735  16.706  0.4457 -1.3795 -0.8744
 2508TIP3   OH229014   2.498   1.706  13.823 -0.2239  0.2804 -0.1599
 2508TIP3    H129015   2.404   1.690  13.830 -0.6363  0.9897 -2.8370
 2508TIP3    H229016   2.515   1.779  13.882 -1.4318  0.4308  0.0267
 2509TIP3   OH229017   4.863   2.106  12.799 -0.0190  0.8644 -0.1124
 2509TIP3    H129018   4.955   2.132  12.795  0.2009  0.1254  0.0497
 2509TIP3    H229019   4.823   2.170  12.858  0.1688  1.7976 -0.9688
 2510TIP3   OH229020   2.222   4.489  12.194 -0.6135  0.1642 -0.0041
 2510TIP3    H129021   2.176   4.509  12.275  0.7819 -0.0836  0.8885
 2510TIP3    H229022   2.292   4.430  12.220 -0.2430 -0.0676 -1.4296
 2511TIP3   OH229023   3.495   5.661  15.914  0.0896 -0.6182  0.0116
 2511TIP3    H129024   3.534   5.614  15.841 -1.0086  1.3824 -1.9938
 2511TIP3    H229025   3.509   5.753  15.893 -1.5412  0.0465  1.5743
 2512TIP3   OH229026   2.518   3.596   3.188  0.1284 -0.2890  0.0603
 2512TIP3    H129027   2.442   3.645   3.156  0.0998 -0.3927 -0.0280
 2512TIP3    H229028   2.491   3.505   3.184  0.1614 -0.3085  0.2818
 2513TIP3   OH229029   5.998   3.333   4.770 -0.5420 -0.1379  0.0255
 2513TIP3    H129030   5.909   3.327   4.737 -0.4542 -0.2652 -0.1958
 2513TIP3    H229031   5.990   3.321   4.865 -0.7491 -0.2390 -0.0049
 2514TIP3   OH229032   5.893   0.161  12.246 -0.3091 -0.1454 -0.5317
 2514TIP3    H129033   5.974   0.138  12.291 -1.2635 -1.2510  0.7156
 2514TIP3    H229034   5.882   0.255  12.262  0.7325  0.0245 -0.7609
 2515TIP3   OH229035   4.692   2.248  14.826 -0.3895  0.1385  0.1665
 2515TIP3    H129036   4.758   2.186  14.859 -1.1944 -0.9645 -0.2399
 2515TIP3    H229037   4.726   2.276  14.741 -1.0442 -1.4626 -0.6642
 2516TIP3   OH229038   0.073   2.071  13.474 -0.5584 -0.3296  0.4836
 2516TIP3    H129039   0.060   2.130  13.400 -0.2133 -0.7102  0.1117
 2516TIP3    H229040  -0.005   2.082  13.528 -0.0657  1.2001  0.9426
 2517TIP3   OH229041   1.062   2.621   3.042 -0.3458 -0.7489 -0.0529
 2517TIP3    H129042   1.078   2.664   3.127 -0.3633 -3.4581  1.4217
 2517TIP3    H229043   1.137   2.564   3.030 -0.7798 -1.0460 -1.4693
 2518TIP3   OH229044   3.346   2.592   2.210  0.2968  0.0542 -0.0584
 2518TIP3    H129045   3.293   2.656   2.257  1.4637  1.3122 -0.3787
 2518TIP3    H229046   3.419   2.643   2.174  1.0145 -1.3812 -0.7350
 2519TIP3   OH229047   2.729   1.290   0.583 -0.0208 -0.4434 -0.0173
 2519TIP3    H129048   2.808   1.338   0.558  0.4974 -2.3829 -2.5416
 2519TIP3    H229049   2.758   1.200   0.596 -1.7541 -1.2257 -1.0736
 2520TIP3   OH229050   4.486   5.759   2.112  0.2313  0.6704 -0.3234
 2520TIP3    H129051   4.575   5.788   2.130  0.5820  1.1671 -2.5942
 2520TIP3    H229052   4.431   5.819   2.163  1.1572  0.5823  0.8147
 2521TIP3   OH229053   2.731   1.607  14.573  0.3073 -0.3649 -0.3353
 2521TIP3    H129054   2.780   1.586  14.493  1.1726  0.1483  0.0473
 2521TIP3    H229055   2.721   1.523  14.618 -0.3916 -0.6967 -1.0843
 2522TIP3   OH229056   0.897   0.561  17.270  1.1345 -0.1167 -0.2021
 2522TIP3    H129057   0.936   0.631  17.217  0.1183  0.4438 -0.2396
 2522TIP3    H229058   0.868   0.605  17.350  0.2678 -0.4443 -0.3290
 2523TIP3   OH229059   2.660   5.722  11.207 -0.2067  0.2850 -0.1942
 2523TIP3    H129060   2.726   5.788  11.187 -0.3575  0.8451  1.1098
 2523TIP3    H229061   2.616   5.754  11.285  0.0874 -1.6075  0.8139
 2524TIP3   OH229062   5.113   2.731   3.282 -0.8709 -0.0161 -0.2258
 2524TIP3    H129063   5.118   2.669   3.355 -1.8074 -1.0141 -0.9733
 2524TIP3    H229064   5.087   2.814   3.322  1.3805  0.2059  0.9354
 2525TIP3   OH229065   2.999   4.156  16.437 -0.0940  0.1001  0.1431
 2525TIP3    H129066   3.050   4.229  16.400 -0.7931  1.8349  2.3530
 2525TIP3    H229067   3.014   4.084  16.377  4.4105  0.6489  0.2187
 2526TIP3   OH229068   6.811   4.553  15.229 -0.2436 -0.2194  0.0802
 2526TIP3    H129069   6.820   4.548  15.134  0.2804 -3.2145  0.1778
 2526TIP3    H229070   6.887   4.604  15.258  0.8674 -1.1929 -1.0084
 2527TIP3   OH229071   3.360   5.444   4.062  0.0126  0.2309  0.6102
 2527TIP3    H129072   3.419   5.396   4.004 -0.2652  1.5650 -0.8615
 2527TIP3    H229073   3.375   5.536   4.040 -1.5281  0.6749  1.2673
 2528TIP3   OH229074   4.265   6.138  11.169 -0.7582  0.3370 -0.1736
 2528TIP3    H129075   4.225   6.097  11.093  0.5746 -1.5672  0.0648
 2528TIP3    H229076   4.192   6.154  11.229 -1.7657  1.4996 -1.6395
 2529TIP3   OH229077   6.013   3.552  11.426  0.1489 -0.0492 -0.0096
 2529TIP3    H129078   6.057   3.473  11.394  0.5514  0.2165 -0.1183
 2529TIP3    H229079   6.078   3.595  11.482 -0.3279 -0.1738  0.6446
 2530TIP3   OH229080   3.037   0.923   3.932  0.3189  0.0212 -0.1334
 2530TIP3    H129081   3.091   0.993   3.969 -1.1735  1.1943 -0.0633
 2530TIP3    H229082   3.074   0.843   3.968 -0.5109  1.0173  3.3045
 2531TIP3   OH229083   6.344   2.316   1.214  0.2354  0.7657  0.2233
 2531TIP3    H129084   6.296   2.348   1.138  1.8825  0.1458 -1.1537
 2531TIP3    H229085   6.288   2.247   1.250 -0.5534  1.0281 -0.4533
 2532TIP3   OH229086   0.716   1.323  12.313  0.4204 -0.1990  0.1069
 2532TIP3    H129087   0.686   1.240  12.351 -1.1738 -0.2511 -1.1573
 2532TIP3    H229088   0.767   1.364  12.382  0.7247 -1.9525  0.9785
 2533TIP3   OH229089   5.371   0.859   5.864 -0.5705  0.1543  0.0423
 2533TIP3    H129090   5.466   0.853   5.873 -0.5918  0.4968  0.5706
 2533TIP3    H229091   5.340   0.769   5.873 -0.2804  0.0158 -0.3364
 2534TIP3   OH229092   6.482   1.064  10.903  0.1710 -0.2875  0.2455
 2534TIP3    H129093   6.475   1.000  10.973  1.0468 -0.5564  0.0980
 2534TIP3    H229094   6.466   1.014  10.823  2.4190 -0.6986 -0.0095
 2535TIP3   OH229095   4.827   3.886   1.378 -0.0373  0.3616  0.3403
 2535TIP3    H129096   4.847   3.921   1.292 -0.8935 -2.7519 -1.2962
 2535TIP3    H229097   4.908   3.895   1.428  0.5760  1.9022 -0.8681
 2536TIP3   OH229098   2.565   2.173  17.256  0.2732  0.1375  0.2536
 2536TIP3    H129099   2.619   2.239  17.299  0.4749  0.1574 -0.0320
 2536TIP3    H229100   2.548   2.209  17.169  2.4314 -1.2551 -0.8251
 2537TIP3   OH229101   0.791   0.103  12.455  0.3742  0.3184 -0.3154
 2537TIP3    H129102   0.810   0.155  12.534 -0.9517 -0.3526  0.4736
 2537TIP3    H229103   0.729   0.157  12.406  1.6362  1.0008 -1.2397
 2538TIP3   OH229104   5.105   3.094  13.257  0.0181  0.3640  0.1004
 2538TIP3    H129105   5.103   3.142  13.340  1.6741 -0.2716  0.5535
 2538TIP3    H229106   5.039   3.025  13.267 -2.6016  2.5726 -0.6674
 2539TIP3   OH229107   1.189   1.047  14.667  0.7998 -0.0409 -0.6019
 2539TIP3    H129108   1.095   1.044  14.688  0.5513 -0.3260 -1.7030
 2539TIP3    H229109   1.218   1.132  14.702 -0.3915  1.1076 -2.2187
 2540TIP3   OH229110   3.925   3.404  14.069  0.2685 -0.5070  0.3700
 2540TIP3    H129111   3.886   3.350  14.000 -0.0910  0.8628 -0.5687
 2540TIP3    H229112   3.867   3.393  14.144  1.7269 -3.5653  1.2035
 2541TIP3   OH229113   2.139   1.949  15.376 -0.1544 -0.1944 -0.5401
 2541TIP3    H129114   2.074   1.937  15.307  0.0772  2.3017 -1.3196
 2541TIP3    H229115   2.224   1.943  15.331  0.1406 -1.8422  0.1769
 2542TIP3   OH229116   6.440   1.221  14.903  0.1719  0.2860 -0.2972
 2542TIP3    H129117   6.352   1.196  14.931 -1.3062  4.2658 -0.6719
 2542TIP3    H229118   6.475   1.271  14.977  3.0502 -2.7642  0.6103
 2543TIP3   OH229119   0.367   3.442   4.113 -0.1542  0.1005  0.2831
 2543TIP3    H129120   0.406   3.450   4.026 -0.1733  2.7595  0.4443
 2543TIP3    H229121   0.442   3.444   4.173 -0.2604  1.5939  0.4208
 2544TIP3   OH229122   3.766   0.988   1.302  0.0068  0.1911 -0.1244
 2544TIP3    H129123   3.736   1.057   1.362  0.4080  1.2064 -1.0490
 2544TIP3    H229124   3.703   0.989   1.231  0.7247  0.5205 -0.7755
 2545TIP3   OH229125   3.193   2.341  11.723 -0.0535  0.1044  0.2078
 2545TIP3    H129126   3.138   2.293  11.785  0.1457  0.1232  0.3999
 2545TIP3    H229127   3.172   2.303  11.637 -1.3680  1.0183  0.0937
 2546TIP3   OH229128   2.161   2.832  16.055 -0.2814 -0.2880  0.3848
 2546TIP3    H129129   2.231   2.877  16.102  0.9690  0.3569 -1.9439
 2546TIP3    H229130   2.194   2.742  16.043 -0.8449 -0.6115  1.2053
 2547TIP3   OH229131   1.378   6.115   5.132 -0.0175 -0.0692  0.3509
 2547TIP3    H129132   1.442   6.044   5.139  0.4352  0.2379 -0.4834
 2547TIP3    H229133   1.423   6.192   5.167 -0.1877 -0.0071  0.4334
 2548TIP3   OH229134   3.771   0.676  13.927  0.0183 -0.0387 -0.6241
 2548TIP3    H129135   3.749   0.583  13.929 -0.7686  0.1176 -1.3607
 2548TIP3    H229136   3.797   0.693  13.836  2.9121 -0.1231  0.1112
 2549TIP3   OH229137   1.559   1.970  16.322  0.3919  0.3866  0.0785
 2549TIP3    H129138   1.562   2.060  16.354 -0.1261  0.1685  0.7682
 2549TIP3    H229139   1.573   1.916  16.400 -1.4273 -0.1674  0.0645
 2550TIP3   OH229140   2.634   2.924   1.597  0.5001  0.3459  0.2551
 2550TIP3    H129141   2.552   2.966   1.623 -0.4496 -0.8205 -0.7163
 2550TIP3    H229142   2.667   2.978   1.525  0.2125  0.4255  0.1819
 2551TIP3   OH229143   4.745   5.660   3.083 -0.2873 -0.3263 -0.7900
 2551TIP3    H129144   4.739   5.746   3.041 -0.3593 -1.7833 -4.0677
 2551TIP3    H229145   4.838   5.637   3.077 -0.3888 -0.8005 -0.5884
 2552TIP3   OH229146   3.310   5.074   3.185 -0.3663 -0.0818  0.1730
 2552TIP3    H129147   3.290   5.167   3.172 -0.8188 -0.3252 -1.0093
 2552TIP3    H229148   3.399   5.063   3.152  0.0768  0.1304  1.2827
 2553TIP3   OH229149   5.278   0.162  13.086 -0.0809  0.1750 -0.3089
 2553TIP3    H129150   5.362   0.176  13.041  0.2545 -0.6976  0.0344
 2553TIP3    H229151   5.301   0.115  13.166 -1.1463 -2.6580 -1.5562
 2554TIP3   OH229152   2.620   6.531  14.852  0.1326  0.9334 -0.0616
 2554TIP3    H129153   2.548   6.474  14.878  0.5934  1.3678  2.4491
 2554TIP3    H229154   2.586   6.620  14.865  0.8175  1.1517  0.2749
 2555TIP3   OH229155   1.844   4.008  12.730  0.8416 -0.0500  0.3822
 2555TIP3    H129156   1.908   3.955  12.776  0.5261  0.2551  1.1971
 2555TIP3    H229157   1.846   3.976  12.640  0.6598 -1.4459  0.8477
 2556TIP3   OH229158   1.590   0.787  12.372 -0.0608 -0.0134  0.4573
 2556TIP3    H129159   1.596   0.809  12.465  1.9562 -0.5685  0.4904
 2556TIP3    H229160   1.680   0.775  12.344 -0.6671 -0.4296 -1.4492
 2557TIP3   OH229161   2.640   3.240   5.303 -0.4874 -0.4014  0.1418
 2557TIP3    H129162   2.624   3.289   5.222 -0.0093  2.0616  1.4290
 2557TIP3    H229163   2.723   3.194   5.287 -0.8403 -0.6548 -1.0518
 2558TIP3   OH229164   3.576   3.388   5.538  0.1415 -0.6039 -0.0085
 2558TIP3    H129165   3.587   3.356   5.627 -0.1327  0.1136  0.2881
 2558TIP3    H229166   3.595   3.482   5.543 -0.3422 -0.4676 -0.6122
 2559TIP3   OH229167   0.280   6.730  13.236 -0.0583 -0.2108 -0.6191
 2559TIP3    H129168   0.352   6.667  13.238 -0.4942 -0.7414 -1.2870
 2559TIP3    H229169   0.323   6.815  13.234  0.5416 -0.4341  0.9402
 2560TIP3   OH229170   2.022   2.578  10.957 -0.2054 -0.1496 -0.1591
 2560TIP3    H129171   2.030   2.673  10.957  0.6005 -0.1404 -2.6523
 2560TIP3    H229172   2.100   2.547  11.003 -0.7909  0.3550  1.2338
 2561TIP3   OH229173   6.470   1.795   4.095  0.0342 -0.2389 -0.7115
 2561TIP3    H129174   6.408   1.851   4.142 -0.2049 -1.6407  0.7600
 2561TIP3    H229175   6.528   1.855   4.049  0.1962  1.2402  1.3221
 2562TIP3   OH229176   0.233   2.965   3.400  0.2586  0.2057  0.3420
 2562TIP3    H129177   0.169   2.947   3.468  2.4602 -1.5489  2.1216
 2562TIP3    H229178   0.296   3.024   3.440  0.0757  1.5501 -1.2207
 2563TIP3   OH229179   0.214   4.460   0.877  0.3330  0.2494  0.4629
 2563TIP3    H129180   0.259   4.430   0.956 -0.3896 -0.7699  0.5157
 2563TIP3    H229181   0.149   4.391   0.859  0.1386  0.7134 -0.7216
 2564TIP3   OH229182   5.296   6.281  16.220  0.1583 -0.2311 -0.4213
 2564TIP3    H129183   5.256   6.340  16.284 -0.1775 -0.8142 -0.0746
 2564TIP3    H229184   5.267   6.314  16.135  1.1451  0.9365 -0.3202
 2565TIP3   OH229185   0.853   4.292  15.654 -0.5307 -0.2191  0.5046
 2565TIP3    H129186   0.885   4.381  15.639  0.2174 -0.2109  1.9517
 2565TIP3    H229187   0.914   4.236  15.606 -1.1182  0.0342 -0.5750
 2566TIP3   OH229188   6.015   2.746   5.702  0.3906  0.1293 -0.0611
 2566TIP3    H129189   6.062   2.760   5.784  0.3460  0.2940 -0.0614
 2566TIP3    H229190   5.944   2.811   5.705 -0.0443 -0.3448  0.0965
 2567TIP3   OH229191   1.832   5.816   0.272 -0.3224 -0.0772 -0.2978
 2567TIP3    H129192   1.748   5.848   0.305 -0.8988 -0.3192 -1.5045
 2567TIP3    H229193   1.889   5.815   0.350 -1.6633 -0.7360  0.7090
 2568TIP3   OH229194   2.019   0.912  13.388  0.4728 -0.0270  0.3272
 2568TIP3    H129195   2.095   0.858  13.367  0.8130 -0.3813  2.2811
 2568TIP3    H229196   1.951   0.848  13.410 -0.1384  0.3097 -0.5336
 2569TIP3   OH229197   3.539   1.787   2.519 -0.2802  0.4215 -0.0967
 2569TIP3    H129198   3.588   1.841   2.581  0.7602 -0.1599 -0.3886
 2569TIP3    H229199   3.598   1.776   2.445 -0.1153 -1.7842  0.2828
 2570TIP3   OH229200   3.106   6.183   5.481  0.3527 -0.0222  0.6201
 2570TIP3    H129201   3.084   6.126   5.555 -1.4368  1.7488  1.5378
 2570TIP3    H229202   3.068   6.140   5.405 -1.4715  0.1570  1.3861
 2571TIP3   OH229203   3.405   1.046   2.620 -0.0382  0.3257 -0.4256
 2571TIP3    H129204   3.459   1.098   2.679 -0.5230  0.7043 -0.3111
 2571TIP3    H229205   3.349   0.994   2.678 -1.0534  1.2565 -0.5277
 2572TIP3   OH229206   3.124   1.545  15.905  0.0771  0.4605 -0.3384
 2572TIP3    H129207   3.127   1.639  15.922  0.3759  0.2419  0.8478
 2572TIP3    H229208   3.090   1.539  15.815 -0.9176  1.6666 -0.0732
 2573TIP3   OH229209   0.589   4.005  16.077 -0.4000 -0.3265  0.2489
 2573TIP3    H129210   0.641   3.959  16.143 -1.3666 -0.2045  1.1157
 2573TIP3    H229211   0.654   4.038  16.014  0.3843 -1.9516  0.1683
 2574TIP3   OH229212   4.862   0.269   0.507 -0.0674  0.1011  0.2657
 2574TIP3    H129213   4.862   0.359   0.474  2.4148 -0.5247 -1.7799
 2574TIP3    H229214   4.771   0.240   0.497 -0.8560  2.2811  0.7423
 2575TIP3   OH229215   2.524   6.557  15.172  0.3761  0.2318  0.5511
 2575TIP3    H129216   2.563   6.477  15.138  1.2214  0.4107  1.0627
 2575TIP3    H229217   2.550   6.559  15.264  1.9282  1.9864  0.1518
 2576TIP3   OH229218   0.350   0.928  13.965 -0.1320 -0.4742  0.0624
 2576TIP3    H129219   0.306   0.852  14.003 -1.5903 -2.0617 -4.1793
 2576TIP3    H229220   0.417   0.890  13.908  0.0007  1.4579 -1.1659
 2577TIP3   OH229221   1.116   2.378   1.268 -0.1283  0.2153 -0.7793
 2577TIP3    H129222   1.175   2.302   1.261  0.7776  0.9530 -1.3191
 2577TIP3    H229223   1.038   2.343   1.312  1.1384 -0.5562  1.0194
 2578TIP3   OH229224   2.681   0.901   4.929  0.3832 -0.2187 -0.9314
 2578TIP3    H129225   2.769   0.905   4.893 -0.1575 -1.1175 -2.4244
 2578TIP3    H229226   2.660   0.808   4.929  0.0362 -0.2003  1.0143
 2579TIP3   OH229227   2.939   6.741  12.694 -0.3354  0.6118 -0.0354
 2579TIP3    H129228   2.918   6.737  12.601  0.5045  0.3046 -0.2252
 2579TIP3    H229229   2.865   6.699  12.737 -0.5697  0.4388 -0.5953
 2580TIP3   OH229230   3.997   2.338   4.072 -0.4906  0.1190  0.1079
 2580TIP3    H129231   4.085   2.355   4.038 -1.5640  1.3046 -2.2228
 2580TIP3    H229232   4.010   2.265   4.133  2.0863  0.2046 -0.2074
 2581TIP3   OH229233   5.271   1.711  11.073 -0.4093 -0.0948 -0.1025
 2581TIP3    H129234   5.230   1.798  11.067  1.0449  0.7680  1.3802
 2581TIP3    H229235   5.360   1.724  11.040 -0.5033 -1.2970 -0.8700
 2582TIP3   OH229236   0.454   1.347  14.808  0.0985 -0.1828 -0.2531
 2582TIP3    H129237   0.520   1.316  14.745 -0.4002  1.4663 -1.6639
 2582TIP3    H229238   0.370   1.332  14.764 -0.2389  1.4425 -0.2247
 2583TIP3   OH229239   0.561   2.447   5.972 -0.4704 -0.1739  0.2055
 2583TIP3    H129240   0.482   2.486   6.010  1.1066  1.0482  2.5010
 2583TIP3    H229241   0.554   2.354   5.991 -1.7999 -0.2625 -0.5680
 2584TIP3   OH229242   4.683   4.249  15.039 -0.0497 -0.5607  0.1642
 2584TIP3    H129243   4.680   4.334  15.083  1.8489 -0.9158  1.0947
 2584TIP3    H229244   4.594   4.214  15.048 -0.8184  1.2276 -0.1034
 2585TIP3   OH229245   1.578   6.006  13.182 -0.4920 -0.9038 -0.3784
 2585TIP3    H129246   1.674   6.009  13.187 -0.5170 -0.4159 -0.0206
 2585TIP3    H229247   1.559   5.997  13.089 -0.1043 -0.5608 -0.4939
 2586TIP3   OH229248   6.136   0.878   4.216 -0.3709 -0.5772 -0.0909
 2586TIP3    H129249   6.118   0.794   4.258 -1.8465 -0.4675 -0.4645
 2586TIP3    H229250   6.051   0.910   4.187  0.2157  0.8640 -0.3279
 2587TIP3   OH229251   1.120   4.904   4.640 -0.4201 -0.1739  0.2458
 2587TIP3    H129252   1.092   4.866   4.723 -0.7082 -0.7705 -0.1154
 2587TIP3    H229253   1.090   4.841   4.574 -0.8168  0.6340 -0.3583
 2588TIP3   OH229254   2.110   6.683   0.977  0.1079  0.1948  0.3199
 2588TIP3    H129255   2.140   6.721   1.060  2.8339  1.2944 -1.0481
 2588TIP3    H229256   2.174   6.713   0.912 -1.2110 -1.6474 -1.9974
 2589TIP3   OH229257   2.717   1.999  13.046  0.6224  0.4457 -0.5019
 2589TIP3    H129258   2.684   1.910  13.056 -2.1658  1.5331  1.1000
 2589TIP3    H229259   2.771   2.014  13.123 -0.6417  0.7954  0.3339
 2590TIP3   OH229260   4.673   3.128  13.140  0.1231  0.5752  0.2681
 2590TIP3    H129261   4.664   3.172  13.225 -0.5511  0.8717  0.0542
 2590TIP3    H229262   4.709   3.196  13.082 -1.6840  1.1400 -0.2657
 2591TIP3   OH229263   3.540   4.489  11.892  0.6629 -0.3399  0.0830
 2591TIP3    H129264   3.511   4.447  11.973 -1.5919 -0.2312 -0.5976
 2591TIP3    H229265   3.567   4.417  11.836  2.1748 -0.4196  0.8609
 2592TIP3   OH229266   4.253   2.475  11.323  0.6436  0.0435 -0.2930
 2592TIP3    H129267   4.247   2.569  11.339  0.5101 -0.2775  1.9915
 2592TIP3    H229268   4.252   2.436  11.411  1.5693 -2.0458 -1.1336
 2593TIP3   OH229269   2.849   2.373  13.312  0.1164 -0.0748 -0.4347
 2593TIP3    H129270   2.913   2.431  13.355 -0.4275  0.9816 -1.0234
 2593TIP3    H229271   2.903   2.304  13.274  0.9343  0.7957 -0.9197
 2594TIP3   OH229272   6.441   1.794   4.799  0.4739  0.5776  0.0656
 2594TIP3    H129273   6.357   1.770   4.760  0.8801 -0.2550 -0.3323
 2594TIP3    H229274   6.427   1.784   4.893 -0.0004  0.8763  0.0281
 2595TIP3   OH229275   2.713   1.088  16.097 -0.3431 -0.0267 -0.0623
 2595TIP3    H129276   2.642   1.036  16.059  0.9511 -1.4458 -0.6331
 2595TIP3    H229277   2.686   1.179  16.083 -1.7639 -0.5254 -0.7814
 2596TIP3   OH229278   0.708   4.619  12.339  0.3327 -0.7877  0.3385
 2596TIP3    H129279   0.745   4.708  12.335  0.4720 -0.8681 -0.2229
 2596TIP3    H229280   0.702   4.591  12.247 -1.0096 -0.8318  0.4201
 2597TIP3   OH229281   5.522   1.163   1.020  0.2319 -0.2344  0.1664
 2597TIP3    H129282   5.429   1.171   1.000  0.0531 -0.7689  0.7315
 2597TIP3    H229283   5.559   1.119   0.943  0.5544  2.4197 -1.2940
 2598TIP3   OH229284   0.415   0.934   0.795 -0.3161 -0.2874 -0.1459
 2598TIP3    H129285   0.341   0.911   0.739  0.7792 -0.2977 -1.6518
 2598TIP3    H229286   0.386   1.012   0.843 -1.5639 -0.7524 -0.1091
 2599TIP3   OH229287   1.148   0.128  12.816 -0.3674 -0.0630 -0.3833
 2599TIP3    H129288   1.129   0.042  12.777  0.0367 -0.3198 -0.0211
 2599TIP3    H229289   1.066   0.176  12.809 -0.8523 -0.7895  0.2224
 2600TIP3   OH229290   0.865   5.825   0.808  0.3099 -0.6901 -0.2492
 2600TIP3    H129291   0.904   5.741   0.784  0.2091 -0.5617 -0.8848
 2600TIP3    H229292   0.937   5.875   0.848  0.6133 -0.7274 -0.7439
 2601TIP3   OH229293   2.735   6.629   5.314 -0.3616  0.3017  0.2085
 2601TIP3    H129294   2.732   6.536   5.291 -0.4364  0.4434 -0.3842
 2601TIP3    H229295   2.703   6.674   5.235  2.0902  0.9917 -0.4666
 2602TIP3   OH229296   6.286   0.276   4.931  0.6407  0.3744  0.5742
 2602TIP3    H129297   6.204   0.321   4.954 -2.3040 -4.0282  0.0121
 2602TIP3    H229298   6.270   0.242   4.843  2.9838 -0.9274  0.5743
 2603TIP3   OH229299   4.100   5.959  15.767  0.0841  0.5509  0.2449
 2603TIP3    H129300   4.070   5.870  15.748 -1.4414  1.2680 -0.9012
 2603TIP3    H229301   4.116   5.998  15.681  2.1790  0.9616  0.7588
 2604TIP3   OH229302   1.442   2.586  16.430  0.1401  0.1142 -0.1027
 2604TIP3    H129303   1.537   2.581  16.437  0.1885  0.8956 -0.0483
 2604TIP3    H229304   1.415   2.502  16.393  0.9055  0.1135 -0.6734
 2605TIP3   OH229305   2.238   2.697   2.127  0.4166 -0.1831 -0.1597
 2605TIP3    H129306   2.239   2.792   2.134  1.8165 -0.0989 -1.1334
 2605TIP3    H229307   2.305   2.676   2.061 -1.5193 -1.7073 -1.7714
 2606TIP3   OH229308   5.938   1.990  15.675  0.2875 -0.0866 -0.4971
 2606TIP3    H129309   5.943   2.041  15.755  0.7385  1.1440 -1.2924
 2606TIP3    H229310   5.852   1.947  15.680 -0.3458  1.1872 -0.0705
 2607TIP3   OH229311   4.454   2.215   3.999 -0.0894 -0.0889 -0.5348
 2607TIP3    H129312   4.545   2.192   3.986  0.2035  0.8612 -0.2921
 2607TIP3    H229313   4.451   2.310   3.984 -1.1432 -0.1972 -1.1179
 2608TIP3   OH229314   0.187   0.101   5.761  0.4127 -0.4194  0.0859
 2608TIP3    H129315   0.167   0.008   5.777 -0.4010 -0.2991 -0.1798
 2608TIP3    H229316   0.214   0.104   5.670 -0.1950 -0.3046 -0.0951
 2609TIP3   OH229317   6.274   1.071   1.835 -0.3440  0.1144 -0.6572
 2609TIP3    H129318   6.303   0.981   1.846 -1.9443 -0.3396  0.0459
 2609TIP3    H229319   6.352   1.118   1.804  1.2230 -0.9693  1.4679
 2610TIP3   OH229320   4.850   4.708   3.735  0.2607 -0.5610  0.1784
 2610TIP3    H129321   4.915   4.653   3.692 -0.0687 -0.7267 -0.1161
 2610TIP3    H229322   4.769   4.657   3.730  0.0449 -0.2321  0.2776
 2611TIP3   OH229323   1.249   0.234   6.429  0.0231 -0.1219  0.9587
 2611TIP3    H129324   1.272   0.143   6.411 -1.2763 -0.3425  0.2742
 2611TIP3    H229325   1.161   0.229   6.467  0.4748  0.7681  2.1966
 2612TIP3   OH229326   1.410   2.745   0.083  0.0019 -0.2121 -0.1623
 2612TIP3    H129327   1.369   2.666   0.117  1.8686 -0.9135  0.5493
 2612TIP3    H229328   1.498   2.718   0.056  0.1379  1.2917 -1.3937
 2613TIP3   OH229329   0.706   6.274   5.544  0.0329  0.8177 -0.2246
 2613TIP3    H129330   0.780   6.308   5.494  0.6160  0.1690  0.1821
 2613TIP3    H229331   0.684   6.345   5.605 -0.0243  1.2110 -0.6892
 2614TIP3   OH229332   5.770   0.999   0.544  0.0210  0.0955 -0.1376
 2614TIP3    H129333   5.723   1.051   0.610  1.0222  0.4508  0.3304
 2614TIP3    H229334   5.732   0.912   0.550 -1.1013  0.5517 -0.3246
 2615TIP3   OH229335   4.298   0.811   2.722  0.5343  0.1180  0.4349
 2615TIP3    H129336   4.210   0.805   2.685 -0.0281 -0.3942  1.7905
 2615TIP3    H229337   4.354   0.833   2.648 -0.3809 -1.8382 -0.9175
 2616TIP3   OH229338   3.527   5.338   5.036  0.8143  0.6464  0.2539
 2616TIP3    H129339   3.517   5.285   4.957 -0.8359  0.2489  0.6733
 2616TIP3    H229340   3.543   5.427   5.004 -1.1614  0.7478 -0.6032
 2617TIP3   OH229341   5.015   2.268  11.797  0.3793  0.0755 -0.3679
 2617TIP3    H129342   5.034   2.179  11.828  2.1813  1.0425  1.5648
 2617TIP3    H229343   5.099   2.301  11.766  0.1538  1.7321  0.6924
 2618TIP3   OH229344   5.195   6.423  16.473 -0.2646 -0.3378  0.2339
 2618TIP3    H129345   5.221   6.514  16.493  0.7095 -0.9154  1.8345
 2618TIP3    H229346   5.099   6.425  16.474 -0.3556  1.2283 -2.6872
 2619TIP3   OH229347   0.892   4.903  12.842  0.0252 -0.5508 -0.1208
 2619TIP3    H129348   0.808   4.911  12.887  0.4919 -0.3968  0.7477
 2619TIP3    H229349   0.894   4.978  12.782 -1.5985 -2.0059 -2.1547
 2620TIP3   OH229350   6.000   6.354  17.215 -0.3337 -0.0221  0.2317
 2620TIP3    H129351   5.984   6.302  17.294 -1.6489 -0.5079 -0.3205
 2620TIP3    H229352   5.912   6.380  17.186  0.2654  2.6958  0.5882
 2621TIP3   OH229353   1.822   3.031  11.971 -0.5331  0.1117  0.3403
 2621TIP3    H129354   1.867   3.013  12.054 -1.0055  3.6222  1.5044
 2621TIP3    H229355   1.731   3.005  11.988 -0.8809  1.8607  1.4215
 2622TIP3   OH229356   1.363   4.373  16.307 -0.2876 -0.2173  0.0835
 2622TIP3    H129357   1.390   4.317  16.380 -1.6328  0.4028  1.1027
 2622TIP3    H229358   1.365   4.462  16.343  0.4488  0.2624 -1.0879
 2623TIP3   OH229359   6.418   5.156  13.874  0.2842  0.5129  0.2033
 2623TIP3    H129360   6.403   5.119  13.961  0.3312 -1.3626 -0.5410
 2623TIP3    H229361   6.349   5.118  13.819  2.0901 -0.8709 -1.2414
 2624TIP3   OH229362   3.892   0.279   5.875  0.4839  0.0847 -0.0496
 2624TIP3    H129363   3.939   0.267   5.957  1.9247 -2.1737 -1.1170
 2624TIP3    H229364   3.958   0.312   5.814  0.0456 -0.6202 -0.9172
 2625TIP3   OH229365   5.813   4.012   4.959 -0.1643 -0.0712 -0.2403
 2625TIP3    H129366   5.747   4.073   4.926 -0.2119 -0.0504 -0.1067
 2625TIP3    H229367   5.884   4.017   4.895  0.7382  1.6838  0.8045
 2626TIP3   OH229368   4.879   4.499   6.582 -0.6517  0.1806 -0.1259
 2626TIP3    H129369   4.827   4.555   6.524  0.7138  0.3999 -1.2003
 2626TIP3    H229370   4.856   4.528   6.670  0.3659  2.8799 -0.6410
 2627TIP3   OH229371   0.874   3.710  14.654  0.2084 -0.1617 -0.1326
 2627TIP3    H129372   0.906   3.623  14.677  1.7873  0.4825  0.2542
 2627TIP3    H229373   0.785   3.713  14.690  0.5573 -1.2066  0.8906
 2628TIP3   OH229374   2.791   0.237  12.630 -0.0921 -0.1753  0.2359
 2628TIP3    H129375   2.886   0.231  12.641 -0.1317 -1.6805 -0.0331
 2628TIP3    H229376   2.756   0.184  12.702 -0.7761  1.0795  0.8633
 2629TIP3   OH229377   2.340   1.085   1.754  0.5173 -0.2796 -0.4628
 2629TIP3    H129378   2.396   1.162   1.766  0.2449 -0.1923  0.2782
 2629TIP3    H229379   2.399   1.010   1.764  0.1902 -0.2663  2.5844
 2630TIP3   OH229380   3.130   0.410   6.423  0.7944 -0.6511  0.4590
 2630TIP3    H129381   3.142   0.505   6.418 -1.1005 -0.3256  1.0306
 2630TIP3    H229382   3.057   0.392   6.363 -0.2514 -1.4123  1.8943
 2631TIP3   OH229383   2.605   4.796  12.182 -0.5320  0.2490 -0.2402
 2631TIP3    H129384   2.699   4.781  12.195  0.0781  2.9063 -0.9783
 2631TIP3    H229385   2.595   4.808  12.088 -1.9095 -1.4456 -0.3563
 2632TIP3   OH229386   4.338   1.489   0.489 -0.0850 -0.2452 -0.1714
 2632TIP3    H129387   4.382   1.480   0.404 -1.0912  2.2340 -1.0518
 2632TIP3    H229388   4.357   1.578   0.517 -0.7786 -0.6203  1.6635
 2633TIP3   OH229389   1.966   6.119  15.808 -0.1037  0.3970  0.1173
 2633TIP3    H129390   1.987   6.031  15.839  0.6837  0.5920  0.1473
 2633TIP3    H229391   1.880   6.137  15.847 -0.3136 -0.3861  0.0428
 2634TIP3   OH229392   1.113   5.974  14.340 -0.0435  0.2230  0.3349
 2634TIP3    H129393   1.144   6.011  14.422  2.5778 -0.0612 -0.4353
 2634TIP3    H229394   1.100   6.049  14.282 -0.5797  0.3247  0.5799
 2635TIP3   OH229395   5.961   0.168   0.265 -0.4218  0.0211  0.1424
 2635TIP3    H129396   5.994   0.108   0.198 -0.0438 -0.4107  0.7095
 2635TIP3    H229397   6.025   0.239   0.268 -0.8076  0.4033 -0.4458
 2636TIP3   OH229398   1.766   3.735   5.183  0.0723 -0.1184  0.1246
 2636TIP3    H129399   1.801   3.817   5.148 -0.7457  0.4511  0.6288
 2636TIP3    H229400   1.829   3.709   5.250 -1.2424  1.7649  2.1975
 2637TIP3   OH229401   4.345   4.729   3.040 -0.1625  0.1911 -0.2858
 2637TIP3    H129402   4.259   4.769   3.029 -0.9619 -1.0743  0.9459
 2637TIP3    H229403   4.397   4.796   3.085 -1.2033  0.2042  0.9638
 2638TIP3   OH229404   0.874   0.803   2.796  0.1762  0.2583 -0.1201
 2638TIP3    H129405   0.853   0.887   2.837 -0.3290 -0.3572  0.9296
 2638TIP3    H229406   0.963   0.784   2.826 -0.0000  0.0586  0.2918
 2639TIP3   OH229407   6.717   4.211  14.028  0.3147  0.0478 -0.0022
 2639TIP3    H129408   6.742   4.227  13.937  0.0353  1.1335  0.1011
 2639TIP3    H229409   6.738   4.293  14.073  1.6588 -0.8919  1.1856
 2640TIP3   OH229410   1.836   0.994  11.213  0.5570  0.5342  0.0294
 2640TIP3    H129411   1.847   1.089  11.224  2.8975  0.2353  0.9006
 2640TIP3    H229412   1.895   0.972  11.141 -1.3282 -0.0565 -1.3889
 2641TIP3   OH229413   6.022   3.398  16.131  0.7764 -0.4500 -0.1280
 2641TIP3    H129414   6.042   3.465  16.066  2.0644  0.0262  0.7174
 2641TIP3    H229415   5.959   3.439  16.190  1.9923  0.2483  0.7167
 2642TIP3   OH229416   2.430   0.089   3.724  0.1153 -0.2294 -0.1849
 2642TIP3    H129417   2.380   0.033   3.665 -1.1698 -0.5259  1.1177
 2642TIP3    H229418   2.425   0.045   3.809 -0.6063  1.6061  0.8023
 2643TIP3   OH229419   6.578   3.181   0.953  0.8890  0.1049  0.4897
 2643TIP3    H129420   6.496   3.142   0.982  0.3922  1.1502  0.5315
 2643TIP3    H229421   6.643   3.150   1.016  0.0142  1.5122  2.1456
 2644TIP3   OH229422   0.986   2.350  14.315 -0.2802  0.3254 -0.6180
 2644TIP3    H129423   0.922   2.412  14.350 -2.8816 -0.8909 -2.8368
 2644TIP3    H229424   1.008   2.294  14.389 -0.3449  1.8713  0.6288
 2645TIP3   OH229425   1.409   5.020  13.907  0.4306  0.2719 -0.4806
 2645TIP3    H129426   1.473   4.953  13.927  2.6723  2.6417  0.9178
 2645TIP3    H229427   1.378   5.051  13.992  0.7765  2.1426 -0.9770
 2646TIP3   OH229428   3.524   4.936   1.591  0.3682  0.2719 -0.7713
 2646TIP3    H129429   3.463   4.995   1.546  2.6968  1.9025 -2.0258
 2646TIP3    H229430   3.478   4.853   1.595 -2.5456  1.7820 -0.1606
 2647TIP3   OH229431   0.799   6.476  16.961 -0.1870 -0.5980 -0.2537
 2647TIP3    H129432   0.727   6.498  17.020 -0.2744  0.9321 -0.8801
 2647TIP3    H229433   0.853   6.555  16.960  1.3924 -1.6321  0.0324
 2648TIP3   OH229434   4.916   4.965   1.736 -0.4121  0.2450  0.7876
 2648TIP3    H129435   4.830   4.925   1.752 -0.9805  0.6700 -1.0308
 2648TIP3    H229436   4.970   4.894   1.703 -0.7285  0.4254 -0.1582
 2649TIP3   OH229437   0.032   6.366   3.059 -0.0532  0.6115  0.2621
 2649TIP3    H129438  -0.051   6.347   3.015 -0.4820  1.3266  0.7320
 2649TIP3    H229439   0.099   6.347   2.994 -0.5901  0.1754 -0.1768
 2650TIP3   OH229440   5.842   4.385   3.908  0.2401 -0.1598  0.3237
 2650TIP3    H129441   5.809   4.368   3.996  0.2293  0.3527  0.4219
 2650TIP3    H229442   5.896   4.309   3.888  1.5945  0.4475  1.4399
 2651TIP3   OH229443   4.778   0.349  14.359  0.2252  0.0206 -0.2942
 2651TIP3    H129444   4.872   0.346  14.341 -0.1850 -0.6468 -2.7565
 2651TIP3    H229445   4.748   0.427  14.312  0.0677  2.8991  4.0318
 2652TIP3   OH229446   5.786   3.895  11.058  0.3145  0.6839 -0.6774
 2652TIP3    H129447   5.738   3.952  11.119 -2.9904 -1.5913 -0.8744
 2652TIP3    H229448   5.842   3.955  11.009 -1.7704  3.5563  0.1394
 2653TIP3   OH229449   0.563   1.987  15.260  0.3964  0.1142 -0.1477
 2653TIP3    H129450   0.641   1.936  15.280  0.4616  0.9220  1.8797
 2653TIP3    H229451   0.512   1.931  15.201  1.8745 -0.9570 -0.4686
 2654TIP3   OH229452   3.841   6.191   2.768  0.1636 -0.1240  0.5196
 2654TIP3    H129453   3.899   6.244   2.823  0.2865 -0.7258  0.9819
 2654TIP3    H229454   3.753   6.211   2.800  0.0152  1.5179 -0.8144
 2655TIP3   OH229455   2.771   3.727  11.954  0.0880 -0.5596  0.3520
 2655TIP3    H129456   2.852   3.776  11.971  0.3139 -0.7857 -0.0801
 2655TIP3    H229457   2.702   3.785  11.985  0.4674 -0.8405  1.8380
 2656TIP3   OH229458   0.578   5.243  10.404 -0.4705 -0.3704  0.2822
 2656TIP3    H129459   0.507   5.303  10.426 -1.7021 -1.9989  0.8821
 2656TIP3    H229460   0.543   5.189  10.334  0.5271 -0.5931 -0.0595
 2657TIP3   OH229461   2.525   5.014  12.529  0.0913  0.4223  0.2955
 2657TIP3    H129462   2.453   5.024  12.466  0.8326 -1.1796 -0.8607
 2657TIP3    H229463   2.515   4.925  12.563  1.6331  0.1132 -0.0151
 2658TIP3   OH229464   3.742   2.087  16.132  0.1485  0.6604  0.6168
 2658TIP3    H129465   3.788   2.168  16.114  0.4774  0.0215 -1.7431
 2658TIP3    H229466   3.799   2.040  16.193  1.3743  0.9777 -0.2512
 2659TIP3   OH229467   4.633   0.587  16.411 -0.8551 -0.1800  0.5420
 2659TIP3    H129468   4.659   0.627  16.328  2.2193 -1.0479  0.9621
 2659TIP3    H229469   4.564   0.525  16.387 -0.4704  0.0208 -1.2484
 2660TIP3   OH229470   1.348   2.274   0.135  0.0649  0.3990  0.4217
 2660TIP3    H129471   1.278   2.266   0.071  0.5550  1.0855 -0.2294
 2660TIP3    H229472   1.405   2.343   0.099  2.7010 -2.1281 -0.6101
 2661TIP3   OH229473   3.704   6.626  12.759  0.2502 -0.5930 -0.3759
 2661TIP3    H129474   3.694   6.668  12.674 -2.0132 -3.0037 -1.4573
 2661TIP3    H229475   3.620   6.640  12.802  0.9555 -0.4334  1.0027
 2662TIP3   OH229476   3.139   3.262   2.280  0.4169  0.1092 -0.2925
 2662TIP3    H129477   3.221   3.256   2.328 -1.0211  0.5766  2.4389
 2662TIP3    H229478   3.118   3.356   2.279 -0.2976 -0.0434 -0.5536
 2663TIP3   OH229479   5.966   0.027  15.245 -0.2486  0.1618 -0.1276
 2663TIP3    H129480   5.934   0.112  15.215 -2.5302 -1.2929 -2.2091
 2663TIP3    H229481   5.992  -0.019  15.165  0.1380 -1.4098  0.8471
 2664TIP3   OH229482   4.206   6.549  14.064  0.3580 -0.3683  0.1961
 2664TIP3    H129483   4.126   6.504  14.036 -0.0738  0.4137  0.1611
 2664TIP3    H229484   4.187   6.580  14.152  1.9855 -3.5042  1.8278
 2665TIP3   OH229485   1.355   4.761  13.291  0.0945 -0.7065  0.0067
 2665TIP3    H129486   1.337   4.821  13.220 -0.4555 -1.6512 -0.6801
 2665TIP3    H229487   1.427   4.706  13.259  0.9574 -0.0923  0.8300
 2666TIP3   OH229488   4.716   1.235   4.657 -0.3484  0.5547 -0.7183
 2666TIP3    H129489   4.678   1.263   4.574 -0.1181 -1.3182 -1.5068
 2666TIP3    H229490   4.651   1.259   4.723 -1.2186  0.7253 -1.6134
 2667TIP3   OH229491   5.321   3.885  11.283 -0.8719 -0.1090 -0.2876
 2667TIP3    H129492   5.409   3.920  11.300 -0.8594 -0.6398  0.7858
 2667TIP3    H229493   5.264   3.962  11.284 -0.6545  0.0499  0.7285
 2668TIP3   OH229494   1.550   0.757   4.584  0.2587  0.3065  0.3678
 2668TIP3    H129495   1.641   0.786   4.575  0.9175 -1.5427  0.6432
 2668TIP3    H229496   1.522   0.794   4.668  0.2235  2.1291 -0.3984
 2669TIP3   OH229497   3.845   4.114   6.620  0.0694  0.1975  0.2793
 2669TIP3    H129498   3.797   4.094   6.539  1.0256 -1.2931  0.0567
 2669TIP3    H229499   3.923   4.160   6.591 -0.1306  0.6588  0.4612
 2670TIP3   OH229500   5.502   2.768  13.042 -0.3025 -0.2886  0.0510
 2670TIP3    H129501   5.445   2.837  13.076  0.7596  0.8321 -0.3859
 2670TIP3    H229502   5.551   2.738  13.119 -0.3082 -0.1078  0.1265
 2671TIP3   OH229503   3.356   6.571   4.843  0.4297 -0.0769 -0.0093
 2671TIP3    H129504   3.268   6.590   4.874  0.6723  0.5524  0.2974
 2671TIP3    H229505   3.412   6.580   4.920  0.6206 -1.6699  0.0798
 2672TIP3   OH229506   2.712   5.056  15.326  0.3814 -0.5174 -0.3668
 2672TIP3    H129507   2.669   5.017  15.403 -0.2953 -0.0655 -0.5062
 2672TIP3    H229508   2.653   5.036  15.254  1.0002 -0.9113 -0.7732
 2673TIP3   OH229509   0.731   0.831  14.212  0.3345  0.3920  0.2789
 2673TIP3    H129510   0.645   0.822  14.252 -0.0509 -1.1779 -0.8293
 2673TIP3    H229511   0.713   0.851  14.120  1.1621  0.3823  0.1070
 2674TIP3   OH229512   2.002   3.108   3.350  0.1621  0.1184  0.2463
 2674TIP3    H129513   2.082   3.080   3.396  1.9582  1.4582 -1.8571
 2674TIP3    H229514   1.985   3.196   3.384  0.2646  0.2842 -0.1280
 2675TIP3   OH229515   2.160   3.763  15.522  0.2825 -0.7171 -0.4429
 2675TIP3    H129516   2.239   3.777  15.574 -0.0297 -0.0040 -0.1369
 2675TIP3    H229517   2.141   3.849  15.484 -1.2649 -0.4467  0.8364
 2676TIP3   OH229518   4.523   1.250  14.024  0.0519 -0.1320  0.7904
 2676TIP3    H129519   4.524   1.286  14.113 -1.2079  0.6704  0.5058
 2676TIP3    H229520   4.605   1.282  13.985 -0.2413  1.0600  1.0951
 2677TIP3   OH229521   1.939   6.495  11.095  0.5361  0.2940  0.2066
 2677TIP3    H129522   1.859   6.530  11.056  0.5651 -0.1910 -0.2971
 2677TIP3    H229523   1.993   6.572  11.112 -0.4109  0.7245  1.4337
 2678TIP3   OH229524   1.927   2.582  13.445 -0.2121 -0.3683  0.6962
 2678TIP3    H129525   1.847   2.630  13.422 -0.8861 -1.2923  1.0143
 2678TIP3    H229526   1.927   2.580  13.541 -2.7385 -4.7849  0.9258
 2679TIP3   OH229527   3.120   6.584   0.602  0.4785  0.1736  0.3668
 2679TIP3    H129528   3.209   6.551   0.594  0.7838  0.6956  1.4231
 2679TIP3    H229529   3.064   6.509   0.584  1.1248 -0.1529 -0.3213
 2680TIP3   OH229530   2.418   6.504   3.325  0.2733 -0.4754 -0.4470
 2680TIP3    H129531   2.432   6.411   3.307 -0.3172 -0.4493 -1.0787
 2680TIP3    H229532   2.324   6.512   3.339  0.2735  0.0770 -0.7239
 2681TIP3   OH229533   3.725   2.682   3.161  0.3836 -0.8481  0.6398
 2681TIP3    H129534   3.762   2.594   3.164 -0.0501 -1.1262 -1.1240
 2681TIP3    H229535   3.634   2.670   3.135  0.1635  0.0909  0.9229
 2682TIP3   OH229536   5.073   6.556  14.821 -0.2059 -0.0179  0.1702
 2682TIP3    H129537   5.126   6.608  14.761 -1.8068 -0.5089 -1.7776
 2682TIP3    H229538   5.113   6.570  14.907  1.0732  2.1670 -0.7085
 2683TIP3   OH229539   5.191   5.360   1.133  0.0485  1.0962 -0.2182
 2683TIP3    H129540   5.102   5.328   1.125 -0.2613  1.8246  0.2043
 2683TIP3    H229541   5.206   5.366   1.228  0.8936  0.0485 -0.2656
 2684TIP3   OH229542   6.479   3.116  13.306  0.1001  0.3356  0.2098
 2684TIP3    H129543   6.485   3.025  13.278 -0.6058  0.4166 -0.2295
 2684TIP3    H229544   6.385   3.131  13.321  0.3714  0.4642  2.0912
 2685TIP3   OH229545   3.755   1.541   5.223 -0.3994 -0.1463  0.0286
 2685TIP3    H129546   3.662   1.533   5.202 -0.2500 -1.5349 -0.2185
 2685TIP3    H229547   3.767   1.481   5.297  0.1577  0.5915  0.5455
 2686TIP3   OH229548   3.222   4.333   1.555 -0.2662  0.3980 -0.3251
 2686TIP3    H129549   3.296   4.335   1.495  0.1838  1.7344  0.2175
 2686TIP3    H229550   3.233   4.252   1.605  0.9888  0.6879 -0.0867
 2687TIP3   OH229551   1.153   4.892  16.482  0.5881 -0.1517 -0.4209
 2687TIP3    H129552   1.086   4.836  16.442  0.3222 -1.3668  1.5636
 2687TIP3    H229553   1.199   4.931  16.408  0.3330 -2.4773 -1.9024
 2688TIP3   OH229554   0.497   3.532  14.562  1.1619  0.0677 -0.4662
 2688TIP3    H129555   0.551   3.575  14.629  1.1563 -0.6424  0.0065
 2688TIP3    H229556   0.535   3.445  14.553 -0.4747 -0.8110  0.6093
 2689TIP3   OH229557   0.887   4.732  13.571  0.7830 -0.2655 -0.0894
 2689TIP3    H129558   0.938   4.701  13.646  1.4876  0.5162 -0.2308
 2689TIP3    H229559   0.933   4.810  13.541 -1.0100  1.0278  0.3416
 2690TIP3   OH229560   2.432   5.153  16.593  0.0900  0.0585 -0.4338
 2690TIP3    H129561   2.343   5.177  16.567 -0.6501 -4.1482 -2.5790
 2690TIP3    H229562   2.431   5.156  16.689 -1.8689  1.5138 -0.4443
 2691TIP3   OH229563   6.440   5.170   1.930 -0.2461  0.5106  0.1227
 2691TIP3    H129564   6.519   5.185   1.982 -1.2331 -0.5280  2.0542
 2691TIP3    H229565   6.394   5.254   1.933  1.3068  1.5395 -2.1246
 2692TIP3   OH229566   2.443   1.953  16.114  0.0878  0.0401  0.2057
 2692TIP3    H129567   2.420   1.938  16.022  1.1992  0.9434 -0.2607
 2692TIP3    H229568   2.456   2.048  16.120  1.3593 -0.1499  0.9436
 2693TIP3   OH229569   5.212   4.886  12.648  0.4172 -0.5882  0.1236
 2693TIP3    H129570   5.188   4.806  12.694  0.9436  0.0057  1.4974
 2693TIP3    H229571   5.129   4.931  12.631  0.2896  0.0292  2.1413
 2694TIP3   OH229572   4.483   5.060   0.388 -0.1035 -0.2971  0.7564
 2694TIP3    H129573   4.484   4.988   0.452 -2.7440 -0.1183  1.1135
 2694TIP3    H229574   4.417   5.034   0.324 -0.6140  1.4857  0.5043
 2695TIP3   OH229575   4.741   3.620   5.946 -0.3264 -0.0550 -0.3730
 2695TIP3    H129576   4.690   3.544   5.974 -1.2202  0.4181 -0.6449
 2695TIP3    H229577   4.695   3.694   5.985  0.0544  0.3974 -0.7820
 2696TIP3   OH229578   5.139   4.747   1.199 -0.0597  0.3917  0.0659
 2696TIP3    H129579   5.102   4.828   1.163 -2.2836 -1.1088 -1.2546
 2696TIP3    H229580   5.155   4.692   1.123 -1.1159 -1.3849  1.0644
 2697TIP3   OH229581   5.774   2.550  11.421 -0.8026 -0.3061 -0.5335
 2697TIP3    H129582   5.854   2.504  11.392 -0.8383 -0.8143  0.1337
 2697TIP3    H229583   5.748   2.503  11.500  0.8315  2.6667  1.9491
 2698TIP3   OH229584   5.506   1.507  14.629  0.2501  0.2715 -0.4517
 2698TIP3    H129585   5.528   1.431  14.684 -0.2267 -0.1652 -0.8527
 2698TIP3    H229586   5.580   1.514  14.569 -0.2079 -0.5702 -1.1377
 2699TIP3   OH229587   4.950   5.518  11.201  0.3697  0.2749  0.9530
 2699TIP3    H129588   4.918   5.444  11.149 -2.4036  0.0547  2.7658
 2699TIP3    H229589   4.914   5.595  11.157  0.8386  0.3591  0.7045
 2700TIP3   OH229590   3.761   0.277  14.220  0.0113  0.0528 -0.7497
 2700TIP3    H129591   3.778   0.285  14.126 -1.4248 -0.4497 -1.0780
 2700TIP3    H229592   3.844   0.245  14.257  1.4767  2.7291 -1.4015
 2701TIP3   OH229593   0.225   3.289   0.440 -0.1301  0.3705  0.0693
 2701TIP3    H129594   0.300   3.348   0.445 -1.0833  1.5499  1.1192
 2701TIP3    H229595   0.165   3.331   0.378  0.0702 -0.5732 -0.7796
 2702TIP3   OH229596   0.572   2.443   5.679 -0.3170  0.6355  0.4228
 2702TIP3    H129597   0.548   2.388   5.753  0.9407 -1.8326 -0.8643
 2702TIP3    H229598   0.664   2.465   5.694 -0.5201  1.5290  0.4056
 2703TIP3   OH229599   2.493   1.772  14.328 -0.8368  0.3836  0.0817
 2703TIP3    H129600   2.505   1.753  14.421  0.8381 -0.1403 -0.1892
 2703TIP3    H229601   2.528   1.860  14.316  0.9753 -0.3346 -0.3571
 2704TIP3   OH229602   6.560   3.061   1.705 -0.2843 -0.3205 -0.0697
 2704TIP3    H129603   6.631   2.997   1.710 -1.3779 -1.6229 -0.5576
 2704TIP3    H229604   6.505   3.029   1.633 -0.2068  1.8711 -1.1761
 2705TIP3   OH229605   6.192   3.151   3.848 -0.2447  0.3813 -0.0797
 2705TIP3    H129606   6.260   3.103   3.894 -0.9869 -0.1826  0.4534
 2705TIP3    H229607   6.131   3.178   3.916 -2.0331 -1.5597 -0.7892
 2706TIP3   OH229608   1.767   0.037  13.269  0.3616  0.1304  0.1194
 2706TIP3    H129609   1.855   0.007  13.245  0.8281  0.0081  1.8641
 2706TIP3    H229610   1.720   0.044  13.186  1.1578 -2.4763 -0.6285
 2707TIP3   OH229611   6.268   0.672   1.368  0.1958  0.0188 -0.1681
 2707TIP3    H129612   6.184   0.719   1.368  0.2059  0.0826  1.3223
 2707TIP3    H229613   6.244   0.580   1.368  0.1134  0.0370  0.2113
 2708TIP3   OH229614   2.035   3.304   1.243 -0.7626  0.3878  0.2640
 2708TIP3    H129615   1.957   3.328   1.292 -0.1103  0.2856  1.3798
 2708TIP3    H229616   2.038   3.209   1.246 -2.7179  0.0580 -3.1871
 2709TIP3   OH229617   4.187   4.780   6.725 -0.0352 -0.4358 -1.1663
 2709TIP3    H129618   4.131   4.711   6.691  1.2993 -1.8307 -0.6793
 2709TIP3    H229619   4.160   4.859   6.679 -3.0176 -0.8040 -0.2807
 2710TIP3   OH229620   3.560   1.950  10.714 -0.0212 -0.4749 -0.5195
 2710TIP3    H129621   3.568   1.977  10.622  1.2537 -1.0927 -0.6026
 2710TIP3    H229622   3.627   2.000  10.760 -1.3184  0.5890  0.2732
 2711TIP3   OH229623   2.490   6.078   0.647  0.0218 -0.3310  0.4081
 2711TIP3    H129624   2.428   6.024   0.599 -0.5968 -0.7226  1.5961
 2711TIP3    H229625   2.518   6.145   0.585 -2.9793  1.0014  0.3240
 2712TIP3   OH229626   0.107   1.553   3.858 -0.1040 -0.0968  0.2450
 2712TIP3    H129627   0.180   1.592   3.810  0.3979 -1.0441  0.2047
 2712TIP3    H229628   0.134   1.557   3.950 -0.2076 -0.0315  0.2728
 2713TIP3   OH229629   3.275   1.981  12.220  0.5430 -0.1894 -0.3140
 2713TIP3    H129630   3.222   1.902  12.226 -1.4683  1.0927 -0.1093
 2713TIP3    H229631   3.269   2.021  12.307  1.6037  0.1616 -0.3870
 2714TIP3   OH229632   4.002   0.228   1.476  0.0773 -0.1879 -0.6946
 2714TIP3    H129633   4.055   0.180   1.540  1.5990  1.0347 -0.9836
 2714TIP3    H229634   3.966   0.302   1.525 -0.2219 -0.2394 -0.8342
 2715TIP3   OH229635   1.640   3.122  15.166  0.1891  0.2901 -0.2943
 2715TIP3    H129636   1.593   3.149  15.087 -1.6443 -2.4709 -0.2500
 2715TIP3    H229637   1.582   3.148  15.238  0.9013  0.9453  0.0568
 2716TIP3   OH229638   2.031   6.174  14.275 -0.0146  0.3185 -0.4038
 2716TIP3    H129639   2.101   6.114  14.302  0.4403  1.8744  2.3310
 2716TIP3    H229640   2.076   6.256  14.255 -0.7480  0.2173 -2.6596
 2717TIP3   OH229641   2.548   6.568   2.599  0.1380  0.3886  0.1843
 2717TIP3    H129642   2.482   6.633   2.576 -1.2531 -0.6154  1.1601
 2717TIP3    H229643   2.549   6.566   2.694  0.0986 -1.0450  0.1893
 2718TIP3   OH229644   3.056   1.368  17.262  0.3415 -0.2170 -0.4648
 2718TIP3    H129645   3.044   1.445  17.319  2.2042 -0.6131  0.5469
 2718TIP3    H229646   3.130   1.392  17.206 -0.2409 -0.5925 -1.4119
 2719TIP3   OH229647   0.179   0.461  11.631 -1.1422 -0.5866  0.0790
 2719TIP3    H129648   0.131   0.455  11.548 -1.1078 -0.0387  0.0179
 2719TIP3    H229649   0.263   0.418  11.614 -0.9673 -0.0937 -0.2931
 2720TIP3   OH229650   6.794   1.991  11.930  0.6449 -0.2858  0.0790
 2720TIP3    H129651   6.802   1.905  11.971  0.6510 -0.3183  0.0101
 2720TIP3    H229652   6.822   1.977  11.839  1.6201  0.0005  0.3250
 2721TIP3   OH229653   3.470   2.447  14.095 -0.1424  0.3514 -0.4714
 2721TIP3    H129654   3.388   2.426  14.051 -1.0264  0.2652  1.1170
 2721TIP3    H229655   3.516   2.505  14.035  0.0832 -1.9978 -2.7717
 2722TIP3   OH229656   5.009   0.586  16.235  0.1358 -0.5963  0.3363
 2722TIP3    H129657   5.041   0.562  16.148  1.2554  2.5600 -0.2650
 2722TIP3    H229658   4.918   0.613  16.220  0.4509  0.3429 -0.0031
 2723TIP3   OH229659   0.628   1.903   1.033 -0.7629 -0.3549 -0.7778
 2723TIP3    H129660   0.627   1.994   1.063 -2.5657  0.3837 -2.7993
 2723TIP3    H229661   0.668   1.854   1.105  0.2207  2.0018  0.3915
 2724TIP3   OH229662   3.426   4.272   4.463 -0.1139 -0.4065  0.1555
 2724TIP3    H129663   3.471   4.191   4.437 -1.2824 -1.0419  0.0214
 2724TIP3    H229664   3.374   4.246   4.539  0.8301  0.6676  1.2172
 2725TIP3   OH229665   1.097   6.685   0.485  0.2478  0.3881 -0.1602
 2725TIP3    H129666   1.081   6.731   0.403  1.4573 -0.0443 -0.6542
 2725TIP3    H229667   1.131   6.752   0.544 -0.4737  0.6660 -0.0460
 2726TIP3   OH229668   1.445   5.214   5.118 -0.5132  0.0328 -0.3758
 2726TIP3    H129669   1.428   5.241   5.208 -1.2663  1.6382 -0.9636
 2726TIP3    H229670   1.374   5.153   5.097 -0.4101 -0.2411  0.0629
 2727TIP3   OH229671   5.743   6.207   2.776  0.3875  0.3541  0.9917
 2727TIP3    H129672   5.680   6.136   2.783  1.5059 -1.1156 -2.1868
 2727TIP3    H229673   5.799   6.197   2.853 -0.8007 -0.8269  1.7407
 2728TIP3   OH229674   3.696   0.081   2.983  0.5036  1.0348  0.1625
 2728TIP3    H129675   3.771   0.032   2.950  1.7484  2.7054  0.3901
 2728TIP3    H229676   3.638   0.088   2.908  0.4209 -0.4618  0.0404
 2729TIP3   OH229677   4.357   4.553  13.140 -0.2385 -0.0880 -0.0131
 2729TIP3    H129678   4.427   4.585  13.197 -0.3572 -0.5303  0.3952
 2729TIP3    H229679   4.296   4.510  13.200 -1.8176  1.8778 -0.1116
 2730TIP3   OH229680   4.358   5.113  13.626  0.1717  0.2924 -0.5579
 2730TIP3    H129681   4.381   5.170  13.552 -1.0296  1.1507 -0.3004
 2730TIP3    H229682   4.325   5.033  13.585  0.1482  0.4966 -0.9420
 2731TIP3   OH229683   3.477   4.925   2.147  0.0739  0.5853 -0.2375
 2731TIP3    H129684   3.469   5.017   2.122  0.4541  0.4992 -0.7051
 2731TIP3    H229685   3.429   4.877   2.079  0.4166  0.4020 -0.3546
 2732TIP3   OH229686   4.927   4.098  13.736  0.1416  0.9641  0.2568
 2732TIP3    H129687   4.957   4.115  13.825  0.4015  1.8459  0.0096
 2732TIP3    H229688   4.904   4.184  13.702 -1.6932  0.4426  0.0709
 2733TIP3   OH229689   2.919   0.741   0.495  0.0039  0.2048 -0.2400
 2733TIP3    H129690   2.948   0.771   0.409 -0.1544  0.3349 -0.2505
 2733TIP3    H229691   2.856   0.808   0.523  0.3747  0.3893  0.1640
 2734TIP3   OH229692   0.523   5.691  16.807  0.5637  0.1285  0.1055
 2734TIP3    H129693   0.490   5.684  16.897 -1.2152 -0.1678 -0.5404
 2734TIP3    H229694   0.464   5.636  16.756  0.2239  1.9698 -1.5814
 2735TIP3   OH229695   5.973   3.861  11.846  0.1131 -0.1643 -0.0803
 2735TIP3    H129696   5.914   3.876  11.771 -1.1771 -1.1389  0.7008
 2735TIP3    H229697   5.996   3.769  11.840 -0.0174 -0.2518  0.7426
 2736TIP3   OH229698   5.803   0.815  16.634 -0.1074  0.2313 -0.7274
 2736TIP3    H129699   5.821   0.782  16.546 -0.1236  1.9851 -1.4257
 2736TIP3    H229700   5.884   0.859  16.661  0.5260 -1.7270  0.9017
 2737TIP3   OH229701   1.291   2.606  15.178  0.5351 -0.3431  0.1255
 2737TIP3    H129702   1.382   2.618  15.152 -0.1447  1.2675 -1.8193
 2737TIP3    H229703   1.241   2.618  15.097 -1.3510 -2.4926  0.8597
 2738TIP3   OH229704   2.391   2.558  14.566  0.0881  0.0978 -0.3631
 2738TIP3    H129705   2.436   2.607  14.498  1.1763  1.4730  1.2662
 2738TIP3    H229706   2.301   2.592  14.565  0.4048  0.9674 -0.3631
 2739TIP3   OH229707   0.198   6.311   0.427 -0.2948 -0.1505  0.3361
 2739TIP3    H129708   0.253   6.256   0.371 -1.9187 -1.9102  0.3669
 2739TIP3    H229709   0.242   6.396   0.427  1.5504 -1.0267 -0.8848
 2740TIP3   OH229710   2.699   3.638  17.178  0.4526  0.1642  0.1094
 2740TIP3    H129711   2.715   3.654  17.270  1.7761 -0.2193 -0.0378
 2740TIP3    H229712   2.782   3.656  17.135 -0.0347 -0.0312 -0.9632
 2741TIP3   OH229713   2.589   4.844  14.620 -0.4454 -0.1769  0.2911
 2741TIP3    H129714   2.675   4.873  14.650 -0.3422 -0.4989  0.3163
 2741TIP3    H229715   2.607   4.803  14.535 -0.8128  1.2374 -0.4970
 2742TIP3   OH229716   5.565   1.608   2.699 -0.1347 -0.0155  0.1454
 2742TIP3    H129717   5.470   1.591   2.695  0.3627 -3.1898 -0.4614
 2742TIP3    H229718   5.602   1.527   2.733  2.4017  1.1937  0.4265
 2743TIP3   OH229719   1.899   3.771  13.457 -0.6317 -1.2362 -0.1954
 2743TIP3    H129720   1.805   3.788  13.443 -0.0652  2.0972 -0.6076
 2743TIP3    H229721   1.935   3.765  13.368 -0.2761 -1.4131 -0.0399
 2744TIP3   OH229722   4.156   2.097  11.168 -0.2643  0.5948 -0.5220
 2744TIP3    H129723   4.085   2.076  11.107 -0.0686 -1.3877 -0.1207
 2744TIP3    H229724   4.220   2.027  11.155 -0.4249 -0.1745  2.2605
 2745TIP3   OH229725   4.166   2.896  16.824  0.2111  0.3588  0.3252
 2745TIP3    H129726   4.147   2.914  16.732  0.1884 -0.8215  0.0836
 2745TIP3    H229727   4.120   2.965  16.872 -1.0245  0.1387 -0.4830
 2746TIP3   OH229728   4.508   2.021  17.065  0.6057  0.0037  0.3173
 2746TIP3    H129729   4.530   2.006  16.974  1.6940  1.3046  0.3241
 2746TIP3    H229730   4.552   1.951  17.113 -0.0293 -0.7251 -0.1444
 2747TIP3   OH229731   0.878   1.005   0.910  0.1345 -0.0998 -0.1870
 2747TIP3    H129732   0.872   1.099   0.925  1.9959  0.8057 -3.8033
 2747TIP3    H229733   0.820   0.989   0.835  0.4252 -1.6939 -0.1097
 2748TIP3   OH229734   4.102   0.021   6.712  0.1632 -0.3086 -0.3697
 2748TIP3    H129735   4.007   0.018   6.723  0.3877  0.6746  2.9588
 2748TIP3    H229736   4.125   0.113   6.730  1.7258 -0.4055 -1.6243
 2749TIP3   OH229737   4.622   2.249  11.686 -0.5113 -0.6127 -0.2247
 2749TIP3    H129738   4.564   2.319  11.715  0.6939  0.7405 -0.9477
 2749TIP3    H229739   4.684   2.292  11.627  0.3073 -2.2876 -0.6449
 2750TIP3   OH229740   5.241   1.662  11.962  0.0042 -0.1661 -0.5030
 2750TIP3    H129741   5.190   1.674  12.042 -0.1790  1.2455 -0.7940
 2750TIP3    H229742   5.296   1.586  11.980 -1.5334 -1.1685  0.1580
 2751TIP3   OH229743   5.195   3.872   5.863  0.5560  0.0634 -0.4967
 2751TIP3    H129744   5.228   3.925   5.936 -0.5265 -0.0400  0.0933
 2751TIP3    H229745   5.184   3.785   5.900 -0.4251  0.1113 -0.6307
 2752TIP3   OH229746   1.832   5.933  13.802 -0.2064 -0.2733  0.5608
 2752TIP3    H129747   1.809   6.021  13.771 -0.3209 -0.7442 -0.7696
 2752TIP3    H229748   1.889   5.948  13.877 -0.0976  0.9422  0.2604
 2753TIP3   OH229749   3.982   0.421   3.391 -0.4242 -0.6559  0.1273
 2753TIP3    H129750   3.944   0.489   3.335  0.1512  0.4230  1.0167
 2753TIP3    H229751   4.067   0.403   3.351 -0.0841 -0.0052  0.5368
 2754TIP3   OH229752   4.200   1.634   5.061 -0.0340  0.4563  0.1306
 2754TIP3    H129753   4.114   1.642   5.020  0.3356  1.7031 -0.4602
 2754TIP3    H229754   4.183   1.642   5.155 -0.7835 -1.4909  0.2059
 2755TIP3   OH229755   0.012   5.990  10.872 -0.0563 -0.6527  0.5001
 2755TIP3    H129756  -0.082   6.008  10.865  0.3113  0.9068 -1.9105
 2755TIP3    H229757   0.053   6.075  10.855  1.8028 -1.2155  1.9441
 2756TIP3   OH229758   3.785   2.343   3.661 -0.4789  0.0740  0.0652
 2756TIP3    H129759   3.730   2.312   3.589  0.0425 -2.0024  0.4919
 2756TIP3    H229760   3.761   2.287   3.735  0.4147  0.8399  0.9557
 2757TIP3   OH229761   5.245   2.028   1.886 -0.0644 -0.0641 -0.0909
 2757TIP3    H129762   5.223   2.034   1.979 -3.4184 -0.0883 -0.7588
 2757TIP3    H229763   5.189   1.958   1.853 -0.4782  1.2848 -2.4848
 2758TIP3   OH229764   3.317   2.638  16.613 -0.2947  0.2684 -0.6694
 2758TIP3    H129765   3.309   2.712  16.673  0.3915  0.4036 -0.7340
 2758TIP3    H229766   3.324   2.562  16.670 -0.6403  0.2911 -0.5965
 2759TIP3   OH229767   0.001   4.431  14.406  0.1428  0.1488  0.2903
 2759TIP3    H129768   0.010   4.341  14.375 -1.9445 -0.4109  1.1537
 2759TIP3    H229769  -0.091   4.452  14.391 -0.1914  0.9862  3.0421
 2760TIP3   OH229770   1.064   0.772  11.257  0.1144 -0.1818  0.1923
 2760TIP3    H129771   1.068   0.839  11.189 -1.4455 -1.7036 -1.5010
 2760TIP3    H229772   0.992   0.799  11.314  0.4744  0.3375  0.4093
 2761TIP3   OH229773   1.217   5.477  11.868  0.3442  0.1064  0.1360
 2761TIP3    H129774   1.261   5.453  11.950 -1.1061  1.4013  1.3431
 2761TIP3    H229775   1.193   5.569  11.879  3.1459  1.4559 -3.1565
 2762TIP3   OH229776   3.588   2.669  16.968  0.6707  0.1280  0.2040
 2762TIP3    H129777   3.616   2.628  17.050  0.1765  0.2948  0.4644
 2762TIP3    H229778   3.493   2.657  16.967  0.7158 -0.2269 -0.5435
 2763TIP3   OH229779   4.448   6.773  17.258  0.4831  0.2767  0.3626
 2763TIP3    H129780   4.391   6.835  17.215 -0.3353 -1.6090 -1.4307
 2763TIP3    H229781   4.537   6.806  17.241  0.1757 -0.1282 -2.4557
 2764TIP3   OH229782   2.061   6.628   4.620 -0.9197 -0.0339 -0.1454
 2764TIP3    H129783   2.075   6.718   4.648  1.4966  0.5936 -2.9041
 2764TIP3    H229784   1.971   6.627   4.587 -0.1222  2.3289 -2.8395
 2765TIP3   OH229785   2.361   4.101  17.088  0.2356  0.2565  0.3182
 2765TIP3    H129786   2.411   4.161  17.142 -0.3091  1.3038 -0.3117
 2765TIP3    H229787   2.310   4.157  17.029  0.8166 -0.8229 -1.3081
 2766TIP3   OH229788   3.743   3.885   1.287  0.2734  0.2745 -0.2275
 2766TIP3    H129789   3.726   3.826   1.213 -1.1347  1.9400 -1.3178
 2766TIP3    H229790   3.656   3.917   1.313  0.8910  0.9900  1.0852
 2767TIP3   OH229791   2.487   1.973   0.445  0.7350 -0.0468 -0.0464
 2767TIP3    H129792   2.512   2.049   0.393 -0.0932  1.5125  1.7037
 2767TIP3    H229793   2.562   1.915   0.440  1.9649  1.5027 -0.3623
 2768TIP3   OH229794   2.377   4.368  11.797  0.1783  0.8283 -0.4579
 2768TIP3    H129795   2.388   4.278  11.827 -1.2435  0.0705 -2.0105
 2768TIP3    H229796   2.284   4.385  11.809  0.5047  2.2401  0.1742
 2769TIP3   OH229797   5.698   3.896   4.200  0.4974 -0.6571  0.5318
 2769TIP3    H129798   5.789   3.903   4.172  0.2294  1.9525  0.1015
 2769TIP3    H229799   5.703   3.848   4.283  2.2556 -0.5073  0.5568
 2770TIP3   OH229800   0.304   0.865   1.721 -0.5631 -0.1955  0.1460
 2770TIP3    H129801   0.376   0.871   1.785 -1.7424 -0.5957  1.5826
 2770TIP3    H229802   0.347   0.848   1.638  1.0258 -0.0737  0.9055
 2771TIP3   OH229803   3.280   1.945   5.069 -0.1132 -0.8359 -0.2412
 2771TIP3    H129804   3.217   1.873   5.076 -0.0244 -0.8774  0.1370
 2771TIP3    H229805   3.364   1.901   5.055  0.6163 -1.0498  3.7886
 2772TIP3   OH229806   2.125   0.270  16.253  0.2462 -0.4547 -0.0191
 2772TIP3    H129807   2.078   0.326  16.191 -0.1696  0.9994  1.5548
 2772TIP3    H229808   2.058   0.212  16.288  0.4958 -1.3301 -0.9266
 2773TIP3   OH229809   3.096   1.293  12.454  0.2002 -0.3740 -0.0477
 2773TIP3    H129810   3.052   1.210  12.435  0.8278 -0.7150 -0.0258
 2773TIP3    H229811   3.175   1.291  12.401  0.3217  0.1260  0.1097
 2774TIP3   OH229812   4.898   2.301   3.869 -0.8511 -0.0193  0.2312
 2774TIP3    H129813   4.944   2.370   3.918  0.0179 -2.5222  3.2397
 2774TIP3    H229814   4.967   2.239   3.843 -1.8212 -0.6990 -0.8268
 2775TIP3   OH229815   6.770   4.625   5.694 -0.3892  0.0368 -0.2722
 2775TIP3    H129816   6.814   4.606   5.611  1.3450  1.7982  0.1790
 2775TIP3    H229817   6.757   4.719   5.693 -3.0816 -0.2656  0.2147
 2776TIP3   OH229818   3.700   0.957  13.083 -0.1002 -0.3421  0.0030
 2776TIP3    H129819   3.774   1.005  13.044  0.3201  0.1702  1.3584
 2776TIP3    H229820   3.740   0.878  13.120 -0.3991 -0.5602 -0.1416
 2777TIP3   OH229821   2.738   6.175  15.923 -0.0988 -0.2530  0.2691
 2777TIP3    H129822   2.784   6.093  15.903  0.7986  0.0670  0.9719
 2777TIP3    H229823   2.709   6.207  15.838  0.7313 -0.6204 -0.1676
 2778TIP3   OH229824   3.266   6.774  11.194 -0.6687 -0.0425 -0.0696
 2778TIP3    H129825   3.204   6.702  11.205 -0.7703  0.0657  0.0848
 2778TIP3    H229826   3.313   6.755  11.113 -0.8885 -0.1385 -0.1726
 2779TIP3   OH229827   5.141   4.550  10.548 -0.4933  0.6791 -0.1207
 2779TIP3    H129828   5.052   4.571  10.577  0.1001  0.7625  1.7862
 2779TIP3    H229829   5.164   4.471  10.598  0.3843  0.4726 -0.8345
 2780TIP3   OH229830   0.752   1.418  11.342 -0.3558 -0.2582 -0.0209
 2780TIP3    H129831   0.680   1.360  11.365 -0.6014 -0.4888 -1.3050
 2780TIP3    H229832   0.710   1.491  11.296 -0.2149  1.6496  2.6636
 2781TIP3   OH229833   0.040   5.738  13.274 -0.4374 -0.5354 -0.1263
 2781TIP3    H129834   0.041   5.834  13.269  1.0202 -0.5679 -0.8420
 2781TIP3    H229835   0.011   5.719  13.363 -2.1167  0.5288 -0.3935
 2782TIP3   OH229836   6.509   4.140   1.394 -0.2054 -0.3960  0.0309
 2782TIP3    H129837   6.485   4.070   1.455  0.2091  0.5584  1.3532
 2782TIP3    H229838   6.588   4.178   1.432  0.6035 -0.3567 -1.6352
 2783TIP3   OH229839   6.591   5.545   5.086 -0.4916 -0.1737 -0.1541
 2783TIP3    H129840   6.686   5.553   5.076 -0.4424 -1.9993 -1.5589
 2783TIP3    H229841   6.555   5.615   5.030  0.0030  0.1176 -0.1100
 2784TIP3   OH229842   0.511   2.607   2.557  0.1988  0.3561  0.1956
 2784TIP3    H129843   0.528   2.630   2.648 -0.0649  0.7790  0.1410
 2784TIP3    H229844   0.513   2.512   2.555  2.8577  0.3330  0.1359
 2785TIP3   OH229845   2.959   0.755  13.747 -0.3885 -0.6534 -0.8906
 2785TIP3    H129846   3.016   0.822  13.708 -0.8699  0.8743  0.8708
 2785TIP3    H229847   2.938   0.697  13.674  0.7134  0.6447 -2.3322
 2786TIP3   OH229848   4.778   3.929  15.285  0.6872 -0.3406  0.2741
 2786TIP3    H129849   4.714   3.881  15.232  1.0030 -0.2440 -0.2008
 2786TIP3    H229850   4.829   3.978  15.221  0.1447  0.9090  0.7678
 2787TIP3   OH229851   3.378   0.298   4.680  0.0689 -0.0392  0.1801
 2787TIP3    H129852   3.432   0.232   4.637  0.4223 -0.1258  0.7495
 2787TIP3    H229853   3.292   0.256   4.690  0.3076 -0.4250  0.5837
 2788TIP3   OH229854   3.295   1.327  16.777  0.1318  0.2939 -0.0080
 2788TIP3    H129855   3.329   1.240  16.799  0.1974  0.1836 -0.5296
 2788TIP3    H229856   3.261   1.318  16.687  1.0117  1.0488 -0.4338
 2789TIP3   OH229857   5.819   2.872  11.071  0.1140  0.1615  0.2296
 2789TIP3    H129858   5.913   2.867  11.089 -0.0346 -1.9774  0.6869
 2789TIP3    H229859   5.809   2.834  10.984 -0.4496 -1.2560  0.8719
 2790TIP3   OH229860   2.784   3.600  15.550  0.1396  0.3320 -0.2208
 2790TIP3    H129861   2.761   3.576  15.639  1.7998  1.0780  0.4460
 2790TIP3    H229862   2.730   3.542  15.495 -0.2814 -0.7412  1.2591
 2791TIP3   OH229863   5.592   1.708   6.613 -0.0931 -0.1114 -0.0802
 2791TIP3    H129864   5.666   1.665   6.571 -0.8199 -0.4421 -1.0540
 2791TIP3    H229865   5.581   1.662   6.696  0.5029 -0.3547 -0.1332
 2792TIP3   OH229866   5.902   4.679   5.819  0.5162 -0.1522  0.5562
 2792TIP3    H129867   5.874   4.649   5.906  0.0649  1.9377  1.2002
 2792TIP3    H229868   5.913   4.774   5.829  0.4189  0.1494 -1.6816
 2793TIP3   OH229869   5.188   3.986   5.465  0.2709  0.2803 -0.0278
 2793TIP3    H129870   5.169   3.903   5.508 -0.7304  0.4362 -0.1397
 2793TIP3    H229871   5.283   3.990   5.462  0.3563 -0.0993  1.4387
 2794TIP3   OH229872   4.704   2.663   2.128  0.1253 -0.4969 -0.2566
 2794TIP3    H129873   4.793   2.665   2.163  1.3771  1.3461 -3.1677
 2794TIP3    H229874   4.676   2.572   2.139  2.7707 -1.3895 -0.1425
 2795TIP3   OH229875   2.393   4.797  12.618 -0.3223  0.1822 -0.5423
 2795TIP3    H129876   2.317   4.851  12.595 -1.1982 -0.6640  0.2908
 2795TIP3    H229877   2.374   4.765  12.706  0.5167 -0.9032 -0.7380
 2796TIP3   OH229878   1.495   4.360  16.075  0.5979  0.2560 -0.2311
 2796TIP3    H129879   1.447   4.368  16.157 -0.5721  0.7526 -0.9441
 2796TIP3    H229880   1.456   4.284  16.032  1.8933 -0.6280  0.0984
 2797TIP3   OH229881   5.026   5.812  14.238  0.6443  0.4100  0.0831
 2797TIP3    H129882   5.000   5.855  14.319  0.7979 -0.0527  0.3857
 2797TIP3    H229883   5.023   5.880  14.172  1.7951  1.1192  0.7276
 2798TIP3   OH229884   2.053   6.023   4.009  0.7169 -0.0262 -0.0146
 2798TIP3    H129885   2.073   6.043   4.100 -1.3155  0.0421  0.4735
 2798TIP3    H229886   2.019   5.933   4.011 -0.8736  0.5279 -0.4094
 2799TIP3   OH229887   6.314   6.557  11.515 -0.5168  0.2122  0.0216
 2799TIP3    H129888   6.222   6.560  11.489 -0.2187 -2.2259 -1.6279
 2799TIP3    H229889   6.353   6.491  11.458  2.7917  2.6561 -0.8431
 2800TIP3   OH229890   2.418   2.660   4.268 -0.2848  0.3105  0.1254
 2800TIP3    H129891   2.449   2.663   4.178 -1.6164 -2.4644 -0.5246
 2800TIP3    H229892   2.326   2.637   4.262 -0.5863  0.7165  2.2087
 2801TIP3   OH229893   3.438   1.023   3.880 -0.1880 -0.4285  0.0289
 2801TIP3    H129894   3.424   1.022   3.975  0.2339 -0.8881  0.0872
 2801TIP3    H229895   3.456   1.115   3.860  0.3591 -0.4306  0.4883
 2802TIP3   OH229896   0.466   5.301  14.703  0.0541  0.4292  0.0125
 2802TIP3    H129897   0.445   5.222  14.754 -1.2711 -1.6975 -3.4293
 2802TIP3    H229898   0.560   5.296  14.688 -0.2539 -1.6999 -1.7230
 2803TIP3   OH229899   5.937   2.052  16.611 -0.1562 -0.3279  0.0124
 2803TIP3    H129900   5.905   1.963  16.625 -1.3942  0.2846  1.3015
 2803TIP3    H229901   6.032   2.043  16.607 -0.2113 -1.6111  0.8958
 2804TIP3   OH229902   3.723   3.759  15.718 -0.1026  0.7274  0.3256
 2804TIP3    H129903   3.713   3.780  15.625 -0.5153 -1.0372 -0.0672
 2804TIP3    H229904   3.699   3.666  15.724  1.4010  0.3986  1.9402
 2805TIP3   OH229905   1.659   1.107  16.876 -0.3341 -0.1812 -0.6300
 2805TIP3    H129906   1.730   1.136  16.819 -0.8647 -1.3369 -1.9382
 2805TIP3    H229907   1.689   1.023  16.911 -0.5860 -0.1389 -0.3055
 2806TIP3   OH229908   1.789   6.099   4.026  0.6363 -0.0047 -0.4294
 2806TIP3    H129909   1.873   6.054   4.025  1.0749  0.7991 -0.4539
 2806TIP3    H229910   1.731   6.042   3.975  1.2998 -0.3102 -0.8580
 2807TIP3   OH229911   4.545   5.200  11.685 -0.8749 -0.5904 -0.2151
 2807TIP3    H129912   4.507   5.145  11.617 -0.6740 -1.1883  0.1444
 2807TIP3    H229913   4.640   5.187  11.676 -0.8735 -1.2579  0.6424
 2808TIP3   OH229914   5.643   4.693   1.921 -0.1411  0.1540  0.2909
 2808TIP3    H129915   5.577   4.708   1.988 -2.7924  1.4893 -2.3650
 2808TIP3    H229916   5.674   4.781   1.899 -0.5883 -0.0570 -1.3197
 2809TIP3   OH229917   3.561   2.177  11.762  0.6921  0.2565  0.0396
 2809TIP3    H129918   3.636   2.173  11.822  1.4970 -1.3137 -0.9877
 2809TIP3    H229919   3.484   2.166  11.818  1.3876 -0.5803  0.8603
 2810TIP3   OH229920   4.999   4.286   5.976  0.2006  0.0902  0.1661
 2810TIP3    H129921   5.077   4.341   5.973  0.8867 -0.7855  1.2370
 2810TIP3    H229922   5.025   4.209   6.027 -1.9038  0.6778  2.3139
 2811TIP3   OH229923   1.013   4.916   4.901  0.2091 -0.4536  0.4010
 2811TIP3    H129924   0.966   4.833   4.906 -1.2609  0.2989 -0.2012
 2811TIP3    H229925   1.021   4.945   4.992 -0.7776 -0.4687  0.5057
 2812TIP3   OH229926   5.908   6.181  13.753  0.5016  0.0763 -0.5103
 2812TIP3    H129927   5.934   6.133  13.675  1.2538 -0.4353  0.0390
 2812TIP3    H229928   5.892   6.113  13.819 -0.7955  0.4645 -0.4043
 2813TIP3   OH229929   5.886   5.904   0.411 -0.0855 -0.2821 -0.0409
 2813TIP3    H129930   5.849   5.951   0.336  1.9854  1.3998 -0.1081
 2813TIP3    H229931   5.980   5.916   0.402  0.5783 -4.1390  0.2295
 2814TIP3   OH229932   6.672   2.331   2.434  0.0935 -0.2361 -0.3360
 2814TIP3    H129933   6.747   2.363   2.484 -1.7561  1.1830  1.7685
 2814TIP3    H229934   6.621   2.281   2.498 -1.2088 -0.3905 -1.4510
 2815TIP3   OH229935   2.238   1.779  15.008  0.3367  0.2516 -0.5564
 2815TIP3    H129936   2.184   1.830  14.948 -1.6908 -0.9200  0.1771
 2815TIP3    H229937   2.176   1.729  15.060  2.1527 -1.4164  0.1511
 2816TIP3   OH229938   4.932   1.913  14.574 -0.4699 -0.3567  0.0534
 2816TIP3    H129939   4.985   1.918  14.653 -1.1110  0.7323  0.4293
 2816TIP3    H229940   4.843   1.901  14.606 -0.9399  1.5818 -0.4263
 2817TIP3   OH229941   4.951   0.495  17.079 -0.0628  0.0805 -0.0714
 2817TIP3    H129942   5.027   0.479  17.136 -0.4274  2.4951  1.2109
 2817TIP3    H229943   4.947   0.590  17.070 -2.9158  0.0353 -0.1162
 2818TIP3   OH229944   1.338   3.624   4.325 -0.0807 -0.1628 -0.4310
 2818TIP3    H129945   1.250   3.588   4.339 -1.2190  3.0523  1.8217
 2818TIP3    H229946   1.346   3.694   4.390  4.7306 -1.1434  0.3731
 2819TIP3   OH229947   4.082   6.608  14.757  0.5756 -0.2278 -0.6927
 2819TIP3    H129948   4.108   6.682  14.811  1.9208 -1.1246 -0.0497
 2819TIP3    H229949   3.999   6.579  14.794  1.8927 -1.4022  1.6158
 2820TIP3   OH229950   6.571   2.800  14.321  0.3301 -0.6438  0.0381
 2820TIP3    H129951   6.577   2.710  14.355 -0.5467 -0.0913  1.7414
 2820TIP3    H229952   6.568   2.855  14.398 -0.8175  0.7591 -0.9595
 2821TIP3   OH229953   1.597   0.098  17.184  0.5764  0.3993 -0.5053
 2821TIP3    H129954   1.663   0.044  17.226 -1.1481  0.1275  2.1590
 2821TIP3    H229955   1.570   0.048  17.107 -0.3365 -2.2588  1.3666
 2822TIP3   OH229956   0.473   2.610   0.688  0.4493 -0.1050  0.5296
 2822TIP3    H129957   0.470   2.545   0.619 -1.3552 -0.9003  1.2886
 2822TIP3    H229958   0.565   2.612   0.715  0.8866 -0.9219 -0.7952
 2823TIP3   OH229959   6.661   6.303   2.079 -0.9593  0.2015  0.4889
 2823TIP3    H129960   6.594   6.275   2.017 -1.4535  0.6949  0.7864
 2823TIP3    H229961   6.621   6.378   2.124  0.4805  1.6947 -0.6195
 2824TIP3   OH229962   4.263   0.998  16.014 -0.3677 -0.7840  0.3105
 2824TIP3    H129963   4.199   1.044  16.068  0.1924  0.3748  0.0052
 2824TIP3    H229964   4.251   0.906  16.037 -0.8251 -0.4083  1.6816
 2825TIP3   OH229965   1.789   4.856   2.691 -0.2431  0.2907 -0.3476
 2825TIP3    H129966   1.883   4.870   2.679 -0.1247 -1.4453 -1.8058
 2825TIP3    H229967   1.782   4.769   2.730 -1.2516  0.1861 -0.7281
 2826TIP3   OH229968   3.549   3.358  16.172  0.4814  0.0794  0.0132
 2826TIP3    H129969   3.566   3.333  16.263  1.3762  0.0992 -0.1413
 2826TIP3    H229970   3.560   3.453  16.170 -1.1344  0.2953  0.2138
 2827TIP3   OH229971   2.379   1.934  16.676  0.1415  0.3899  0.4319
 2827TIP3    H129972   2.327   1.867  16.633  0.9453  0.4294 -0.6564
 2827TIP3    H229973   2.383   1.906  16.767 -1.0051 -0.0859  0.3583
 2828TIP3   OH229974   6.115   4.533   1.724 -0.1244 -0.3943 -0.0012
 2828TIP3    H129975   6.066   4.484   1.790 -0.3542 -1.1243 -0.6868
 2828TIP3    H229976   6.149   4.609   1.770  0.8797 -1.5779  1.3036
 2829TIP3   OH229977   4.236   4.859  13.846 -0.4998 -0.4077  0.1806
 2829TIP3    H129978   4.247   4.765  13.836  0.0757 -0.1125 -2.8364
 2829TIP3    H229979   4.298   4.884  13.914  0.0351 -2.0773  0.3351
 2830TIP3   OH229980   2.111   4.336   2.125  0.4914  0.0855  0.1368
 2830TIP3    H129981   2.123   4.258   2.070  0.8345  0.4377 -0.2983
 2830TIP3    H229982   2.018   4.358   2.114 -0.0912 -1.3519  1.7583
 2831TIP3   OH229983   4.890   4.511  12.613  0.4558  0.4689 -0.2298
 2831TIP3    H129984   4.810   4.504  12.665 -1.0983 -2.2938 -2.6448
 2831TIP3    H229985   4.952   4.451  12.655  0.8665  1.6623  0.9247
 2832TIP3   OH229986   6.295   6.312   2.235  0.0788  1.2887 -0.2469
 2832TIP3    H129987   6.222   6.337   2.179 -0.7236 -2.0255 -0.9190
 2832TIP3    H229988   6.258   6.310   2.323 -1.0118 -1.1051 -0.6679
 2833TIP3   OH229989   4.102   3.937  15.497 -0.1480 -0.0875  0.0147
 2833TIP3    H129990   4.165   3.942  15.425 -0.4985  0.5861 -0.2558
 2833TIP3    H229991   4.104   4.024  15.536 -1.7141  0.3148 -0.7067
 2834TIP3   OH229992   2.965   5.098  15.267 -0.0747 -0.5288 -0.7665
 2834TIP3    H129993   2.983   5.167  15.331 -0.2359 -1.6228  0.5021
 2834TIP3    H229994   2.869   5.094  15.262 -0.1278 -1.7232  0.4295
 2835TIP3   OH229995   6.772   3.625  11.253 -0.3562  0.1586 -0.2895
 2835TIP3    H129996   6.815   3.608  11.170  1.5960 -0.1593  0.7307
 2835TIP3    H229997   6.812   3.706  11.285  2.1970 -1.9189  2.3056
 2836TIP3   OH229998   1.377   4.814  12.757 -0.3941  0.1341  0.0531
 2836TIP3    H129999   1.438   4.849  12.692 -1.2062 -1.5829 -1.7440
 2836TIP3    H230000   1.383   4.875  12.831  2.2010  0.9565 -0.7239
 2837TIP3   OH230001   2.336   6.554   2.846 -0.2657  1.1429 -0.2183
 2837TIP3    H130002   2.263   6.548   2.909  0.0838  0.5552  0.1403
 2837TIP3    H230003   2.296   6.535   2.761 -0.1572 -1.4540  0.2336
 2838TIP3   OH230004   6.417   6.012   0.626  0.1699 -0.1678 -0.0035
 2838TIP3    H130005   6.374   5.929   0.647  0.4681 -0.3496 -0.1034
 2838TIP3    H230006   6.346   6.070   0.598 -0.0125 -0.4630 -0.1559
 2839TIP3   OH230007   2.591   3.129   0.003 -0.3896 -0.3416 -0.4150
 2839TIP3    H130008   2.639   3.046   0.002  1.0299  0.3442  2.1522
 2839TIP3    H230009   2.634   3.183  -0.062  0.6485 -0.6090  0.0378
 2840TIP3   OH230010   6.631   1.204   3.106  0.1979  0.5337 -0.1914
 2840TIP3    H130011   6.715   1.195   3.151 -0.1911 -1.5985  0.2270
 2840TIP3    H230012   6.579   1.261   3.163  0.7934  0.4710  0.4285
 2841TIP3   OH230013   6.086   4.584  12.404 -0.0203  0.0021  0.0755
 2841TIP3    H130014   6.002   4.612  12.367  0.1894  0.8789  0.2327
 2841TIP3    H230015   6.070   4.579  12.498  0.1620  0.4305  0.1347
 2842TIP3   OH230016   3.653   0.564  11.043 -0.9311 -0.8076  0.5376
 2842TIP3    H130017   3.735   0.601  11.011 -0.3342 -0.2979  2.4781
 2842TIP3    H230018   3.588   0.590  10.979 -0.2298  2.1422  0.9015
 2843TIP3   OH230019   0.436   4.934   1.237 -0.2053 -0.3544 -0.2500
 2843TIP3    H130020   0.371   4.893   1.180 -0.6334 -1.1588  0.7798
 2843TIP3    H230021   0.394   4.937   1.324  1.3821 -1.6367  0.6211
 2844TIP3   OH230022   0.589   1.851  14.563  1.0565 -0.3428 -0.1936
 2844TIP3    H130023   0.519   1.790  14.588 -0.0159  1.1233  0.5189
 2844TIP3    H230024   0.544   1.935  14.549  2.0724 -0.2413 -3.8591
 2845TIP3   OH230025   2.334   0.685   0.196  0.0494 -0.1633  0.1798
 2845TIP3    H130026   2.288   0.640   0.267 -0.7465 -0.4668 -0.5067
 2845TIP3    H230027   2.332   0.778   0.221 -1.1979 -0.1341  0.0392
 2846TIP3   OH230028   6.588   2.844   0.737  0.2096 -0.5394 -0.2506
 2846TIP3    H130029   6.552   2.757   0.723  2.1553 -1.2587 -1.1839
 2846TIP3    H230030   6.625   2.840   0.826 -0.8678 -0.1975  0.2293
 2847TIP3   OH230031   4.292   1.338  13.854  0.9981 -0.6902  0.3334
 2847TIP3    H130032   4.277   1.381  13.769 -0.9711  0.1529  1.0430
 2847TIP3    H230033   4.386   1.346  13.868  1.2281  0.0334 -1.3167
 2848TIP3   OH230034   2.834   4.934   4.962  0.1268 -0.3712 -0.4696
 2848TIP3    H130035   2.844   4.986   4.883  0.1322  0.3241 -0.0286
 2848TIP3    H230036   2.922   4.900   4.980  0.5453  0.9870  0.2340
 2849TIP3   OH230037   1.817   4.610  14.800 -0.2249 -0.6658  0.3190
 2849TIP3    H130038   1.786   4.598  14.711  0.5376 -2.7638  0.2680
 2849TIP3    H230039   1.738   4.625  14.851 -0.7464 -0.2884 -0.5829
 2850TIP3   OH230040   3.250   0.763  16.590  0.1177  0.2804 -0.1459
 2850TIP3    H130041   3.338   0.764  16.627 -0.6754 -0.8001  1.9406
 2850TIP3    H230042   3.217   0.676  16.612 -1.2757  0.4509 -1.4262
 2851TIP3   OH230043   6.805   5.346  13.647 -0.3118 -0.1274  0.3033
 2851TIP3    H130044   6.795   5.342  13.552 -2.3208 -1.9950  0.5268
 2851TIP3    H230045   6.875   5.411  13.661  0.8446 -0.6421 -2.4646
 2852TIP3   OH230046   1.566   5.671  15.662  0.4045 -0.0098 -0.4161
 2852TIP3    H130047   1.574   5.761  15.630  0.4331  0.5173  1.0378
 2852TIP3    H230048   1.649   5.654  15.707 -0.4123  0.0126  1.1693
 2853TIP3   OH230049   4.471   2.902  11.003 -0.8458  0.2474  0.2615
 2853TIP3    H130050   4.541   2.964  11.024  0.8114 -2.0224  2.0436
 2853TIP3    H230051   4.447   2.922  10.913  0.5572  2.5202  0.3124
 2854TIP3   OH230052   1.225   1.812  12.416 -0.4088 -0.1921  0.4527
 2854TIP3    H130053   1.130   1.799  12.420 -0.3273 -0.5630  1.2056
 2854TIP3    H230054   1.262   1.730  12.445  0.1638 -0.2263 -0.3362
 2855TIP3   OH230055   5.727   1.824  11.802 -0.3309  0.2288 -0.5426
 2855TIP3    H130056   5.813   1.781  11.804 -0.1261  0.6624  0.7027
 2855TIP3    H230057   5.732   1.891  11.870 -1.6944  0.1977 -0.3914
 2856TIP3   OH230058   5.176   5.101   1.731 -0.2991  1.0323  0.6061
 2856TIP3    H130059   5.207   5.074   1.644 -1.7579  0.1416  0.3269
 2856TIP3    H230060   5.084   5.075   1.733  0.2883 -1.4898  3.3781
 2857TIP3   OH230061   5.988   6.515   0.185  0.1381 -0.3134 -0.6848
 2857TIP3    H130062   6.036   6.575   0.129  1.6001  1.0928  1.9074
 2857TIP3    H230063   5.938   6.571   0.244  0.6750 -1.5839  1.0874
 2858TIP3   OH230064   1.781   5.760   5.531 -0.5666 -0.5998 -0.1896
 2858TIP3    H130065   1.701   5.711   5.552 -1.2735  0.5213 -0.1817
 2858TIP3    H230066   1.750   5.835   5.480  0.4785 -0.1244 -0.1411
 2859TIP3   OH230067   5.711   0.986  15.964  0.1226 -0.2776 -0.2227
 2859TIP3    H130068   5.696   1.055  16.029  0.5903  2.0123 -2.3561
 2859TIP3    H230069   5.633   0.991  15.907  0.0147 -1.7757 -0.2348
 2860TIP3   OH230070   3.248   0.669   0.621  0.1245  0.2915  0.4583
 2860TIP3    H130071   3.164   0.713   0.605 -0.6590 -1.7525 -1.5910
 2860TIP3    H230072   3.226   0.598   0.681  0.3999 -0.1926 -0.0098
 2861TIP3   OH230073   0.887   2.441  11.906  0.4335  0.4227 -0.0489
 2861TIP3    H130074   0.796   2.424  11.882  0.1432  1.2351  0.4404
 2861TIP3    H230075   0.913   2.513  11.849  0.9612 -0.1910 -0.5959
 2862TIP3   OH230076   0.702   5.274   0.468  0.1652 -0.4375 -0.2387
 2862TIP3    H130077   0.619   5.288   0.422 -1.2408  0.6717  2.4341
 2862TIP3    H230078   0.683   5.203   0.530  1.7872 -1.3918 -0.7668
 2863TIP3   OH230079   5.476   3.030   0.548  0.7589 -0.1419  0.4989
 2863TIP3    H130080   5.549   3.006   0.492  0.1940  0.3950 -0.4898
 2863TIP3    H230081   5.398   3.010   0.496  0.1793 -0.9171  1.6153
 2864TIP3   OH230082   3.783   1.098   3.790 -0.3828 -0.3964 -0.6896
 2864TIP3    H130083   3.780   1.037   3.716 -4.5810  0.9800 -1.9668
 2864TIP3    H230084   3.847   1.164   3.764 -0.3596 -0.9606 -2.1995
 2865TIP3   OH230085   5.241   5.363   2.043  0.1761  0.6665  0.4643
 2865TIP3    H130086   5.155   5.383   2.006  0.1655  0.0121  0.1152
 2865TIP3    H230087   5.244   5.411   2.126 -1.4025 -0.9904  1.5551
 2866TIP3   OH230088   6.451   4.151  13.011  0.1322  0.1660  0.0360
 2866TIP3    H130089   6.460   4.118  12.921 -1.2546 -1.4709  0.4653
 2866TIP3    H230090   6.360   4.179  13.018  0.3342  0.6740  0.8272
 2867TIP3   OH230091   1.122   3.998   6.534 -0.1097  0.5868  0.0983
 2867TIP3    H130092   1.049   4.052   6.504 -1.4401 -2.1124 -1.9324
 2867TIP3    H230093   1.200   4.049   6.512 -1.2804  1.9973 -0.9910
 2868TIP3   OH230094   2.112   3.657   3.717 -0.3980  0.0459 -0.6439
 2868TIP3    H130095   2.146   3.744   3.698  0.2270 -0.1566 -0.4765
 2868TIP3    H230096   2.019   3.662   3.695 -0.2110  0.5362 -1.3451
 2869TIP3   OH230097   3.927   4.506   2.752  0.0423  0.0112 -0.0479
 2869TIP3    H130098   3.951   4.524   2.661  1.6958 -0.2440  0.3084
 2869TIP3    H230099   3.955   4.416   2.767  0.4228  0.2772  0.9032
 2870TIP3   OH230100   1.877   2.186  13.563  0.6935 -0.8257  0.0378
 2870TIP3    H130101   1.927   2.212  13.640  3.2551 -0.4921 -1.6320
 2870TIP3    H230102   1.929   2.215  13.489 -1.4861 -1.4574 -1.8710
 2871TIP3   OH230103   6.001   0.140  12.711  0.1836 -0.1625 -0.7302
 2871TIP3    H130104   6.067   0.207  12.696 -0.4272  0.6893  0.2425
 2871TIP3    H230105   6.041   0.083  12.777  0.1408  0.0779 -0.4944
 2872TIP3   OH230106   5.980   5.829  12.619 -0.3669  0.1103 -0.1725
 2872TIP3    H130107   5.945   5.833  12.530  0.8071 -0.5442 -0.7000
 2872TIP3    H230108   5.920   5.772  12.666 -0.3365 -0.5395 -0.8992
 2873TIP3   OH230109   2.358   5.087   1.809 -0.5636  0.2585 -0.0481
 2873TIP3    H130110   2.262   5.088   1.812 -0.6099  0.4854 -1.2545
 2873TIP3    H230111   2.380   5.001   1.773 -0.1523 -1.2097  3.2829
 2874TIP3   OH230112   4.622   0.866  16.490 -0.0045  0.0443  0.4029
 2874TIP3    H130113   4.624   0.789  16.434 -0.7330 -0.6220  1.2503
 2874TIP3    H230114   4.551   0.848  16.553 -1.1044  1.9831 -0.1951
 2875TIP3   OH230115   3.732   0.114   4.845  0.3019  0.1758 -0.0209
 2875TIP3    H130116   3.721   0.099   4.752 -1.1314  0.0034  0.1529
 2875TIP3    H230117   3.789   0.043   4.875 -0.3025 -0.5330 -0.5359
 2876TIP3   OH230118   3.119   5.894  13.171 -0.2398  0.1708  0.9105
 2876TIP3    H130119   3.057   5.832  13.208  0.5786  0.0642  2.1418
 2876TIP3    H230120   3.204   5.854  13.183  0.2066  1.0291  0.7054
 2877TIP3   OH230121   2.796   5.284  16.211 -0.0826  0.3067  0.0930
 2877TIP3    H130122   2.785   5.232  16.291  0.0355  2.0802  1.3295
 2877TIP3    H230123   2.839   5.364  16.241 -0.9774  1.4754 -1.5799
 2878TIP3   OH230124   4.617   2.669  14.262 -0.1296 -0.2777 -0.4907
 2878TIP3    H130125   4.692   2.621  14.295  0.7901  0.6923 -1.1032
 2878TIP3    H230126   4.543   2.639  14.315  0.8476 -0.5617  0.7421
 2879TIP3   OH230127   1.359   6.701  12.715 -0.2300 -0.0433  0.0012
 2879TIP3    H130128   1.265   6.710  12.727 -0.2598 -1.9219  1.5507
 2879TIP3    H230129   1.394   6.787  12.740 -1.5301  0.9107 -1.2512
 2880TIP3   OH230130   5.514   0.354   2.755 -0.2456  0.2602  0.0275
 2880TIP3    H130131   5.489   0.385   2.668  1.4103 -1.0782 -0.9826
 2880TIP3    H230132   5.451   0.285   2.775  0.3043 -0.5031 -0.8233
 2881TIP3   OH230133   3.470   0.998  10.484  0.5010 -0.0014 -0.0458
 2881TIP3    H130134   3.543   1.053  10.458  0.1113  0.3495 -0.4229
 2881TIP3    H230135   3.423   1.049  10.549 -0.1546  0.3400 -0.7730
 2882TIP3   OH230136   6.595   2.663   5.557 -0.4355  0.3459  0.1664
 2882TIP3    H130137   6.635   2.576   5.558 -0.0755  0.5067 -0.0999
 2882TIP3    H230138   6.601   2.694   5.648  1.8889  1.1930 -0.2102
 2883TIP3   OH230139   2.701   1.099   1.691 -0.0306  0.0232  0.0013
 2883TIP3    H130140   2.749   1.134   1.765 -1.0610  0.7256  0.3618
 2883TIP3    H230141   2.767   1.083   1.624  1.0515 -1.5295  1.3745
 2884TIP3   OH230142   1.303   5.752   5.479 -0.6024 -0.1436 -0.3238
 2884TIP3    H130143   1.258   5.670   5.499 -0.9961  0.1212 -0.1159
 2884TIP3    H230144   1.244   5.799   5.421 -0.6922  0.2949  0.1182
 2885TIP3   OH230145   0.722   3.355   4.230  0.0566  0.5006  0.5572
 2885TIP3    H130146   0.817   3.355   4.234  0.0991  0.1612 -0.3709
 2885TIP3    H230147   0.695   3.306   4.309  0.6491  0.3625  0.6779
 2886TIP3   OH230148   2.770   2.426  15.011 -0.1519  0.8396 -0.2278
 2886TIP3    H130149   2.768   2.336  14.977 -1.0025  0.7805 -0.0364
 2886TIP3    H230150   2.801   2.479  14.938  0.2281  0.4096 -0.3817
 2887TIP3   OH230151   1.367   4.097   1.515 -0.6209  0.1177  0.3452
 2887TIP3    H130152   1.435   4.053   1.567  0.8838  2.0545  0.1345
 2887TIP3    H230153   1.285   4.062   1.550  0.3055  0.9000  3.7087
 2888TIP3   OH230154   5.689   6.381   5.574 -0.1937 -0.0946  0.0205
 2888TIP3    H130155   5.767   6.419   5.532 -0.0699  0.7519  0.9555
 2888TIP3    H230156   5.703   6.287   5.570  0.1695 -0.0051 -1.1422
 2889TIP3   OH230157   6.467   1.457  16.952 -0.5516 -0.0288 -0.4284
 2889TIP3    H130158   6.525   1.428  17.022 -0.8625 -0.8330 -0.4976
 2889TIP3    H230159   6.526   1.486  16.882 -0.2064 -1.1711 -0.6408
 2890TIP3   OH230160   1.783   5.433  14.666  0.1320 -0.2242  0.0559
 2890TIP3    H130161   1.745   5.442  14.578  1.3278  3.2790 -0.2716
 2890TIP3    H230162   1.721   5.379  14.714 -2.9571  1.4483 -1.7169
 2891TIP3   OH230163   1.564   2.656  12.300 -1.0031  0.3992 -0.2331
 2891TIP3    H130164   1.527   2.577  12.340 -0.9384  0.0921 -0.7797
 2891TIP3    H230165   1.586   2.630  12.211  2.0258  0.0995  0.4922
 2892TIP3   OH230166   2.792   6.386   3.534 -0.4580 -0.5809 -0.4849
 2892TIP3    H130167   2.707   6.380   3.578 -0.2112 -0.7169 -0.0142
 2892TIP3    H230168   2.774   6.432   3.452 -0.8678 -0.0082 -0.0772
 2893TIP3   OH230169   4.536   1.715  11.985  0.2358 -0.2133  0.5707
 2893TIP3    H130170   4.616   1.731  11.935 -1.5773 -0.0273 -2.4841
 2893TIP3    H230171   4.474   1.680  11.921 -2.6887  1.2273  2.4105
 2894TIP3   OH230172   2.789   6.352   5.960 -0.3738 -0.0195 -0.7504
 2894TIP3    H130173   2.851   6.284   5.933  3.0301  1.8220  1.5956
 2894TIP3    H230174   2.750   6.319   6.041  0.3145  0.2663 -0.2953
 2895TIP3   OH230175   2.273   3.690   2.904  0.3784 -0.1303 -0.1272
 2895TIP3    H130176   2.306   3.756   2.964  0.9666  0.1724 -0.7734
 2895TIP3    H230177   2.191   3.660   2.944  1.0588 -0.3912  1.1367
 2896TIP3   OH230178   0.555   4.825   5.077 -0.3940  0.4580  0.1736
 2896TIP3    H130179   0.534   4.839   4.985 -1.6927 -0.4462  0.3051
 2896TIP3    H230180   0.600   4.905   5.104 -1.3544  1.3715 -0.8546
 2897TIP3   OH230181   4.835   6.055   4.139  0.0134  0.0840 -0.7779
 2897TIP3    H130182   4.889   6.078   4.214 -1.2198 -0.4100  0.2977
 2897TIP3    H230183   4.859   6.119   4.071  0.9281  0.7272  0.1243
 2898TIP3   OH230184   1.951   5.248   4.887  0.1950 -0.1577 -0.1091
 2898TIP3    H130185   1.919   5.316   4.828  0.0974 -0.4842 -0.4322
 2898TIP3    H230186   1.872   5.212   4.927  0.1643 -0.8418 -0.7735
 2899TIP3   OH230187   5.798   0.589  15.528  0.1070 -0.2931  0.3099
 2899TIP3    H130188   5.770   0.665  15.578 -1.4252 -1.2734  1.0361
 2899TIP3    H230189   5.893   0.597  15.522  0.2421  0.4044  2.5156
 2900TIP3   OH230190   0.348   2.648  14.807 -0.3676 -0.2836  0.6139
 2900TIP3    H130191   0.397   2.643  14.890 -1.0311  1.8944  1.2031
 2900TIP3    H230192   0.259   2.672  14.833 -0.7623 -0.2666 -0.6907
 2901TIP3   OH230193   2.734   0.440   3.956 -0.2415 -0.5876  0.0268
 2901TIP3    H130194   2.686   0.365   3.920 -2.1687  1.0310 -0.9572
 2901TIP3    H230195   2.701   0.448   4.046 -1.3209  0.0424 -0.3991
 2902TIP3   OH230196   3.266   3.163  11.178 -0.6127 -0.0610  0.0700
 2902TIP3    H130197   3.352   3.181  11.141 -1.5257 -0.0268 -2.1676
 2902TIP3    H230198   3.272   3.072  11.208  0.3538  0.1160  0.4543
 2903TIP3   OH230199   3.302   6.573  15.269 -0.2850 -0.0548  0.1609
 2903TIP3    H130200   3.236   6.636  15.242 -0.0725 -0.3538 -1.1320
 2903TIP3    H230201   3.285   6.496  15.213  1.1124 -0.1489 -0.1563
 2904TIP3   OH230202   2.443   6.764   2.262 -0.5228  0.2707 -0.4753
 2904TIP3    H130203   2.351   6.781   2.286 -0.7369  1.2013 -1.8582
 2904TIP3    H230204   2.489   6.765   2.345 -1.5614  1.2056  0.1237
 2905TIP3   OH230205   4.998   6.665  14.030  0.1724 -0.2018 -0.8270
 2905TIP3    H130206   4.959   6.695  14.112  2.5988  2.3219 -0.4392
 2905TIP3    H230207   4.931   6.682  13.964 -0.6939  0.6588  0.2424
 2906TIP3   OH230208   4.707   4.379  14.443 -0.2657 -0.0499 -0.8164
 2906TIP3    H130209   4.714   4.455  14.501  0.2463  0.0475 -1.0050
 2906TIP3    H230210   4.748   4.407  14.361 -0.5353 -0.3572 -1.0612
 2907TIP3   OH230211   6.799   4.260  10.531  0.1543 -0.2372  0.4097
 2907TIP3    H130212   6.789   4.354  10.521 -1.2572 -0.2559  1.3021
 2907TIP3    H230213   6.891   4.243  10.512  0.5108  1.3577  0.5905
 2908TIP3   OH230214   1.402   0.772  11.775  0.3911 -0.2289 -0.3146
 2908TIP3    H130215   1.460   0.825  11.830  1.4662  1.0946 -2.5896
 2908TIP3    H230216   1.344   0.835  11.733 -2.5320 -1.4699  1.5234
 2909TIP3   OH230217   2.528   3.074  13.123 -0.0193 -0.0014 -0.3102
 2909TIP3    H130218   2.453   3.040  13.075  0.0098  0.4536 -0.6775
 2909TIP3    H230219   2.516   3.169  13.123  0.2532  0.0346  0.1285
 2910TIP3   OH230220   5.277   4.826   5.248  0.2607 -0.1869  0.3150
 2910TIP3    H130221   5.334   4.796   5.177  0.1375 -0.9149  0.5067
 2910TIP3    H230222   5.336   4.838   5.322  0.8227  2.9983 -0.4933
 2911TIP3   OH230223   2.370   5.646  14.614 -0.5620 -0.2665  0.2780
 2911TIP3    H130224   2.303   5.591  14.573  0.2326 -1.6759  0.7827
 2911TIP3    H230225   2.382   5.608  14.701 -0.6536  1.3185  1.0123
 2912TIP3   OH230226   1.985   6.732   2.146  0.1496 -0.2717  0.4260
 2912TIP3    H130227   1.904   6.681   2.146  0.1863 -0.3548  1.4873
 2912TIP3    H230228   2.014   6.730   2.054  0.9130 -3.4180  0.6089
 2913TIP3   OH230229   2.313   4.531   4.855  0.6438  0.3990  0.2362
 2913TIP3    H130230   2.303   4.567   4.767 -0.9994 -1.2342 -0.3054
 2913TIP3    H230231   2.408   4.531   4.871  1.0413 -0.1576 -1.9063
 2914TIP3   OH230232   2.388   3.601  12.969 -0.4397 -0.2929 -0.2274
 2914TIP3    H130233   2.360   3.665  12.903 -1.6040  0.9526  1.3641
 2914TIP3    H230234   2.464   3.641  13.010  0.4922 -1.2229 -1.0077
 2915TIP3   OH230235   3.510   0.575  10.806 -0.0180  0.6135 -0.3845
 2915TIP3    H130236   3.521   0.497  10.753  1.0287 -0.0083  0.7091
 2915TIP3    H230237   3.526   0.648  10.745 -0.0487 -0.0342 -1.1866
 2916TIP3   OH230238   3.529   3.638   1.815 -0.6385  0.2250 -0.4856
 2916TIP3    H130239   3.620   3.608   1.815 -0.5486  0.4769  0.3103
 2916TIP3    H230240   3.490   3.598   1.737 -0.2820 -1.2208  0.0602
 2917TIP3   OH230241   0.188   0.423  14.809  0.5084  0.2888 -0.1125
 2917TIP3    H130242   0.184   0.328  14.808  0.4731  0.2902 -0.0906
 2917TIP3    H230243   0.187   0.447  14.902 -0.5976  0.3578 -0.1321
 2918TIP3   OH230244   1.104   5.641   0.249  0.0881 -0.1684  0.0124
 2918TIP3    H130245   1.197   5.656   0.268  0.4225 -2.4506  0.4779
 2918TIP3    H230246   1.061   5.651   0.334  0.3152 -1.6559  0.3289
 2919TIP3   OH230247   5.110   6.139  11.657  0.3226  0.5967 -0.7334
 2919TIP3    H130248   5.161   6.086  11.719 -0.4671  1.7498  0.9774
 2919TIP3    H230249   5.168   6.212  11.635  0.5899  0.2057 -1.3554
 2920TIP3   OH230250   5.404   1.285   5.004  0.4926 -0.6644 -0.0456
 2920TIP3    H130251   5.391   1.292   5.099  0.7713 -0.9107  0.0151
 2920TIP3    H230252   5.421   1.192   4.989 -0.6428 -0.8117 -0.4875
 2921TIP3   OH230253   3.222   3.720  12.188  0.6090  0.4678  0.3402
 2921TIP3    H130254   3.274   3.640  12.197 -0.2916 -0.1412  0.2532
 2921TIP3    H230255   3.272   3.786  12.235  0.9987 -0.3240  1.0790
 2922TIP3   OH230256   2.182   0.090   2.267  0.4109  0.6617  0.4601
 2922TIP3    H130257   2.108   0.032   2.247 -0.7461  1.5906  1.8486
 2922TIP3    H230258   2.193   0.143   2.188  1.4933 -1.3917 -0.8375
 2923TIP3   OH230259   0.879   1.202   5.250  0.3716 -0.1698  0.4102
 2923TIP3    H130260   0.858   1.294   5.236  1.2006  0.0205  0.3295
 2923TIP3    H230261   0.817   1.154   5.195 -0.1763  0.3275  0.5861
 2924TIP3   OH230262   4.911   4.372   2.419 -0.1214  0.0460  0.4688
 2924TIP3    H130263   4.943   4.326   2.497  0.2400 -1.7918 -0.7002
 2924TIP3    H230264   4.965   4.340   2.348  0.1456  2.3563 -0.4612
 2925TIP3   OH230265   5.958   1.291  11.861  0.2694  0.4778 -0.0421
 2925TIP3    H130266   5.950   1.294  11.956 -0.2292  0.6027 -0.0864
 2925TIP3    H230267   5.974   1.382  11.835  1.2262  0.3273 -0.0127
 2926TIP3   OH230268   0.797   1.459   5.140 -0.0739 -0.0694  0.3584
 2926TIP3    H130269   0.795   1.553   5.157 -0.1859  0.1462 -0.7629
 2926TIP3    H230270   0.750   1.449   5.057  2.3838 -0.7738 -1.0454
 2927TIP3   OH230271   5.679   1.395  15.688  0.0169  0.0463 -0.5054
 2927TIP3    H130272   5.750   1.337  15.715  0.6467  0.1435 -1.8720
 2927TIP3    H230273   5.610   1.381  15.753  1.1773 -0.2350  0.7197
 2928TIP3   OH230274   1.571   0.466  13.131  0.2421 -0.1605 -0.2309
 2928TIP3    H130275   1.494   0.522  13.127  0.8152  0.6541 -0.1711
 2928TIP3    H230276   1.618   0.484  13.050 -0.8338 -2.4878 -1.4620
 2929TIP3   OH230277   2.280   2.907  13.995 -0.2544 -0.4240  0.4694
 2929TIP3    H130278   2.213   2.845  13.965  0.1090 -0.2015 -0.8864
 2929TIP3    H230279   2.336   2.856  14.053  0.5259 -1.6390 -1.2662
 2930TIP3   OH230280   1.971   2.751   5.680  0.3725  0.3873 -0.0890
 2930TIP3    H130281   1.885   2.720   5.652  0.6042  0.1023 -0.4917
 2930TIP3    H230282   2.019   2.671   5.703 -0.0992  0.6545  2.0045
 2931TIP3   OH230283   1.632   5.970   2.137  0.2130 -0.1507  0.1174
 2931TIP3    H130284   1.646   5.908   2.209  0.7054  0.6908  0.7669
 2931TIP3    H230285   1.573   6.036   2.174  0.3276  0.1883 -0.3012
 2932TIP3   OH230286   5.435   3.106  12.023 -0.1646 -0.0266  0.2007
 2932TIP3    H130287   5.472   3.074  11.941  0.3454 -0.0285  0.4274
 2932TIP3    H230288   5.455   3.037  12.086  1.6683  1.0611  0.8819
 2933TIP3   OH230289   3.193   6.073  15.054  0.3439  0.8386  0.0716
 2933TIP3    H130290   3.181   6.030  15.139 -2.0372 -2.1804 -1.5869
 2933TIP3    H230291   3.119   6.133  15.047  0.9237  1.6071  0.3535
 2934TIP3   OH230292   2.853   3.299   3.666  0.5281 -0.2254 -0.2862
 2934TIP3    H130293   2.853   3.283   3.760  1.0166  0.0090 -0.2481
 2934TIP3    H230294   2.803   3.380   3.656  2.9373  1.3697  0.0489
 2935TIP3   OH230295   5.126   1.798   6.215  0.4114 -0.1555 -0.0400
 2935TIP3    H130296   5.194   1.830   6.155  0.9753 -0.2595  0.5378
 2935TIP3    H230297   5.109   1.871   6.274  1.8215 -0.9369  1.3885
 2936TIP3   OH230298   6.145   6.296  15.468 -0.2997  0.1447  0.6390
 2936TIP3    H130299   6.219   6.314  15.410 -1.0081  0.7816 -0.0810
 2936TIP3    H230300   6.135   6.376  15.520 -1.1265  0.4534  0.0132
 2937TIP3   OH230301   0.280   1.573  16.391  0.1262  0.1076 -0.2741
 2937TIP3    H130302   0.325   1.610  16.467 -1.1331 -0.4495  0.7656
 2937TIP3    H230303   0.340   1.590  16.318  1.1297  1.1141  0.7362
 2938TIP3   OH230304   4.973   5.433   1.993 -0.4429 -0.0583  0.5654
 2938TIP3    H130305   4.991   5.371   2.063 -3.0780 -1.0460  0.5002
 2938TIP3    H230306   4.923   5.382   1.928  0.4425  1.2516 -1.2428
 2939TIP3   OH230307   5.069   3.293   0.364 -0.0739  0.4067  0.5336
 2939TIP3    H130308   5.045   3.200   0.359 -0.3689  0.4725  0.7573
 2939TIP3    H230309   5.149   3.294   0.417 -0.1113  0.2883  0.5929
 2940TIP3   OH230310   6.514   6.035  16.514 -0.0140  0.8535  0.1164
 2940TIP3    H130311   6.443   5.972  16.507 -0.3170  0.6882  3.1485
 2940TIP3    H230312   6.524   6.071  16.426 -2.1665 -0.8975 -0.9319
 2941TIP3   OH230313   4.948   2.833   1.408 -0.2595 -0.2838  0.0173
 2941TIP3    H130314   4.951   2.740   1.427  1.6447 -0.6838 -1.8440
 2941TIP3    H230315   4.873   2.844   1.350 -0.5133 -0.6405  0.2794
 2942TIP3   OH230316   4.782   5.798   3.399  0.2624 -0.1517 -0.2392
 2942TIP3    H130317   4.827   5.879   3.423 -0.7509 -0.0602  1.5256
 2942TIP3    H230318   4.800   5.788   3.305 -0.7866  2.9032 -0.8825
 2943TIP3   OH230319   0.497   4.634   1.297  0.0946 -0.2766 -0.1005
 2943TIP3    H130320   0.520   4.573   1.227  0.0268 -0.7991  0.3364
 2943TIP3    H230321   0.570   4.697   1.298  0.0027 -0.1455 -0.7677
 2944TIP3   OH230322   4.090   5.552   1.617  0.6193 -0.3167  0.6042
 2944TIP3    H130323   4.149   5.627   1.624  0.3962 -0.1902  1.1541
 2944TIP3    H230324   4.142   5.485   1.571  0.2323  0.7622 -1.5567
 2945TIP3   OH230325   5.897   2.690  16.361 -0.6375  0.1670 -0.1071
 2945TIP3    H130326   5.985   2.718  16.386 -0.9914 -0.1021  1.5661
 2945TIP3    H230327   5.841   2.762  16.390 -1.1618 -0.5547  0.7172
 2946TIP3   OH230328   6.510   4.463  12.851  0.2982  0.2945 -0.4782
 2946TIP3    H130329   6.520   4.402  12.777  2.1401  1.5265 -1.3144
 2946TIP3    H230330   6.427   4.508  12.834  0.4747  0.2383 -1.5627
 2947TIP3   OH230331   6.780   2.846   4.711  0.7724 -0.1717 -0.3418
 2947TIP3    H130332   6.831   2.767   4.730  0.7826  0.0362  0.5220
 2947TIP3    H230333   6.842   2.904   4.667  0.7423 -0.6690 -1.0635
 2948TIP3   OH230334   0.278   3.974  16.971  0.2290  0.5238  1.1753
 2948TIP3    H130335   0.313   3.904  16.917 -0.9127  1.2593 -0.5948
 2948TIP3    H230336   0.355   4.018  17.006  1.0472  0.7613 -0.8264
 2949TIP3   OH230337   1.880   1.082  12.311  0.0594 -0.7676  0.1805
 2949TIP3    H130338   1.896   0.996  12.272  0.8342 -0.4022 -0.3146
 2949TIP3    H230339   1.852   1.062  12.401 -0.3405 -1.5524 -0.1026
 2950TIP3   OH230340   2.089   2.231   6.480 -0.5777 -0.0202  0.3569
 2950TIP3    H130341   2.010   2.284   6.470  0.6698  1.5892 -1.8931
 2950TIP3    H230342   2.061   2.142   6.458 -1.4880  0.8050 -2.2377
 2951TIP3   OH230343   4.233   3.554   3.010  0.0399  0.0812  0.3741
 2951TIP3    H130344   4.139   3.543   2.994  0.3564  0.2459 -2.1261
 2951TIP3    H230345   4.251   3.645   2.985  0.8150  0.1285  1.0899
 2952TIP3   OH230346   3.984   6.218   3.061  0.3396  0.6850 -0.2536
 2952TIP3    H130347   3.923   6.287   3.085  0.0152  0.1095  0.6527
 2952TIP3    H230348   3.948   6.139   3.103  0.1303 -0.2558 -2.0888
 2953TIP3   OH230349   1.092   5.078  10.300 -0.3085 -0.5140  0.1634
 2953TIP3    H130350   1.024   5.145  10.296 -1.1747 -1.3619  0.5320
 2953TIP3    H230351   1.174   5.127  10.287 -0.7968  0.8218  1.6697
 2954TIP3   OH230352   2.972   5.288   6.626  0.0887  0.0191 -0.0573
 2954TIP3    H130353   3.038   5.352   6.597 -0.4701  0.0800 -1.2611
 2954TIP3    H230354   3.023   5.210   6.647  0.8637  1.0022  2.0784
 2955TIP3   OH230355   3.945   6.062   3.584 -0.1661 -0.3420  0.0152
 2955TIP3    H130356   4.006   6.015   3.527 -0.0956 -1.0512  0.6573
 2955TIP3    H230357   3.858   6.034   3.556 -0.1537 -0.2382 -0.1274
 2956TIP3   OH230358   5.871   5.423   2.745 -0.1507 -0.0818 -0.2406
 2956TIP3    H130359   5.905   5.340   2.778 -1.0660  0.4351  2.2408
 2956TIP3    H230360   5.797   5.443   2.802  0.4993  2.8162 -0.2315
 2957TIP3   OH230361   3.166   1.169  14.226 -0.1449  0.5643  0.9102
 2957TIP3    H130362   3.139   1.233  14.291  0.5077  0.3325  1.4161
 2957TIP3    H230363   3.227   1.111  14.272  1.1877  1.0523 -0.1728
 2958TIP3   OH230364   4.307   4.077  12.451 -0.2087  0.0814  0.3503
 2958TIP3    H130365   4.320   3.990  12.489  0.8949  0.2188  0.2920
 2958TIP3    H230366   4.211   4.084  12.443 -0.5972  0.3611  3.8084
 2959TIP3   OH230367   2.338   2.820   0.994 -0.1245 -0.0475 -0.2687
 2959TIP3    H130368   2.434   2.820   0.998 -0.1605 -0.3637  1.8496
 2959TIP3    H230369   2.313   2.729   1.005 -0.6643  0.0853 -0.3577
 2960TIP3   OH230370   0.542   2.336  17.171  0.0284  0.3449 -0.0975
 2960TIP3    H130371   0.452   2.369  17.173 -0.5878 -1.2737  1.3978
 2960TIP3    H230372   0.544   2.267  17.237  2.5069  0.6289  0.2241
 2961TIP3   OH230373   4.999   3.767   0.831  0.2836  0.9650  0.1071
 2961TIP3    H130374   5.002   3.840   0.769  0.7370 -0.8111 -2.1026
 2961TIP3    H230375   5.055   3.701   0.791  0.3621 -0.3896  2.3320
 2962TIP3   OH230376   0.205   3.336   5.938  0.2578  0.2635  0.1614
 2962TIP3    H130377   0.221   3.411   5.995  0.7950  0.4251 -0.1901
 2962TIP3    H230378   0.217   3.259   5.994 -1.6077  0.4244  0.8706
 2963TIP3   OH230379   6.518   6.729  11.113 -0.0867  0.2787 -0.0968
 2963TIP3    H130380   6.541   6.771  11.030  1.4662 -0.5239 -0.1221
 2963TIP3    H230381   6.441   6.776  11.144 -1.8439 -0.5210 -2.8639
 2964TIP3   OH230382   3.320   1.778   4.759  0.1625 -0.2911  0.3236
 2964TIP3    H130383   3.336   1.716   4.687  1.3377 -0.4241  0.6727
 2964TIP3    H230384   3.309   1.722   4.836 -1.5215 -0.1721  0.2103
 2965TIP3   OH230385   6.383   4.658  17.176  0.5336 -0.5594 -0.1812
 2965TIP3    H130386   6.344   4.743  17.199 -0.1955 -1.2537  1.2702
 2965TIP3    H230387   6.473   4.680  17.150  0.4279  0.6401  0.3949
 2966TIP3   OH230388   5.606   0.645   3.010  0.7366  0.4782 -0.4078
 2966TIP3    H130389   5.539   0.579   3.029  0.7083  0.4509 -0.6008
 2966TIP3    H230390   5.689   0.597   3.014  0.8582  0.7807  1.1426
 2967TIP3   OH230391   6.328   0.357  11.468 -0.9798  0.1729 -0.2062
 2967TIP3    H130392   6.239   0.389  11.485 -0.7914 -0.2165  1.7696
 2967TIP3    H230393   6.371   0.429  11.422 -2.7173 -0.2120 -2.6552
 2968TIP3   OH230394   4.327   2.859   6.258  0.1657  0.1280  0.5326
 2968TIP3    H130395   4.316   2.854   6.163 -1.4686 -0.8832  0.7374
 2968TIP3    H230396   4.392   2.929   6.271  1.7882 -0.9106 -1.3852
 2969TIP3   OH230397   1.706   1.614  16.336  0.8012 -0.0615  0.1026
 2969TIP3    H130398   1.708   1.560  16.257  0.9125  0.9735 -0.6104
 2969TIP3    H230399   1.774   1.679  16.323 -1.1506  2.0268 -0.3511
 2970TIP3   OH230400   5.636   1.366  12.906 -0.7357 -0.4522 -0.1849
 2970TIP3    H130401   5.691   1.365  12.985 -0.2815 -2.6932 -0.4742
 2970TIP3    H230402   5.629   1.274  12.881 -0.0464  0.2493 -3.3519
 2971TIP3   OH230403   3.293   4.214   2.905 -0.0679 -0.2953  0.1434
 2971TIP3    H130404   3.247   4.174   2.831 -0.5536  0.5765 -0.0372
 2971TIP3    H230405   3.253   4.174   2.982 -0.4409 -0.2776 -0.0377
 2972TIP3   OH230406   5.265   0.087   1.794  0.5166 -0.5977 -0.3987
 2972TIP3    H130407   5.268   0.180   1.769  0.0402 -0.7268 -0.9712
 2972TIP3    H230408   5.310   0.083   1.878 -1.6806  0.6068  0.9496
 2973TIP3   OH230409   3.166   1.322   6.006  0.7880  0.4180 -0.1222
 2973TIP3    H130410   3.136   1.232   6.021 -0.3741  0.6359 -1.0315
 2973TIP3    H230411   3.125   1.374   6.075 -0.0235  0.5338 -0.6854
 2974TIP3   OH230412   3.164   0.778  14.919 -0.2373  0.5303  0.2599
 2974TIP3    H130413   3.092   0.787  14.856 -0.8626 -0.7899  0.7489
 2974TIP3    H230414   3.185   0.685  14.919  3.2130  1.1392 -1.6983
 2975TIP3   OH230415   6.420   5.193   4.969 -0.1701  0.5204  0.4447
 2975TIP3    H130416   6.326   5.186   4.985 -0.2174 -0.6554 -0.2010
 2975TIP3    H230417   6.427   5.232   4.882 -0.1580 -1.7312 -0.6300
 2976TIP3   OH230418   2.797   5.407  11.373  0.4442  0.5851 -0.1551
 2976TIP3    H130419   2.768   5.387  11.461  1.7503 -0.1885  0.1257
 2976TIP3    H230420   2.792   5.502  11.367 -0.8714  0.5618  0.2925
 2977TIP3   OH230421   3.843   0.491   5.353  0.8254  0.3016 -0.3843
 2977TIP3    H130422   3.803   0.574   5.327 -0.0533  0.1133  0.3188
 2977TIP3    H230423   3.825   0.484   5.446  1.1211 -0.5630 -0.3851
 2978TIP3   OH230424   1.880   3.021   5.010 -0.7827 -0.4262 -0.5436
 2978TIP3    H130425   1.933   3.056   5.081 -0.4636 -0.5919 -0.6982
 2978TIP3    H230426   1.870   2.928   5.031  1.1751 -0.9782 -1.8370
 2979TIP3   OH230427   4.619   3.986   4.498  0.0494  0.1480  0.6087
 2979TIP3    H130428   4.593   3.923   4.431  2.0951 -0.7696  0.6160
 2979TIP3    H230429   4.536   4.013   4.538 -1.1337 -0.1313 -1.4887
 2980TIP3   OH230430   3.609   4.285  12.618 -0.0614 -0.4285  0.1968
 2980TIP3    H130431   3.696   4.251  12.639  0.0934 -1.7429 -2.1970
 2980TIP3    H230432   3.624   4.347  12.547 -1.0269 -0.0722  0.2888
 2981TIP3   OH230433   4.767   0.374  15.476 -0.8336 -0.1697 -0.4444
 2981TIP3    H130434   4.717   0.394  15.556  0.7784  1.0181  0.3246
 2981TIP3    H230435   4.703   0.386  15.405 -1.8617  0.4950  0.5490
 2982TIP3   OH230436   5.190   0.560  14.530 -0.3458 -0.0048 -0.1114
 2982TIP3    H130437   5.176   0.573  14.436 -0.4994  1.0307  0.0356
 2982TIP3    H230438   5.145   0.479  14.551 -1.3231  0.3635 -0.7204
 2983TIP3   OH230439   4.561   2.117  11.916  0.4589 -0.2355  0.6725
 2983TIP3    H130440   4.621   2.173  11.867  0.6185 -0.2609  0.8357
 2983TIP3    H230441   4.504   2.078  11.849  0.7832 -0.3994  0.4899
 2984TIP3   OH230442   2.162   1.059   3.440  0.6393 -0.1774 -0.2713
 2984TIP3    H130443   2.206   1.046   3.524  0.9639 -0.0535 -0.4197
 2984TIP3    H230444   2.218   1.015   3.376 -0.5586 -1.8835 -0.2009
 2985TIP3   OH230445   3.724   4.804   5.263  0.4496  0.6239  0.6827
 2985TIP3    H130446   3.698   4.885   5.220  1.2028  1.2901  1.4499
 2985TIP3    H230447   3.763   4.751   5.193 -1.9549  0.0125 -0.2671
 2986TIP3   OH230448   1.747   3.934   2.291  0.3802 -0.1361  0.1512
 2986TIP3    H130449   1.764   3.961   2.200 -0.7521  1.4107  0.3480
 2986TIP3    H230450   1.735   3.840   2.287  0.5601 -0.1151 -1.2785
 2987TIP3   OH230451   4.005   4.557   4.202 -0.0575  0.4282  0.2129
 2987TIP3    H130452   4.053   4.566   4.120  0.4461  2.5744  0.6680
 2987TIP3    H230453   3.927   4.507   4.178  1.3082 -1.2790 -0.9838
 2988TIP3   OH230454   5.253   5.164   0.430  0.2335 -0.2867  0.4833
 2988TIP3    H130455   5.270   5.152   0.523  0.0308  1.1556  0.7263
 2988TIP3    H230456   5.329   5.124   0.387  0.5510 -0.5605  1.2770
 2989TIP3   OH230457   0.219   5.753   4.920 -0.6755  0.0657  0.0107
 2989TIP3    H130458   0.254   5.815   4.984 -0.6886  0.3882 -0.2897
 2989TIP3    H230459   0.221   5.669   4.965 -0.7518  0.2992  0.4632
 2990TIP3   OH230460   4.543   5.984  17.046  0.0665 -0.1255  0.1207
 2990TIP3    H130461   4.466   5.944  17.005 -2.0790  1.7115  2.0502
 2990TIP3    H230462   4.527   6.079  17.039  2.4249  0.3337  0.1894
 2991TIP3   OH230463   5.524   6.535  16.513  0.2831  0.6585 -0.4491
 2991TIP3    H130464   5.585   6.592  16.559 -0.3560  0.2838  0.9109
 2991TIP3    H230465   5.439   6.552  16.555  0.0704 -1.2372 -0.0492
 2992TIP3   OH230466   3.164   4.337  14.011  0.2165 -0.0890 -0.4381
 2992TIP3    H130467   3.220   4.285  14.069  1.6992  2.7132  0.8898
 2992TIP3    H230468   3.217   4.352  13.933  0.0212 -0.1229 -0.5785
 2993TIP3   OH230469   1.560   2.179   4.060 -0.3387 -0.1027 -0.3605
 2993TIP3    H130470   1.496   2.238   4.019 -1.7030 -0.1527  1.5705
 2993TIP3    H230471   1.582   2.221   4.142  0.1888 -1.3291  0.1439
 2994TIP3   OH230472   0.232   3.346  14.365 -0.0955 -0.8915  0.2493
 2994TIP3    H130473   0.154   3.338  14.420 -0.6918 -1.6684 -0.6759
 2994TIP3    H230474   0.291   3.279  14.399  0.5206  0.2226  1.4651
 2995TIP3   OH230475   4.850   6.366   0.097 -0.0478  0.2462 -0.1244
 2995TIP3    H130476   4.799   6.444   0.119  0.6780  0.7203 -0.1084
 2995TIP3    H230477   4.940   6.396   0.093  0.1487 -0.4157 -1.0031
 2996TIP3   OH230478   6.189   0.656   3.649 -0.2373 -0.1970 -0.2796
 2996TIP3    H130479   6.242   0.660   3.569  0.7359 -2.2105  0.1969
 2996TIP3    H230480   6.099   0.651   3.617  0.1969 -2.1816 -1.3818
 2997TIP3   OH230481   4.785   6.621   4.341 -0.2566  0.0430  0.3960
 2997TIP3    H130482   4.745   6.535   4.351  1.0112 -0.7221 -0.6749
 2997TIP3    H230483   4.874   6.610   4.376 -0.6607  1.4604  1.9913
 2998TIP3   OH230484   6.746   1.565  16.107  0.2196 -0.3093 -0.2088
 2998TIP3    H130485   6.804   1.620  16.160 -1.1418  0.6148  0.3507
 2998TIP3    H230486   6.737   1.612  16.024  0.7373 -0.7641 -0.5345
 2999TIP3   OH230487   2.248   5.224  14.729 -0.0430 -0.2984  0.2222
 2999TIP3    H130488   2.168   5.259  14.769 -0.4756  1.6509 -2.1436
 2999TIP3    H230489   2.222   5.139  14.694 -1.2276  0.4739 -0.8535
 3000TIP3   OH230490   1.891   0.061   5.386  0.5643 -0.1597  0.4472
 3000TIP3    H130491   1.915   0.098   5.301  2.8904 -2.4112  0.0258
 3000TIP3    H230492   1.916   0.129   5.449  0.2944  0.8874 -0.5314
 3001TIP3   OH230493   1.665   1.316  12.372  0.7870  0.1647 -0.0861
 3001TIP3    H130494   1.729   1.313  12.302  0.2446 -0.4001 -0.5734
 3001TIP3    H230495   1.677   1.401  12.414  2.5182 -0.3174  0.4681
 3002TIP3   OH230496   1.297   6.453   4.173  0.4784 -0.6841  0.2242
 3002TIP3    H130497   1.252   6.519   4.225  0.4570 -0.5870  0.0845
 3002TIP3    H230498   1.266   6.370   4.208  0.2526 -0.6179  0.1866
 3003TIP3   OH230499   2.422   2.735  15.328 -0.0835  0.1289 -0.0620
 3003TIP3    H130500   2.469   2.800  15.380 -0.4090 -0.5307  1.1099
 3003TIP3    H230501   2.480   2.659  15.328  0.8915  0.8034 -2.5370
 3004TIP3   OH230502   1.105   5.111  12.746 -0.0765  0.2784 -0.3015
 3004TIP3    H130503   1.064   5.071  12.822 -1.8668 -0.1621 -1.4184
 3004TIP3    H230504   1.145   5.192  12.779 -0.2826 -0.2080  1.1865
 3005TIP3   OH230505   0.533   5.947  15.883  0.4913  0.0057 -0.2461
 3005TIP3    H130506   0.617   5.939  15.927  0.2121 -0.4077  0.2188
 3005TIP3    H230507   0.555   5.974  15.793  1.1390 -0.5596 -0.2603
 3006TIP3   OH230508   3.945   2.032   1.428  0.0691 -0.4776  0.0907
 3006TIP3    H130509   4.031   2.028   1.388  0.5407 -0.7283  1.1055
 3006TIP3    H230510   3.936   1.948   1.474 -0.8261 -0.5719 -0.2348
 3007TIP3   OH230511   6.372   3.450   1.347  0.0348 -0.1764  0.3920
 3007TIP3    H130512   6.342   3.532   1.385 -0.3984 -0.5305  0.8132
 3007TIP3    H230513   6.332   3.382   1.400 -0.2853 -0.6756 -0.4724
 3008TIP3   OH230514   5.546   5.561   6.012 -0.2439 -0.2315  0.3776
 3008TIP3    H130515   5.492   5.540   5.936 -1.0543 -2.9335  1.5984
 3008TIP3    H230516   5.636   5.541   5.985 -0.1178  1.5207 -0.7024
 3009TIP3   OH230517   0.511   1.415   4.307 -0.3196  0.0542 -0.5153
 3009TIP3    H130518   0.460   1.368   4.242 -0.1886 -0.2984 -0.3635
 3009TIP3    H230519   0.599   1.420   4.271 -0.7113  1.7304 -1.3376
 3010TIP3   OH230520   5.919   0.444  12.595 -0.2508 -0.5214 -0.5363
 3010TIP3    H130521   5.980   0.397  12.538  1.2977  0.4565  0.2269
 3010TIP3    H230522   5.952   0.534  12.595 -0.8158 -0.2802  1.0789
 3011TIP3   OH230523   2.497   1.316   1.708  0.4491  0.0626 -0.2294
 3011TIP3    H130524   2.516   1.403   1.742  0.6794 -0.2617  0.4972
 3011TIP3    H230525   2.577   1.266   1.725 -0.4564 -0.9137  1.4938
 3012TIP3   OH230526   6.487   2.764   5.144 -0.5033 -0.1171 -0.2766
 3012TIP3    H130527   6.511   2.857   5.151  0.7980 -0.4746  0.4974
 3012TIP3    H230528   6.556   2.727   5.089  0.4122 -1.0705  1.4471
 3013TIP3   OH230529   3.528   2.008  13.773 -0.4097 -0.0538 -0.2899
 3013TIP3    H130530   3.443   1.982  13.809  0.3655 -1.6570  0.5084
 3013TIP3    H230531   3.573   2.051  13.845 -0.9428  1.8400 -1.0481
 3014TIP3   OH230532   2.462   1.084  16.385 -0.4604 -0.7177 -0.1915
 3014TIP3    H130533   2.521   1.158  16.373 -0.9782 -0.0869  1.0361
 3014TIP3    H230534   2.424   1.096  16.472 -2.0359 -1.3719 -0.7421
 3015TIP3   OH230535   1.404   1.175  12.068 -0.5830 -0.5231  0.0893
 3015TIP3    H130536   1.498   1.183  12.053 -0.4962 -0.3112  0.7423
 3015TIP3    H230537   1.364   1.214  11.990 -0.1834  3.6375  1.7449
 3016TIP3   OH230538   1.184   1.763  16.959  0.4556 -0.0296  0.2323
 3016TIP3    H130539   1.173   1.786  16.867 -0.3638 -0.6997  0.1525
 3016TIP3    H230540   1.166   1.669  16.962 -1.6498  0.3485  1.3904
 3017TIP3   OH230541   0.063   6.268   0.668 -0.3597 -0.1766 -0.5662
 3017TIP3    H130542   0.113   6.284   0.588 -0.3849 -0.7222 -0.6921
 3017TIP3    H230543   0.003   6.343   0.673  0.4780  0.5024 -0.3907
 3018TIP3   OH230544   3.638   0.007   1.625  0.5094  0.3253  0.2670
 3018TIP3    H130545   3.732  -0.013   1.622  0.0036 -3.7730  2.9910
 3018TIP3    H230546   3.604  -0.025   1.541  1.4079  0.7336 -0.2554
 3019TIP3   OH230547   1.983   5.674  13.983 -0.1257 -0.0540  0.5247
 3019TIP3    H130548   1.896   5.680  14.024  1.0630  0.6076  3.1688
 3019TIP3    H230549   2.033   5.746  14.021  2.1277 -1.5237  0.5638
 3020TIP3   OH230550   2.096   0.894   3.043  0.1510 -0.2079  0.4243
 3020TIP3    H130551   2.015   0.946   3.048 -0.0534 -0.5181  0.3436
 3020TIP3    H230552   2.067   0.807   3.015  0.4116 -0.5698  1.2707
 3021TIP3   OH230553   5.452   4.794   4.558 -0.1388  0.0596 -0.0944
 3021TIP3    H130554   5.361   4.796   4.529  0.6995  0.2970 -3.1017
 3021TIP3    H230555   5.501   4.764   4.481  2.6023  2.5498  0.4833
 3022TIP3   OH230556   1.885   0.871   6.513 -0.9667 -0.1153  0.3296
 3022TIP3    H130557   1.932   0.880   6.430  1.0993 -0.2897  1.4189
 3022TIP3    H230558   1.881   0.960   6.548 -1.9266 -0.0262  0.0188
 3023TIP3   OH230559   0.441   1.290  16.811  0.2618 -0.5373 -0.6804
 3023TIP3    H130560   0.473   1.220  16.868 -0.7071 -0.5723 -0.1684
 3023TIP3    H230561   0.513   1.353  16.809  0.6467 -0.9419 -0.1250
 3024TIP3   OH230562   5.661   0.957   2.600  0.0610 -0.5886 -0.0352
 3024TIP3    H130563   5.624   0.891   2.658 -1.0482  0.2788  0.2798
 3024TIP3    H230564   5.682   0.910   2.520 -4.3739 -0.6997 -1.3395
 3025TIP3   OH230565   5.856   1.306  14.222 -0.7729  0.2642  0.3230
 3025TIP3    H130566   5.870   1.236  14.158  0.7505  2.4949 -1.9908
 3025TIP3    H230567   5.781   1.354  14.188 -0.2939  1.1543  0.4990
 3026TIP3   OH230568   0.644   5.866   5.122  0.2776  0.2066  0.1098
 3026TIP3    H130569   0.651   5.921   5.044 -0.8085  3.5020  2.1336
 3026TIP3    H230570   0.712   5.900   5.181 -0.5157 -0.5393  1.5038
 3027TIP3   OH230571   5.976   1.832   3.004 -0.4270 -0.1926 -0.3070
 3027TIP3    H130572   5.918   1.828   3.080 -2.5201  0.3685 -1.7906
 3027TIP3    H230573   5.974   1.743   2.968 -0.0288 -0.2710 -0.1411
 3028TIP3   OH230574   2.463   1.664  14.880  0.0835  0.4545 -0.0498
 3028TIP3    H130575   2.397   1.718  14.922  1.1220  0.1440  2.1449
 3028TIP3    H230576   2.536   1.723  14.864  0.3968  0.1866  0.3543
 3029TIP3   OH230577   0.961   0.496   2.392 -0.1996  0.6578 -0.2257
 3029TIP3    H130578   1.002   0.533   2.470  0.7956 -0.0166 -0.4095
 3029TIP3    H230579   1.021   0.427   2.364 -1.7605 -0.7910 -0.1619
 3030TIP3   OH230580   6.156   1.700  14.023  0.2071  0.4243 -0.1179
 3030TIP3    H130581   6.224   1.750  13.978 -0.3863 -0.4095 -2.0486
 3030TIP3    H230582   6.083   1.698  13.961 -0.6782 -0.7350  0.9109
 3031TIP3   OH230583   1.610   1.899  13.286 -0.1993  0.1250 -0.0900
 3031TIP3    H130584   1.595   1.810  13.318  1.3948 -0.1910 -0.1542
 3031TIP3    H230585   1.605   1.954  13.364 -1.5753  0.0547 -0.1070
 3032TIP3   OH230586   5.810   1.442  10.547 -0.3133 -0.1581 -0.4555
 3032TIP3    H130587   5.759   1.504  10.600 -0.8248  1.2704 -2.4806
 3032TIP3    H230588   5.746   1.377  10.517 -0.5471  0.4317 -1.2733
 3033TIP3   OH230589   2.105   2.828   4.453 -0.2251  0.4552  0.2814
 3033TIP3    H130590   2.053   2.894   4.407 -0.4142 -0.1744 -0.4220
 3033TIP3    H230591   2.186   2.821   4.402 -0.8638 -0.9979 -0.5927
 3034TIP3   OH230592   0.113   2.506   2.064  0.5018 -0.2649  0.0376
 3034TIP3    H130593   0.034   2.452   2.068 -1.5129  2.4781  0.6455
 3034TIP3    H230594   0.179   2.457   2.113 -1.0224 -2.3401  0.1149
 3035TIP3   OH230595   1.269   3.103   0.400 -0.5562 -0.0955 -0.8365
 3035TIP3    H130596   1.332   3.171   0.422 -0.3810 -0.3846 -0.4353
 3035TIP3    H230597   1.189   3.151   0.378 -1.3020  0.1943  2.1410
 3036TIP3   OH230598   2.831   0.935  13.928  0.0066  0.0452  0.0117
 3036TIP3    H130599   2.888   0.944  14.005  0.0696 -0.0038 -0.0290
 3036TIP3    H230600   2.855   0.850  13.891 -0.3491 -0.1355  0.2014
 3037TIP3   OH230601   5.061   0.003  13.022  0.4288 -0.0545 -0.4613
 3037TIP3    H130602   5.120   0.073  13.050 -0.3485  1.1298 -1.6286
 3037TIP3    H230603   5.118  -0.063  12.983  1.0173  1.2052 -1.8553
 3038TIP3   OH230604   0.478   5.072   4.692 -0.2515 -0.4438 -0.0942
 3038TIP3    H130605   0.443   5.113   4.613  0.6916  0.6764  0.0412
 3038TIP3    H230606   0.564   5.113   4.704  0.8513 -2.6499 -0.0691
 3039TIP3   OH230607   0.250   4.803   4.327 -0.0942 -0.0283  0.2668
 3039TIP3    H130608   0.265   4.713   4.300 -0.7910  0.3672 -1.6230
 3039TIP3    H230609   0.278   4.807   4.418 -2.5309 -2.8417  1.2978
 3040TIP3   OH230610   2.082   2.123   1.241 -0.4284 -0.0060 -0.2344
 3040TIP3    H130611   2.134   2.063   1.293 -0.0390  0.0267 -0.5805
 3040TIP3    H230612   2.028   2.170   1.305 -0.6350 -0.6205  0.0482
 3041TIP3   OH230613   1.080   2.454  10.745 -0.3559  0.6559  0.3295
 3041TIP3    H130614   1.047   2.433  10.657 -0.1981  0.3510  0.3417
 3041TIP3    H230615   1.170   2.420  10.745 -0.5321  0.1745  0.7855
 3042TIP3   OH230616   0.805   1.773   3.889 -0.9185  0.0761 -0.1686
 3042TIP3    H130617   0.791   1.679   3.877 -2.1004  0.2134  0.0485
 3042TIP3    H230618   0.763   1.813   3.813 -1.1130  0.4773  0.1514
 3043TIP3   OH230619   1.581   5.252   4.122  0.3392 -0.5775  0.5257
 3043TIP3    H130620   1.561   5.179   4.064 -1.2006 -0.0123  0.2882
 3043TIP3    H230621   1.576   5.215   4.210  3.4930 -1.6261  0.3682
 3044TIP3   OH230622   0.945   4.343  12.601  0.1233  0.2889  0.0412
 3044TIP3    H130623   0.947   4.438  12.593  0.7879  0.3196  0.5116
 3044TIP3    H230624   0.856   4.319  12.574 -0.0215  1.0290 -0.1738
 3045TIP3   OH230625   0.862   3.659  16.180 -0.5123  1.2833  0.3181
 3045TIP3    H130626   0.778   3.614  16.178 -0.9254  2.0536 -0.2439
 3045TIP3    H230627   0.888   3.666  16.089  1.6497 -1.5699  0.5789
 3046TIP3   OH230628   2.188   6.481   2.621  0.6435 -0.2088  1.0395
 3046TIP3    H130629   2.131   6.555   2.602  2.6241  1.1865  0.1319
 3046TIP3    H230630   2.166   6.416   2.555 -0.0689  0.1983  0.8675
 3047TIP3   OH230631   3.381   5.985  15.399  0.0021 -0.4558 -0.1154
 3047TIP3    H130632   3.414   5.910  15.448  0.3184 -0.3504 -0.1691
 3047TIP3    H230633   3.458   6.037  15.377 -0.2006 -0.1756 -0.1857
 3048TIP3   OH230634   3.839   0.867  12.079 -0.0110 -0.1017 -0.2753
 3048TIP3    H130635   3.856   0.960  12.099 -0.6242  0.1162 -0.7161
 3048TIP3    H230636   3.746   0.856  12.102  0.5903 -1.1849  1.8892
 3049TIP3   OH230637   3.953   1.062  13.306 -0.0577  0.4537 -0.0266
 3049TIP3    H130638   3.916   1.145  13.275 -0.9145  0.7969  1.7417
 3049TIP3    H230639   3.904   0.995  13.259 -2.2376  0.9283  1.3685
 3050TIP3   OH230640   2.786   6.696  11.068 -0.1293  0.2456  0.0932
 3050TIP3    H130641   2.732   6.755  11.017  0.8208  0.8309 -0.2590
 3050TIP3    H230642   2.737   6.614  11.070 -0.7497  0.5878 -0.7095
 3051TIP3   OH230643   0.526   1.115   2.726 -0.7160 -0.3049 -0.3519
 3051TIP3    H130644   0.578   1.186   2.764 -1.2073 -0.3204  0.3663
 3051TIP3    H230645   0.491   1.068   2.802 -0.8319 -0.9957 -0.8265
 3052TIP3   OH230646   5.786   0.245   4.645 -0.3156 -0.1821 -0.5534
 3052TIP3    H130647   5.792   0.212   4.556 -0.8356  1.1152 -1.0988
 3052TIP3    H230648   5.702   0.290   4.648 -0.4302 -0.4457  0.6855
 3053TIP3   OH230649   1.779   6.774   0.393  0.0799 -0.1486  0.0421
 3053TIP3    H130650   1.703   6.715   0.389  0.0473 -0.1203  0.2455
 3053TIP3    H230651   1.809   6.769   0.484 -0.2556  0.5711  0.2016
 3054TIP3   OH230652   4.645   5.574  15.164  0.3096 -0.3014 -0.9651
 3054TIP3    H130653   4.655   5.486  15.129  0.7315 -0.0768 -1.4300
 3054TIP3    H230654   4.676   5.631  15.093 -0.6502  0.2575 -0.9566
 3055TIP3   OH230655   0.387   5.973  14.329 -0.1406  0.1564  0.5404
 3055TIP3    H130656   0.388   6.024  14.248  0.3720 -1.3552 -0.4481
 3055TIP3    H230657   0.341   5.893  14.307 -1.5129  0.3990  2.2388
 3056TIP3   OH230658   5.108   0.322  16.406  0.6261 -0.1405  0.0636
 3056TIP3    H130659   5.052   0.294  16.479  0.7185  0.2227  0.2806
 3056TIP3    H230660   5.050   0.326  16.331  0.7371 -1.4855 -0.1140
 3057TIP3   OH230661   5.629   2.767  15.018  0.4072 -0.5427 -0.0726
 3057TIP3    H130662   5.546   2.720  15.019  0.8486 -1.3336  0.8047
 3057TIP3    H230663   5.619   2.833  14.949 -2.0768  1.4424  1.9915
 3058TIP3   OH230664   4.789   2.674   4.029  0.3917 -0.3773  0.1260
 3058TIP3    H130665   4.873   2.673   4.075  0.7836 -0.5917 -0.5972
 3058TIP3    H230666   4.724   2.684   4.099  1.0143 -0.2211  0.6881
 3059TIP3   OH230667   4.026   6.343   0.467  0.1107  0.1214 -0.3687
 3059TIP3    H130668   4.107   6.320   0.423 -0.1245  1.0649 -1.3517
 3059TIP3    H230669   3.972   6.265   0.462  1.5760 -1.1625  1.9216
 3060TIP3   OH230670   0.389   3.808  16.752 -0.4356 -0.4145 -0.5924
 3060TIP3    H130671   0.326   3.783  16.684  0.0293 -2.0677 -0.4676
 3060TIP3    H230672   0.452   3.736  16.753  0.8948  0.7192 -0.0104
 3061TIP3   OH230673   4.627   5.901  13.212  0.1720 -0.1751 -0.3268
 3061TIP3    H130674   4.565   5.879  13.143 -0.3196  0.8953 -0.2454
 3061TIP3    H230675   4.661   5.987  13.188 -2.1014  1.5880  2.0991
 3062TIP3   OH230676   4.910   3.591  12.697 -0.1947 -0.1652  0.5128
 3062TIP3    H130677   4.847   3.552  12.637  1.1909 -2.6615  0.5740
 3062TIP3    H230678   4.889   3.553  12.783  0.5422  0.0384  0.7902
 3063TIP3   OH230679   6.575   4.313  12.618 -0.4069 -0.7494 -0.5102
 3063TIP3    H130680   6.577   4.230  12.664 -0.7464 -0.2033  0.5360
 3063TIP3    H230681   6.657   4.316  12.569 -0.3306 -1.6262 -0.4503
 3064TIP3   OH230682   2.611   2.883  14.615  0.0544 -0.3049  0.0786
 3064TIP3    H130683   2.601   2.789  14.601 -3.6628 -0.2201  1.1062
 3064TIP3    H230684   2.591   2.922  14.530  0.0656 -0.4000  0.0321
 3065TIP3   OH230685   1.779   5.029  12.804  0.3876 -0.0092  0.6449
 3065TIP3    H130686   1.697   4.993  12.770  0.6209  0.5672 -0.5640
 3065TIP3    H230687   1.842   4.957  12.794  0.2311 -0.1651  0.7711
 3066TIP3   OH230688   0.146   0.149  15.185  0.0178 -0.3129  0.1713
 3066TIP3    H130689   0.146   0.242  15.210 -0.8965 -0.3125  0.2022
 3066TIP3    H230690   0.239   0.127  15.176  0.2432  1.0040 -1.3070
 3067TIP3   OH230691   4.917   1.815  13.752 -0.1334 -0.0202  0.0978
 3067TIP3    H130692   4.985   1.791  13.815 -1.2678  0.9646  1.7723
 3067TIP3    H230693   4.920   1.746  13.686  2.1831 -0.2212  0.3405
 3068TIP3   OH230694   5.672   1.968   1.076 -0.0718 -0.0338  0.2266
 3068TIP3    H130695   5.629   2.007   1.152 -0.6921 -0.7982  0.2732
 3068TIP3    H230696   5.685   1.876   1.099  2.1325  0.2747  0.4420
 3069TIP3   OH230697   5.280   3.091   2.471  0.1883  0.2583 -0.2440
 3069TIP3    H130698   5.277   3.046   2.387 -2.1440 -2.3131  1.0959
 3069TIP3    H230699   5.244   3.178   2.453  0.1059 -0.0967 -1.9482
 3070TIP3   OH230700   6.503   2.975  10.910 -0.4155  0.3898  0.2201
 3070TIP3    H130701   6.413   3.009  10.916 -0.8000  0.1283 -2.6304
 3070TIP3    H230702   6.555   3.051  10.884 -0.5344 -0.1678 -1.8570
 3071TIP3   OH230703   5.484   0.223  16.894  0.3065  0.6123 -0.2718
 3071TIP3    H130704   5.391   0.246  16.892 -0.2336 -1.4228 -0.8223
 3071TIP3    H230705   5.493   0.163  16.968  1.4768  1.7529  0.5708
 3072TIP3   OH230706   6.266   4.415  17.277 -0.0459 -0.0586 -0.1035
 3072TIP3    H130707   6.302   4.497  17.243 -0.7532 -0.5165 -2.0928
 3072TIP3    H230708   6.171   4.426  17.268 -0.2186 -0.5159  1.0685
 3073TIP3   OH230709   2.843   2.537  11.011 -0.3121  0.3083 -0.1749
 3073TIP3    H130710   2.883   2.472  10.952 -0.9312  1.5930 -2.0985
 3073TIP3    H230711   2.751   2.514  11.012 -0.0961 -0.5763  1.5024
 3074TIP3   OH230712   6.146   3.756   0.400 -0.2719  0.0824 -0.2537
 3074TIP3    H130713   6.129   3.663   0.420 -1.1497 -0.0296 -1.4334
 3074TIP3    H230714   6.089   3.804   0.460 -1.1137 -0.1917 -0.8221
 3075TIP3   OH230715   4.221   4.400  12.072  0.3876 -0.4311  0.3617
 3075TIP3    H130716   4.286   4.465  12.047 -0.5498  1.2275  1.9885
 3075TIP3    H230717   4.156   4.402  12.001 -0.1334  1.1737  0.8516
 3076TIP3   OH230718   4.240   2.771  11.162 -0.5364  0.5579 -0.3033
 3076TIP3    H130719   4.291   2.824  11.100  0.0318 -1.6557 -1.8704
 3076TIP3    H230720   4.169   2.736  11.109 -3.1181  2.5908  1.5597
 3077TIP3   OH230721   1.849   3.033   3.115  0.7639 -0.2061 -0.3128
 3077TIP3    H130722   1.900   3.003   3.190  2.0349 -0.5502 -1.2917
 3077TIP3    H230723   1.764   2.990   3.125  0.9521 -0.3288  0.8584
 3078TIP3   OH230724   2.957   1.052  12.105  0.4983 -0.5315  0.0801
 3078TIP3    H130725   2.898   1.119  12.072 -1.0890 -1.3108  1.1917
 3078TIP3    H230726   2.935   1.044  12.198  2.5297 -0.7093  0.5900
 3079TIP3   OH230727   4.521   4.180   0.852  0.0763 -0.2749  0.5606
 3079TIP3    H130728   4.583   4.113   0.880  0.0137 -0.6044 -0.0503
 3079TIP3    H230729   4.478   4.209   0.932 -0.0608 -1.1348  0.8055
 3080TIP3   OH230730   2.924   5.754   0.268 -0.3927 -0.3561 -0.8868
 3080TIP3    H130731   3.017   5.744   0.249  0.0416  1.4177  0.0611
 3080TIP3    H230732   2.914   5.722   0.358 -1.1898 -2.6657 -1.7145
 3081TIP3   OH230733   5.321   4.760   0.716  0.4206 -0.0591 -0.8061
 3081TIP3    H130734   5.356   4.846   0.741 -0.8785  0.0090  0.9681
 3081TIP3    H230735   5.392   4.719   0.666  1.6474  1.4493 -0.3845
 3082TIP3   OH230736   6.473   1.985  16.699  0.5608  0.1426  0.5131
 3082TIP3    H130737   6.450   1.949  16.784 -0.4967  0.4828  0.3848
 3082TIP3    H230738   6.562   2.018  16.710 -0.1653  1.7908  2.0322
 3083TIP3   OH230739   0.071   4.046  13.475  0.2622 -0.4572  0.0780
 3083TIP3    H130740   0.007   4.117  13.482 -1.1010 -1.6797  0.6467
 3083TIP3    H230741   0.115   4.061  13.391  0.4782  1.3924  0.4780
 3084TIP3   OH230742   6.716   3.292   6.389 -0.0294 -0.4667 -0.0074
 3084TIP3    H130743   6.629   3.321   6.363  0.4673 -0.6187 -2.0083
 3084TIP3    H230744   6.755   3.368   6.433 -1.3127 -0.5692  1.3962
 3085TIP3   OH230745   5.650   1.504  11.748 -0.4528  0.4019 -0.2260
 3085TIP3    H130746   5.720   1.542  11.695  0.2585 -1.6827 -0.8439
 3085TIP3    H230747   5.573   1.507  11.692 -0.0413 -0.4637 -0.8505
 3086TIP3   OH230748   5.641   0.526   3.623 -0.4099 -0.3636 -1.0834
 3086TIP3    H130749   5.680   0.602   3.580  1.6080 -1.5625 -1.5472
 3086TIP3    H230750   5.631   0.552   3.714  0.9162  0.2615 -1.0897
 3087TIP3   OH230751   0.625   3.349   1.243 -0.4184  0.6200  0.3545
 3087TIP3    H130752   0.651   3.349   1.151  1.2679 -1.2293  0.7526
 3087TIP3    H230753   0.706   3.332   1.291 -1.2869  1.3890  2.1831
 3088TIP3   OH230754   0.050   1.612  10.793 -0.2235  0.4735  0.2854
 3088TIP3    H130755  -0.010   1.556  10.745 -0.1452 -0.8040  1.6204
 3088TIP3    H230756   0.132   1.608  10.744 -0.4214 -0.0268 -0.0048
 3089TIP3   OH230757   4.832   1.569  16.585 -0.2092 -0.3930  0.3138
 3089TIP3    H130758   4.906   1.625  16.562  0.8191 -1.6792  0.3528
 3089TIP3    H230759   4.757   1.608  16.540  0.6001  0.6295 -0.1800
 3090TIP3   OH230760   5.747   2.959   3.545 -0.2341 -0.0893  0.0608
 3090TIP3    H130761   5.734   2.994   3.457  1.8791  1.0562  0.1450
 3090TIP3    H230762   5.685   3.007   3.600 -0.1118  0.6806 -0.4746
 3091TIP3   OH230763   2.896   2.945  15.512  0.0765  0.0253 -0.0806
 3091TIP3    H130764   2.968   3.005  15.491 -0.8543  1.4011  0.5243
 3091TIP3    H230765   2.909   2.923  15.605 -1.1029  1.5259  0.4873
 3092TIP3   OH230766   5.683   4.371  13.370  0.0161  0.2017 -0.5131
 3092TIP3    H130767   5.699   4.303  13.304  1.5624 -0.1002  0.1382
 3092TIP3    H230768   5.600   4.411  13.343  0.4308 -0.1389 -2.4257
 3093TIP3   OH230769   3.947   5.007   3.509 -0.2152  0.0893  0.0878
 3093TIP3    H130770   3.871   5.039   3.460 -0.4368 -0.3597  0.1359
 3093TIP3    H230771   3.921   5.013   3.601  0.6484  2.1083  0.2551
 3094TIP3   OH230772   5.293   0.355  16.611 -0.1246  0.3740  0.2323
 3094TIP3    H130773   5.282   0.428  16.672 -2.9241 -0.5409  0.9806
 3094TIP3    H230774   5.251   0.385  16.530  2.3855  1.0727 -0.8855
 3095TIP3   OH230775   2.774   1.352   1.489 -0.6237 -0.2080  0.2791
 3095TIP3    H130776   2.709   1.394   1.433 -0.7212 -0.1969  0.4001
 3095TIP3    H230777   2.753   1.382   1.578 -0.0168  0.3672  0.2393
 3096TIP3   OH230778   0.797   6.668   4.127  0.4162  0.1629 -0.2279
 3096TIP3    H130779   0.844   6.656   4.044 -2.2985 -0.8965 -1.7602
 3096TIP3    H230780   0.733   6.737   4.108 -2.3421 -2.1929 -0.1294
 3097TIP3   OH230781   4.904   2.006  13.167  0.2235 -0.3780 -0.0215
 3097TIP3    H130782   4.940   2.064  13.099 -1.3930 -0.8202 -1.3157
 3097TIP3    H230783   4.924   1.918  13.136 -1.1221 -0.6030 -0.2911
 3098TIP3   OH230784   6.224   6.558   3.281  0.0578 -0.2202  0.1930
 3098TIP3    H130785   6.160   6.486   3.286  1.6804 -1.6460  1.6369
 3098TIP3    H230786   6.304   6.517   3.249  1.2155  0.7687  1.6810
 3099TIP3   OH230787   6.812   2.624  11.571  0.5662  0.7277 -0.6081
 3099TIP3    H130788   6.794   2.564  11.499 -2.7475 -0.7467  1.2359
 3099TIP3    H230789   6.877   2.578  11.624 -0.2750 -0.2403 -0.3898
 3100TIP3   OH230790   4.016   5.500   5.515 -0.4946 -0.2036  0.3353
 3100TIP3    H130791   4.094   5.448   5.498 -0.1873  0.0748  0.8460
 3100TIP3    H230792   4.038   5.588   5.483  0.5173  0.6250  2.9484
 3101TIP3   OH230793   2.223   6.584  12.804  0.6042  0.0755  0.4087
 3101TIP3    H130794   2.201   6.511  12.746  1.6214  0.6592 -0.7650
 3101TIP3    H230795   2.138   6.614  12.838  0.1781 -1.6572  0.9616
 3102TIP3   OH230796   3.149   0.502   1.492 -0.0898 -0.5040  1.0384
 3102TIP3    H130797   3.173   0.465   1.407  0.7212  1.8713  0.1348
 3102TIP3    H230798   3.233   0.522   1.534 -0.4885 -0.7750  1.9856
 3103TIP3   OH230799   3.642   3.362  14.556  0.2990  0.2255 -0.3736
 3103TIP3    H130800   3.641   3.306  14.634  0.4881  0.7466  0.0038
 3103TIP3    H230801   3.643   3.451  14.590  0.7744  0.4538 -0.9759
 3104TIP3   OH230802   6.789   6.768   4.879 -0.3251 -0.6438  0.1051
 3104TIP3    H130803   6.813   6.837   4.941 -2.1120 -0.2578  0.4414
 3104TIP3    H230804   6.708   6.731   4.915 -1.7424 -0.0398 -2.2257
 3105TIP3   OH230805   0.867   5.996   5.242  0.1498  0.1802 -0.0399
 3105TIP3    H130806   0.878   6.072   5.184  1.8724 -0.8408 -1.1596
 3105TIP3    H230807   0.922   6.017   5.318  2.0851 -0.6021 -1.1302
 3106TIP3   OH230808   2.380   0.280  13.752 -0.4576 -0.4722  0.6440
 3106TIP3    H130809   2.369   0.294  13.846 -0.5281 -1.6545  0.8350
 3106TIP3    H230810   2.316   0.213  13.730  1.1772 -1.9974  0.2713
 3107TIP3   OH230811   1.881   0.820   0.480 -0.5111 -0.1784  0.0810
 3107TIP3    H130812   1.921   0.749   0.430 -2.7483 -1.5536  0.0756
 3107TIP3    H230813   1.888   0.792   0.571 -0.4115  0.1589  0.1797
 3108TIP3   OH230814   3.930   3.347   2.543 -0.8764 -0.4684 -0.6681
 3108TIP3    H130815   3.845   3.329   2.582 -1.3200  1.8067 -0.4605
 3108TIP3    H230816   3.982   3.385   2.614 -0.7653  1.0979 -1.5404
 3109TIP3   OH230817   4.592   1.459   3.059 -0.1608 -0.2182  0.2105
 3109TIP3    H130818   4.617   1.528   3.121 -0.2889  0.5122 -0.5349
 3109TIP3    H230819   4.543   1.504   2.991 -1.4978 -1.2791  0.4377
 3110TIP3   OH230820   6.196   0.944  11.928 -0.4559 -0.0312  0.1870
 3110TIP3    H130821   6.241   0.864  11.903 -0.9785 -0.8706  1.8009
 3110TIP3    H230822   6.142   0.919  12.003  0.3111  2.0903  1.5357
 3111TIP3   OH230823   2.514   0.391  16.742  0.3195 -0.0316  0.0185
 3111TIP3    H130824   2.579   0.440  16.793  1.2787 -0.0670 -1.1423
 3111TIP3    H230825   2.564   0.321  16.700 -0.3810  0.2541 -1.3196
 3112TIP3   OH230826   0.014   2.216  13.110 -0.6078 -0.3944  0.1157
 3112TIP3    H130827   0.105   2.207  13.137  0.7111  4.7168 -1.3681
 3112TIP3    H230828  -0.032   2.244  13.190 -0.3375 -0.7256  0.3889
 3113TIP3   OH230829   6.344   2.061   3.766  0.5415 -0.0379  0.5220
 3113TIP3    H130830   6.435   2.055   3.794  0.6101 -1.2950  0.0654
 3113TIP3    H230831   6.347   2.110   3.684  0.7424  0.3616  0.7645
 3114TIP3   OH230832   0.450   4.651  15.622 -0.4859 -0.1516 -0.3154
 3114TIP3    H130833   0.404   4.567  15.618  0.4580 -0.6554 -3.6833
 3114TIP3    H230834   0.532   4.632  15.667 -0.7583 -0.7560 -0.0658
 3115TIP3   OH230835   5.740   6.433   3.851 -0.2939 -0.3031 -0.0354
 3115TIP3    H130836   5.734   6.352   3.901 -0.5734 -0.3458 -0.1391
 3115TIP3    H230837   5.757   6.501   3.917 -0.2033 -0.4235  0.0655
 3116TIP3   OH230838   3.563   5.700   0.293  1.0380  0.1591 -0.1833
 3116TIP3    H130839   3.488   5.759   0.283  1.6301  0.7734 -1.1446
 3116TIP3    H230840   3.535   5.638   0.360  0.5018  1.7114  1.1218
 3117TIP3   OH230841   1.006   0.402   5.906  0.6977  0.7588 -0.0847
 3117TIP3    H130842   1.051   0.464   5.850  1.2062  0.4876  0.0188
 3117TIP3    H230843   1.054   0.320   5.895  1.6624  1.0152  1.7515
 3118TIP3   OH230844   3.107   1.569   3.097 -0.0670 -0.3728  0.1238
 3118TIP3    H130845   3.072   1.609   3.018 -0.3306 -0.0526  0.4021
 3118TIP3    H230846   3.118   1.476   3.075  0.3862 -0.1844 -0.4662
 3119TIP3   OH230847   1.580   4.870   1.993 -0.3428 -0.0101  0.0593
 3119TIP3    H130848   1.590   4.895   2.085 -0.7480 -0.5408  0.2522
 3119TIP3    H230849   1.526   4.939   1.955 -0.0699  0.2774  0.1854
 3120TIP3   OH230850   2.509   2.521   6.269  0.1085 -0.8829 -0.3266
 3120TIP3    H130851   2.588   2.515   6.324 -0.5303 -1.6206  0.5321
 3120TIP3    H230852   2.446   2.462   6.310 -1.4049  0.7587 -0.1537
 3121TIP3   OH230853   3.339   3.264   1.743 -0.4288  0.3851 -0.2894
 3121TIP3    H130854   3.395   3.186   1.754  2.7449  1.9679 -3.1814
 3121TIP3    H230855   3.320   3.292   1.832 -0.5659 -2.8571  0.8589
 3122TIP3   OH230856   4.750   3.661  12.121  0.4591  0.2544 -0.2274
 3122TIP3    H130857   4.663   3.681  12.155  0.2132 -0.0625 -0.6660
 3122TIP3    H230858   4.734   3.625  12.034  0.8581 -1.9124  0.5244
 3123TIP3   OH230859   0.951   5.406   2.407  0.4992 -0.1948  0.5946
 3123TIP3    H130860   0.945   5.466   2.481  2.3436  1.0341 -0.1678
 3123TIP3    H230861   0.958   5.463   2.331  1.8805 -1.3690 -0.2010
 3124TIP3   OH230862   5.720   4.984  13.270 -0.4152 -0.0454  0.5842
 3124TIP3    H130863   5.661   5.009  13.341 -1.2030  2.4172 -0.8327
 3124TIP3    H230864   5.663   4.946  13.203 -0.4440  2.0807 -0.6738
 3125TIP3   OH230865   5.360   5.493   2.316 -0.5059 -0.0725 -0.0339
 3125TIP3    H130866   5.451   5.522   2.323 -0.1906 -1.3572  1.8939
 3125TIP3    H230867   5.356   5.415   2.370 -2.8289  0.0928  0.1136
 3126TIP3   OH230868   1.014   1.038   2.202 -0.4085  0.2450  0.1186
 3126TIP3    H130869   1.029   1.132   2.199  2.4222 -0.1287 -0.6944
 3126TIP3    H230870   0.988   1.015   2.112 -0.3841  0.1777  0.1280
 3127TIP3   OH230871   6.632   2.157   0.405 -0.4646  0.6145 -0.5510
 3127TIP3    H130872   6.715   2.192   0.373  0.9708 -3.4046 -1.7421
 3127TIP3    H230873   6.566   2.195   0.346  1.1063  0.3976 -2.5792
 3128TIP3   OH230874   1.315   1.149  13.399  0.2955  0.0150  0.1696
 3128TIP3    H130875   1.376   1.094  13.448  0.9205 -0.3340 -0.9643
 3128TIP3    H230876   1.302   1.102  13.317  1.4598  1.8879 -1.1646
 3129TIP3   OH230877   5.457   3.976  12.916 -0.2930  0.3008 -0.0021
 3129TIP3    H130878   5.477   3.911  12.983  1.7239  0.4800 -0.3667
 3129TIP3    H230879   5.430   4.054  12.964  0.0998  0.0906  0.5673
 3130TIP3   OH230880   1.592   4.697  12.941 -0.3920 -0.5544 -0.2473
 3130TIP3    H130881   1.529   4.768  12.926  0.7089  0.4661 -0.1913
 3130TIP3    H230882   1.538   4.618  12.948 -1.5528  0.0857 -1.5228
 3131TIP3   OH230883   0.820   3.527  13.191 -0.1203 -0.4204 -0.6149
 3131TIP3    H130884   0.882   3.577  13.138  0.6069  0.1792  0.7787
 3131TIP3    H230885   0.865   3.509  13.273 -0.9015 -2.1288 -0.5082
 3132TIP3   OH230886   5.261   4.343  13.068  0.2315 -0.1601  0.4219
 3132TIP3    H130887   5.220   4.423  13.036  1.3613 -0.2255 -1.2795
 3132TIP3    H230888   5.188   4.282  13.079 -0.2728 -0.0246 -1.7514
 3133TIP3   OH230889   3.228   1.102   2.939 -0.4252  0.2404 -0.3057
 3133TIP3    H130890   3.247   1.009   2.927 -2.5957 -0.2732 -0.2113
 3133TIP3    H230891   3.255   1.121   3.029  0.4295 -0.1624 -0.4662
 3134TIP3   OH230892   5.002   3.535   3.135  0.2734 -0.0343  0.1264
 3134TIP3    H130893   4.968   3.587   3.208  0.8602 -1.2989  1.3525
 3134TIP3    H230894   4.984   3.444   3.160 -1.0151 -0.4709 -2.1031
 3135TIP3   OH230895   2.571   2.875   0.241  0.0888  0.0042 -0.6420
 3135TIP3    H130896   2.623   2.798   0.267 -0.1486  0.1063  0.1567
 3135TIP3    H230897   2.587   2.938   0.310 -0.9311  0.1220 -0.5078
 3136TIP3   OH230898   6.533   6.426   1.404  0.4653 -0.1659 -0.0807
 3136TIP3    H130899   6.524   6.397   1.494 -0.3279 -0.4879 -0.2547
 3136TIP3    H230900   6.559   6.347   1.355  0.0119 -0.1990 -0.2735
 3137TIP3   OH230901   1.099   1.978  17.176  0.4252  0.0368  0.4218
 3137TIP3    H130902   1.064   1.929  17.251  1.3218 -0.1754  0.7073
 3137TIP3    H230903   1.034   1.965  17.107 -1.4304  1.8456  1.7037
 3138TIP3   OH230904   6.312   5.724   3.966  0.1797  0.1151  0.7373
 3138TIP3    H130905   6.264   5.675   4.033 -0.4035  2.6339  2.2802
 3138TIP3    H230906   6.265   5.807   3.958  2.3090  1.3205 -0.1737
 3139TIP3   OH230907   5.748   4.472  16.386  0.3986  0.0170 -0.0196
 3139TIP3    H130908   5.826   4.478  16.330  1.0456  2.7667  1.0098
 3139TIP3    H230909   5.688   4.538  16.350  0.4126  1.0965  1.7917
 3140TIP3   OH230910   2.754   6.104   5.184 -0.1118  0.0075  0.0599
 3140TIP3    H130911   2.805   6.058   5.251  1.6905 -0.1445 -1.3467
 3140TIP3    H230912   2.683   6.145   5.233  1.4956  0.4536  2.1745
 3141TIP3   OH230913   6.356   3.100  15.710  0.1169 -0.4626  0.0333
 3141TIP3    H130914   6.300   3.053  15.772 -0.8870  0.1882 -0.3503
 3141TIP3    H230915   6.314   3.086  15.625  1.1328 -0.8278 -0.4229
 3142TIP3   OH230916   2.915   6.686  16.357 -0.7116 -0.0432  0.0680
 3142TIP3    H130917   2.977   6.614  16.357 -1.3642 -0.6470 -1.4304
 3142TIP3    H230918   2.953   6.751  16.298 -0.0066  0.9755  1.6007
 3143TIP3   OH230919   3.260   2.761   3.168 -0.3630  0.1281 -0.2762
 3143TIP3    H130920   3.332   2.824   3.165  0.6515 -0.9007  0.9878
 3143TIP3    H230921   3.184   2.812   3.195  0.2382  0.9713 -0.1236
 3144TIP3   OH230922   1.583   4.951  12.603 -0.5052  0.5371  0.2682
 3144TIP3    H130923   1.592   5.001  12.522 -1.4483  1.6508  0.8091
 3144TIP3    H230924   1.646   4.880  12.595 -0.9352  0.3345 -1.6445
 3145TIP3   OH230925   3.200   4.619  14.503 -0.5757  0.0037  0.2194
 3145TIP3    H130926   3.192   4.624  14.407  0.2347  1.4072  0.2028
 3145TIP3    H230927   3.269   4.553  14.517  0.9083  1.3769 -0.2803
 3146TIP3   OH230928   4.583   5.026  16.486  0.0589 -0.3689 -0.4544
 3146TIP3    H130929   4.636   5.037  16.565  0.7454  1.2608 -1.1056
 3146TIP3    H230930   4.562   5.115  16.458 -3.9309 -0.8684  0.2949
 3147TIP3   OH230931   5.194   1.305  15.801  0.0298 -0.4785 -0.0546
 3147TIP3    H130932   5.104   1.278  15.783 -0.0421 -0.9058  0.8863
 3147TIP3    H230933   5.193   1.400  15.798 -0.1115 -0.4982 -1.5867
 3148TIP3   OH230934   5.763   1.804   0.155 -0.2062 -0.1087 -0.2464
 3148TIP3    H130935   5.832   1.759   0.203  0.1222  0.4474 -0.1882
 3148TIP3    H230936   5.682   1.768   0.190  0.0403 -0.2208  0.2167
 3149TIP3   OH230937   2.236   6.216  15.005  0.0172 -0.0963  0.0467
 3149TIP3    H130938   2.155   6.175  14.978  1.0835 -1.2823 -1.4944
 3149TIP3    H230939   2.304   6.151  14.987  1.4224  1.2103  0.3748
 3150TIP3   OH230940   1.423   1.077  12.593  0.5505 -0.2930 -0.3646
 3150TIP3    H130941   1.429   1.071  12.498 -0.1785  0.2592 -0.4594
 3150TIP3    H230942   1.401   1.169  12.609 -0.8278 -0.6989  0.2417
 3151TIP3   OH230943   4.965   3.450   2.330 -0.2422  0.4791 -0.7372
 3151TIP3    H130944   4.903   3.378   2.326  1.4454 -1.0521 -0.4632
 3151TIP3    H230945   4.923   3.515   2.385 -1.2563 -0.8604  0.1268
 3152TIP3   OH230946   0.469   4.762  12.954 -0.2760  0.3481 -0.6327
 3152TIP3    H130947   0.470   4.682  12.900 -1.5934 -0.0914 -0.0367
 3152TIP3    H230948   0.556   4.764  12.994 -0.2818 -0.9112 -0.5034
 3153TIP3   OH230949   4.952   0.734   3.888 -0.0552  0.4153  0.7711
 3153TIP3    H130950   4.916   0.777   3.966  0.2864  0.0059  1.1572
 3153TIP3    H230951   4.903   0.653   3.880 -1.4522  1.3391 -0.5850
 3154TIP3   OH230952   6.005   2.666   5.394  0.0615  1.2918  0.4379
 3154TIP3    H130953   6.019   2.651   5.300 -0.5602  1.2147  0.3507
 3154TIP3    H230954   5.942   2.598   5.420 -1.5063  2.6633  0.4074
 3155TIP3   OH230955   5.366   5.639   2.634 -0.5997  1.2236  0.2071
 3155TIP3    H130956   5.366   5.669   2.725  0.2648 -1.3200  1.1164
 3155TIP3    H230957   5.457   5.648   2.605 -0.8075  1.7058 -0.3291
 3156TIP3   OH230958   3.235   3.650   2.938  0.5689 -0.0047 -0.3228
 3156TIP3    H130959   3.304   3.716   2.930  0.3215  0.3394  0.3701
 3156TIP3    H230960   3.209   3.632   2.847  0.9731  0.4880 -0.5421
 3157TIP3   OH230961   0.255   2.441   4.109 -0.6446 -0.7507 -0.0164
 3157TIP3    H130962   0.229   2.529   4.081 -0.5019 -0.3667  1.0196
 3157TIP3    H230963   0.209   2.427   4.192 -0.0514 -1.3389  0.2266
 3158TIP3   OH230964   3.241   2.449  13.369 -0.0222  0.3347 -0.0005
 3158TIP3    H130965   3.277   2.519  13.423 -0.8576  1.4947 -0.8965
 3158TIP3    H230966   3.153   2.479  13.346 -0.2657 -0.8428 -0.6970
 3159TIP3   OH230967   3.654   5.548   0.840 -0.3320  0.0906 -0.3348
 3159TIP3    H130968   3.728   5.536   0.898 -0.1055  1.7670 -0.2466
 3159TIP3    H230969   3.676   5.497   0.762  1.6376  1.7472 -0.9273
 3160TIP3   OH230970   4.073   2.181   5.749  0.3606  0.0444 -0.1484
 3160TIP3    H130971   4.097   2.197   5.840 -0.0251  0.8510 -0.1745
 3160TIP3    H230972   4.006   2.112   5.753 -1.1660  1.4787  0.3814
 3161TIP3   OH230973   6.119   1.382   4.617 -0.1705 -0.0974  0.0320
 3161TIP3    H130974   6.024   1.381   4.625 -0.0571 -1.2743  1.8089
 3161TIP3    H230975   6.137   1.339   4.534 -1.1896 -0.3216 -0.0816
 3162TIP3   OH230976   1.168   1.183   1.990 -0.4322 -0.2881  0.2327
 3162TIP3    H130977   1.225   1.137   1.927 -0.3923 -0.5604  0.4658
 3162TIP3    H230978   1.223   1.193   2.068 -0.8068 -0.8453  0.5761
 3163TIP3   OH230979   1.660   5.938  15.037 -0.4129  0.1173 -0.2683
 3163TIP3    H130980   1.600   5.943  14.963 -0.5068 -0.5581 -0.2479
 3163TIP3    H230981   1.628   6.002  15.100 -1.2021 -0.3340 -0.2031
 3164TIP3   OH230982   0.694   6.223   5.029 -0.5200 -0.3718 -0.1563
 3164TIP3    H130983   0.600   6.235   5.046 -0.6826 -2.7543  1.0033
 3164TIP3    H230984   0.737   6.275   5.097 -0.9696  0.2341 -0.3156
 3165TIP3   OH230985   3.512   4.169   0.651 -0.5333 -0.1270 -0.3771
 3165TIP3    H130986   3.584   4.145   0.709 -1.2416  0.8047  0.9243
 3165TIP3    H230987   3.449   4.097   0.661 -0.7169  0.1010  0.1246
 3166TIP3   OH230988   2.310   4.049  14.068 -0.0643 -0.2946 -0.1661
 3166TIP3    H130989   2.357   4.131  14.058 -0.2716 -0.2520 -0.8484
 3166TIP3    H230990   2.241   4.052  14.001  0.1202 -1.1513 -0.4149
 3167TIP3   OH230991   4.641   2.339   0.193 -0.8285 -0.4765 -0.2424
 3167TIP3    H130992   4.633   2.278   0.120 -0.1288  1.6263 -2.2089
 3167TIP3    H230993   4.690   2.291   0.259 -0.0182 -1.9530 -1.8204
 3168TIP3   OH230994   5.814   5.737   5.039  0.0293  0.5220  0.0772
 3168TIP3    H130995   5.750   5.725   5.109  0.4970 -0.4089  0.3632
 3168TIP3    H230996   5.860   5.817   5.062 -1.0938  1.2793 -0.2003
 3169TIP3   OH230997   6.753   1.808   3.831  0.8581  0.0799  0.3597
 3169TIP3    H130998   6.785   1.797   3.921  1.1101  1.6559  0.4966
 3169TIP3    H230999   6.780   1.728   3.786  0.1459 -1.0450  1.8417
 3170TIP3   OH231000   1.786   1.794   3.541  0.0006  0.4527  0.1108
 3170TIP3    H131001   1.764   1.836   3.625 -2.4176 -0.2030 -0.1033
 3170TIP3    H231002   1.821   1.709   3.566  0.4574  0.7423  0.4734
 3171TIP3   OH231003   6.685   5.475  14.255  0.2132  0.1982 -0.4739
 3171TIP3    H131004   6.770   5.432  14.250  0.4674  0.7657 -1.1566
 3171TIP3    H231005   6.622   5.403  14.265  0.4510 -0.5140 -3.2910
 3172TIP3   OH231006   2.953   4.720   6.013 -0.2413 -0.6604  0.5562
 3172TIP3    H131007   2.936   4.791   6.076 -0.6137 -0.0587 -0.2128
 3172TIP3    H231008   2.927   4.641   6.060 -0.9280 -0.1790  1.0188
 3173TIP3   OH231009   0.274   0.220   4.785  0.0584 -0.2322  0.2209
 3173TIP3    H131010   0.305   0.141   4.743 -1.5354 -1.0421  0.4893
 3173TIP3    H231011   0.222   0.190   4.860 -0.9201  1.0247  0.1012
 3174TIP3   OH231012   2.321   6.731   3.899 -0.6037 -0.0802  0.1919
 3174TIP3    H131013   2.249   6.669   3.895  0.9910 -2.0807  0.6045
 3174TIP3    H231014   2.379   6.696   3.967  2.3523 -0.4172 -2.3007
 3175TIP3   OH231015   0.795   3.235  14.777 -0.2647 -0.0543  0.2147
 3175TIP3    H131016   0.869   3.288  14.807  0.0980 -1.3016  1.6311
 3175TIP3    H231017   0.785   3.168  14.844 -1.5995 -0.9493 -0.8326
 3176TIP3   OH231018   5.635   3.777  10.694  0.3237  0.1737  0.2224
 3176TIP3    H131019   5.611   3.686  10.713 -0.1817  0.6205  1.8846
 3176TIP3    H231020   5.712   3.769  10.637 -0.2580 -1.2828 -0.4208
 3177TIP3   OH231021   5.384   3.354  13.242  0.6890  0.0704 -0.1187
 3177TIP3    H131022   5.436   3.274  13.235  1.0108  0.2881 -0.2435
 3177TIP3    H231023   5.363   3.362  13.335  0.0104 -0.5631 -0.2058
 3178TIP3   OH231024   1.104   4.805   0.577 -0.3286 -0.0586 -0.0128
 3178TIP3    H131025   1.015   4.770   0.575  0.2953 -1.6847 -0.4130
 3178TIP3    H231026   1.158   4.738   0.535  1.1177  0.8384  0.3286
 3179TIP3   OH231027   1.608   3.731  13.317  0.5455  0.2979  0.2052
 3179TIP3    H131028   1.619   3.638  13.295 -0.7864  0.4192 -1.0604
 3179TIP3    H231029   1.603   3.731  13.413  0.1840 -0.9900  0.2131
 3180TIP3   OH231030   3.756   3.039   1.115 -0.6223  0.2774 -0.1032
 3180TIP3    H131031   3.778   3.095   1.189  0.4888  1.3152 -1.1714
 3180TIP3    H231032   3.826   2.974   1.112  0.1096  1.0880 -1.0551
 3181TIP3   OH231033   4.912   6.224  16.079  0.3590 -0.2388  0.2412
 3181TIP3    H131034   4.867   6.176  16.009  0.0537  0.7738 -0.2722
 3181TIP3    H231035   4.992   6.173  16.095  0.1373 -0.8108 -0.4139
 3182TIP3   OH231036   3.279   4.962   4.437 -0.3125 -0.4535  0.1708
 3182TIP3    H131037   3.288   4.867   4.434  0.2727 -0.4012  0.1671
 3182TIP3    H231038   3.367   4.994   4.452 -0.2091  0.1555 -1.4877
 3183TIP3   OH231039   1.900   1.503  14.616  0.3031 -0.0413  0.5219
 3183TIP3    H131040   1.843   1.557  14.670  1.6577  0.0075  1.9969
 3183TIP3    H231041   1.845   1.475  14.543 -1.2240  0.9965  1.2160
 3184TIP3   OH231042   6.430   4.970   5.483  0.1665 -0.4356 -0.5060
 3184TIP3    H131043   6.405   4.900   5.544 -3.1940 -0.2931 -1.5275
 3184TIP3    H231044   6.452   5.044   5.539 -2.1179 -0.5357  0.6496
 3185TIP3   OH231045   3.052   4.344   4.651 -0.6093  0.2601  0.1008
 3185TIP3    H131046   3.056   4.253   4.619  2.2684  1.0242 -2.1301
 3185TIP3    H231047   2.989   4.341   4.723 -0.5145 -3.5245  0.2430
 3186TIP3   OH231048   2.113   1.760   6.251  0.1397  0.1537 -0.1957
 3186TIP3    H131049   2.192   1.712   6.275 -0.6416 -1.7342 -1.1340
 3186TIP3    H231050   2.087   1.723   6.167 -2.0534  0.2763  0.3578
 3187TIP3   OH231051   3.746   0.765  12.401 -0.3342  0.4735 -0.2741
 3187TIP3    H131052   3.720   0.747  12.311  0.2761  1.0010 -0.5554
 3187TIP3    H231053   3.664   0.756  12.451 -0.6300 -0.0412 -0.8405
 3188TIP3   OH231054   1.768   3.256  14.227  0.2562 -0.0556 -0.6405
 3188TIP3    H131055   1.676   3.232  14.218 -0.7434  2.4252  1.5476
 3188TIP3    H231056   1.788   3.245  14.320  1.8284  0.4853 -0.8701
 3189TIP3   OH231057   2.354   0.015  11.866  0.3294 -0.2050  0.1588
 3189TIP3    H131058   2.273  -0.025  11.899 -0.3389  0.3070 -0.7686
 3189TIP3    H231059   2.398  -0.056  11.819 -1.6244  0.3509 -2.8582
 3190TIP3   OH231060   3.661   0.553  17.085 -0.5655  0.1815 -0.5765
 3190TIP3    H131061   3.746   0.539  17.127 -0.9627 -0.1366  0.1219
 3190TIP3    H231062   3.645   0.472  17.037 -2.6809 -1.8321  3.1480
 3191TIP3   OH231063   1.801   0.851   4.564 -0.3518 -0.0003 -0.3665
 3191TIP3    H131064   1.837   0.767   4.533 -0.3366  0.2222 -0.9670
 3191TIP3    H231065   1.878   0.905   4.583 -0.3406 -0.4798  1.0715
 3192TIP3   OH231066   0.331   0.364   1.030  0.3056  0.0989 -0.2001
 3192TIP3    H131067   0.336   0.458   1.009 -0.5208  0.4926  1.1710
 3192TIP3    H231068   0.292   0.324   0.953 -0.3851  1.0733 -0.3868
 3193TIP3   OH231069   0.754   2.460   1.856 -0.4853  0.1588 -0.0704
 3193TIP3    H131070   0.705   2.542   1.843 -2.0524 -0.4879  1.2605
 3193TIP3    H231071   0.794   2.470   1.943  1.2217  0.3928 -0.8589
 3194TIP3   OH231072   0.051   4.877  16.935  0.0349 -0.1286 -0.3593
 3194TIP3    H131073   0.015   4.916  17.015  1.6063 -2.2261  1.4895
 3194TIP3    H231074  -0.022   4.825  16.900  0.0589 -1.2977  1.2221
 3195TIP3   OH231075   5.689   1.516  15.169 -0.5848 -0.2536  0.0224
 3195TIP3    H131076   5.766   1.568  15.191  0.2007 -1.3453 -0.0612
 3195TIP3    H231077   5.655   1.556  15.089 -0.8866  1.0321  0.7617
 3196TIP3   OH231078   0.396   4.835   0.560  0.6520  0.1134 -0.3567
 3196TIP3    H131079   0.424   4.765   0.501  0.2772 -0.8988  0.6280
 3196TIP3    H231080   0.403   4.797   0.647  0.3151  1.2697  0.1972
 3197TIP3   OH231081   3.791   4.650   0.141 -0.1882  0.4994 -0.0118
 3197TIP3    H131082   3.856   4.633   0.074 -1.9845 -0.2994 -1.6442
 3197TIP3    H231083   3.710   4.666   0.093 -1.0324  2.4688  1.8898
 3198TIP3   OH231084   4.879   5.450  14.842 -0.5008 -0.4095  0.5722
 3198TIP3    H131085   4.864   5.427  14.934  1.6298 -1.0612  0.8101
 3198TIP3    H231086   4.950   5.514  14.845  0.2199 -1.1130 -0.6650
 3199TIP3   OH231087   1.691   4.952  15.358 -0.0826 -0.3601 -0.6059
 3199TIP3    H131088   1.719   4.898  15.432  0.2900  0.4156 -0.1668
 3199TIP3    H231089   1.595   4.954  15.365 -0.0231  0.2567  0.2725
 3200TIP3   OH231090   2.160   5.121  12.089  0.7120 -0.2505 -0.6456
 3200TIP3    H131091   2.138   5.211  12.064  0.7596 -0.0007  0.1904
 3200TIP3    H231092   2.152   5.119  12.184  1.7079 -0.8600 -0.5535
 3201TIP3   OH231093   5.304   2.119  11.552 -0.4690 -0.3329  0.1685
 3201TIP3    H131094   5.231   2.060  11.532  0.4590 -1.4175 -0.1400
 3201TIP3    H231095   5.373   2.092  11.492 -0.3126  1.7062 -0.6222
 3202TIP3   OH231096   6.353   2.028   5.065  0.0993 -0.5042  0.1483
 3202TIP3    H131097   6.359   2.101   5.128  0.0002 -0.9674  0.6988
 3202TIP3    H231098   6.342   1.950   5.120 -0.3231 -0.8765 -0.4567
 3203TIP3   OH231099   6.593   5.767   1.783 -0.1542  0.4277  0.2498
 3203TIP3    H131100   6.671   5.762   1.728  0.5034  1.4430  1.0762
 3203TIP3    H231101   6.532   5.705   1.742  1.4428 -1.2347  0.2304
 3204TIP3   OH231102   0.808   6.742  15.187 -0.1470  0.8718  0.7222
 3204TIP3    H131103   0.717   6.713  15.179 -0.0150 -0.8892  3.9264
 3204TIP3    H231104   0.818   6.764  15.279  2.7765  0.6281  0.5520
 3205TIP3   OH231105   3.960   5.865  12.425  0.7878  0.2330  0.1031
 3205TIP3    H131106   3.908   5.930  12.378 -0.4313 -0.3561  0.5884
 3205TIP3    H231107   4.049   5.880  12.395  0.2415  0.7708 -1.3458
 3206TIP3   OH231108   4.874   1.636   2.287  0.4604  0.9769 -0.4314
 3206TIP3    H131109   4.794   1.624   2.338  0.4448 -1.4745 -0.9089
 3206TIP3    H231110   4.928   1.695   2.340 -0.2297 -0.1510  1.6182
 3207TIP3   OH231111   4.615   0.841   1.611  0.2425 -0.1794  0.4743
 3207TIP3    H131112   4.597   0.932   1.635  0.7957  0.4639 -1.3820
 3207TIP3    H231113   4.548   0.819   1.547  1.8310 -0.0188 -1.3552
 3208TIP3   OH231114   0.892   3.676   1.398  0.1459  0.0283 -0.0787
 3208TIP3    H131115   0.969   3.628   1.426 -0.2578 -0.9980 -0.6892
 3208TIP3    H231116   0.837   3.682   1.476  0.8105  0.7262  0.3446
 3209TIP3   OH231117   2.090   2.210  11.846 -0.3248 -0.9336  0.1959
 3209TIP3    H131118   2.043   2.174  11.921  1.4710 -1.1494  1.2798
 3209TIP3    H231119   2.181   2.186  11.861 -0.0351 -2.1115 -2.7186
 3210TIP3   OH231120   0.378   3.673   1.606 -0.3342 -0.2348  0.0551
 3210TIP3    H131121   0.408   3.758   1.575 -0.6638 -0.2042 -0.1778
 3210TIP3    H231122   0.409   3.610   1.541  1.4898 -0.5232  1.1427
 3211TIP3   OH231123   3.086   4.542   1.694 -0.0450  0.8868  0.5328
 3211TIP3    H131124   3.113   4.473   1.632 -0.4145  0.4212  0.8814
 3211TIP3    H231125   3.018   4.590   1.647  0.3185  1.1138  0.2288
 3212TIP3   OH231126   6.086   0.761   2.080 -0.0103  0.2677  0.5815
 3212TIP3    H131127   6.162   0.811   2.111  0.3061  0.5785 -0.6374
 3212TIP3    H231128   6.124   0.684   2.036 -0.4313 -0.0213  0.7164
 3213TIP3   OH231129   5.264   2.124  12.447 -0.1018  0.5822 -0.7025
 3213TIP3    H131130   5.179   2.162  12.471  0.5105  1.9385 -0.5855
 3213TIP3    H231131   5.275   2.147  12.354  0.9166  2.0235 -0.2665
 3214TIP3   OH231132   3.143   5.874  13.535  0.2194 -0.5626  0.0598
 3214TIP3    H131133   3.151   5.856  13.629  2.6052 -1.9387 -0.3257
 3214TIP3    H231134   3.097   5.797  13.500  1.9736 -1.5184 -0.2580
 3215TIP3   OH231135   3.286   0.205  12.042 -0.6512  0.2043  0.1662
 3215TIP3    H131136   3.305   0.277  11.982 -0.7164  1.7971  1.9534
 3215TIP3    H231137   3.354   0.211  12.109 -0.8731 -1.1894  0.5469
 3216TIP3   OH231138   4.682   0.996  15.482 -0.0665  0.0656 -0.2124
 3216TIP3    H131139   4.674   0.903  15.461 -0.2696  0.3564 -1.5166
 3216TIP3    H231140   4.767   1.004  15.525 -0.4585 -0.8592  0.7940
 3217TIP3   OH231141   6.761   2.242   4.159 -0.3858  0.3401  0.3979
 3217TIP3    H131142   6.748   2.322   4.210  0.2476  1.5347 -1.2348
 3217TIP3    H231143   6.836   2.199   4.201 -0.1747  1.0587  0.7689
 3218TIP3   OH231144   2.803   5.208  17.184  0.2841 -0.0731 -0.5062
 3218TIP3    H131145   2.861   5.284  17.177 -0.2654  0.6091  1.5721
 3218TIP3    H231146   2.813   5.179  17.275 -0.2861 -1.8689 -0.9837
 3219TIP3   OH231147   0.503   0.759   1.496  0.9203  0.1673  0.2128
 3219TIP3    H131148   0.455   0.677   1.499 -0.9919  1.2294  0.3099
 3219TIP3    H231149   0.584   0.738   1.450  0.2196 -1.6395 -0.2654
 3220TIP3   OH231150   2.748   3.081  11.498  0.5798 -0.0792  0.0515
 3220TIP3    H131151   2.715   3.045  11.581 -0.2931 -1.4460 -0.8398
 3220TIP3    H231152   2.701   3.032  11.431 -0.2838  2.4289 -1.2822
 3221TIP3   OH231153   6.352   2.111   4.187  0.3847 -0.6148  0.0248
 3221TIP3    H131154   6.369   2.147   4.100 -2.0436 -0.4145 -0.4396
 3221TIP3    H231155   6.437   2.111   4.230  1.4066  0.5852 -1.8627
 3222TIP3   OH231156   3.679   4.955   3.652 -0.4670 -0.0148  0.1611
 3222TIP3    H131157   3.665   4.909   3.569 -2.5511 -1.7300  1.3490
 3222TIP3    H231158   3.765   4.925   3.681  0.2807  0.5757 -1.3143
 3223TIP3   OH231159   6.350   5.704  13.705  0.7163 -0.3205 -0.4997
 3223TIP3    H131160   6.390   5.619  13.687  0.4536 -0.3134 -1.1212
 3223TIP3    H231161   6.419   5.753  13.750  0.8565 -0.8684 -0.0961
 3224TIP3   OH231162   4.034   0.651   3.067  0.5189 -0.3304 -0.2988
 3224TIP3    H131163   4.101   0.710   3.032 -0.8192  0.2715 -2.0137
 3224TIP3    H231164   4.036   0.576   3.008  2.3884 -2.2265  2.0213
 3225TIP3   OH231165   3.819   3.244   3.747  0.3495  0.0739 -0.3832
 3225TIP3    H131166   3.726   3.224   3.754  0.7239 -2.0054 -0.7168
 3225TIP3    H231167   3.822   3.339   3.739 -1.6130  0.3904  1.6234
 3226TIP3   OH231168   1.164   2.679  14.934  0.1505  0.0703 -0.0164
 3226TIP3    H131169   1.070   2.669  14.920  0.0176  0.1452  0.7603
 3226TIP3    H231170   1.203   2.670  14.847 -0.5981  0.3219 -0.3831
 3227TIP3   OH231171   6.566   0.911   0.122  0.2796  0.0309  0.2102
 3227TIP3    H131172   6.483   0.915   0.170  0.1295 -1.2964  0.0997
 3227TIP3    H231173   6.546   0.952   0.037  0.3178  1.6011  0.9122
 3228TIP3   OH231174   5.232   2.701  15.576 -0.4096  0.2480 -0.0237
 3228TIP3    H131175   5.277   2.620  15.598 -0.4739  0.4698  1.0036
 3228TIP3    H231176   5.224   2.700  15.481 -1.7981 -1.6905  0.0644
 3229TIP3   OH231177   1.719   4.816  12.203 -0.5838 -0.2287 -0.4623
 3229TIP3    H131178   1.757   4.785  12.121  0.6534 -3.1931  1.0982
 3229TIP3    H231179   1.791   4.857  12.250 -0.6912 -0.7286  0.1491
 3230TIP3   OH231180   2.917   4.455   3.085 -0.6815 -0.1043 -0.6476
 3230TIP3    H131181   2.989   4.471   3.146 -1.6839  1.1643  0.2468
 3230TIP3    H231182   2.916   4.531   3.027 -2.1600  0.6079  0.2524
 3231TIP3   OH231183   1.712   5.275  15.146 -0.0573 -0.3282 -0.5880
 3231TIP3    H131184   1.638   5.316  15.101 -0.5128  1.0876  1.3238
 3231TIP3    H231185   1.691   5.182  15.147 -0.4135 -0.3107 -2.5270
 3232TIP3   OH231186   0.909   2.999  12.067 -0.3660 -0.5571  0.5489
 3232TIP3    H131187   0.848   3.069  12.042 -0.6127 -0.6099  0.9863
 3232TIP3    H231188   0.987   3.015  12.014 -0.6898 -0.3769  0.1151
 3233TIP3   OH231189   2.181   6.201   3.240 -0.3232 -0.2297  0.1488
 3233TIP3    H131190   2.274   6.181   3.249 -0.1500  0.9283  1.2178
 3233TIP3    H231191   2.158   6.170   3.153  0.0899 -4.1630  1.2470
 3234TIP3   OH231192   3.910   0.231  13.233  0.2230  0.3111 -0.1864
 3234TIP3    H131193   3.952   0.151  13.263  0.2225  0.2695 -0.2946
 3234TIP3    H231194   3.818   0.208  13.224 -0.2979  1.0645  2.4470
 3235TIP3   OH231195   4.565   3.502  11.078  0.4093  0.5325  1.0587
 3235TIP3    H131196   4.650   3.540  11.100  1.2861 -1.4606  1.3865
 3235TIP3    H231197   4.531   3.556  11.007  3.2680 -0.2146 -1.0500
 3236TIP3   OH231198   3.849   3.534  16.062 -0.2397 -0.2163 -0.4424
 3236TIP3    H131199   3.883   3.564  16.146 -0.0878 -0.2924 -0.4776
 3236TIP3    H231200   3.756   3.520  16.077 -0.1881 -0.3534 -0.2548
 3237TIP3   OH231201   1.790   4.606   5.520 -0.3218  0.4969 -0.3414
 3237TIP3    H131202   1.847   4.547   5.470 -1.2389  0.4654 -1.4173
 3237TIP3    H231203   1.759   4.552   5.593 -0.3195 -0.0361 -0.7210
 3238TIP3   OH231204   6.248   5.666   4.228 -0.3556  0.5454  0.0943
 3238TIP3    H131205   6.247   5.761   4.230 -1.5366  0.5571 -0.1023
 3238TIP3    H231206   6.193   5.640   4.302  1.0075 -0.0231  0.9468
 3239TIP3   OH231207   1.365   6.523   1.978 -0.0285 -0.8908  0.7689
 3239TIP3    H131208   1.390   6.588   2.043 -2.3448  1.8870 -0.9100
 3239TIP3    H231209   1.434   6.527   1.912 -0.6945  0.8056  0.1185
 3240TIP3   OH231210   2.128   3.311   2.886 -0.5139 -0.1398 -0.2890
 3240TIP3    H131211   2.209   3.363   2.878  0.6081 -1.8940 -0.9025
 3240TIP3    H231212   2.119   3.267   2.802 -1.9238 -0.2658 -0.0892
 3241TIP3   OH231213   1.181   3.197   4.770 -0.1403  0.3096 -0.2572
 3241TIP3    H131214   1.132   3.122   4.804 -0.7290  0.8202  0.0388
 3241TIP3    H231215   1.205   3.246   4.849 -2.2447  1.9644 -0.5915
 3242TIP3   OH231216   3.671   1.144   5.656  0.2437  0.2904  0.2726
 3242TIP3    H131217   3.705   1.055   5.666  0.2810  0.1441 -0.9484
 3242TIP3    H231218   3.578   1.136   5.676  0.1622 -0.1214 -0.2394
 3243TIP3   OH231219   1.835   5.517   3.619  0.1653 -0.3791  0.1372
 3243TIP3    H131220   1.861   5.479   3.536  0.6516 -0.1472  0.1805
 3243TIP3    H231221   1.830   5.443   3.680  0.3836 -0.4673  0.0449
 3244TIP3   OH231222   4.686   3.546  16.438 -0.4353  0.1585  0.5399
 3244TIP3    H131223   4.663   3.488  16.511 -0.5472 -1.8213 -1.0111
 3244TIP3    H231224   4.635   3.514  16.364 -0.4406  2.2222 -0.4238
 3245TIP3   OH231225   5.047   6.244  14.507 -0.0613 -0.5979  0.1261
 3245TIP3    H131226   5.013   6.310  14.446 -1.2472 -1.7031 -0.4537
 3245TIP3    H231227   5.140   6.237  14.485 -0.1151  0.2134 -0.4221
 3246TIP3   OH231228   4.563   0.174   2.043 -0.2780 -0.4160 -0.2159
 3246TIP3    H131229   4.540   0.088   2.079 -1.9581 -1.0085 -2.4159
 3246TIP3    H231230   4.488   0.230   2.065 -1.9612 -1.1146 -3.5048
 3247TIP3   OH231231   2.517   2.929  12.373  0.2625  0.2493 -0.7761
 3247TIP3    H131232   2.581   2.882  12.320  0.1854 -0.5094 -0.2076
 3247TIP3    H231233   2.533   3.021  12.353  1.3182  0.0565 -0.8790
 3248TIP3   OH231234   0.768   3.723   1.623  0.0525  0.0039 -0.5105
 3248TIP3    H131235   0.726   3.808   1.632 -1.0051 -0.4062 -1.3516
 3248TIP3    H231236   0.703   3.660   1.654  1.1629 -0.4728  1.0260
 3249TIP3   OH231237   1.224   2.875  16.883 -0.6649 -0.5799 -0.2100
 3249TIP3    H131238   1.231   2.796  16.937  1.0330 -0.0547  0.3831
 3249TIP3    H231239   1.260   2.849  16.798  1.7439  0.0177  0.5525
 3250TIP3   OH231240   3.322   1.228   1.188  0.0897  0.7088  0.7348
 3250TIP3    H131241   3.241   1.246   1.236 -0.6867  0.6163 -0.5025
 3250TIP3    H231242   3.354   1.145   1.223 -0.2682  0.8237  1.3386
 3251TIP3   OH231243   1.575   3.471   4.152 -0.2604 -0.3263  0.1004
 3251TIP3    H131244   1.486   3.480   4.186 -0.4713 -0.6585 -0.3631
 3251TIP3    H231245   1.564   3.450   4.059  0.2936 -0.8535  0.1467
 3252TIP3   OH231246   4.514   6.483   3.472  0.2419  0.4213  0.0961
 3252TIP3    H131247   4.521   6.421   3.399 -0.8204  0.5858 -0.1510
 3252TIP3    H231248   4.457   6.552   3.439  0.0701  0.6934  0.9608
 3253TIP3   OH231249   3.681   0.430  13.967  0.7545 -0.2957  0.6289
 3253TIP3    H131250   3.587   0.414  13.973  0.1812  1.3840 -2.0374
 3253TIP3    H231251   3.711   0.375  13.895  1.6227 -0.1074  0.8306
 3254TIP3   OH231252   5.132   0.385   3.517  0.1110  0.4630  0.1111
 3254TIP3    H131253   5.195   0.449   3.552  0.6629  0.7076 -1.2852
 3254TIP3    H231254   5.075   0.365   3.592  0.8457  1.4615  0.9728
 3255TIP3   OH231255   3.801   2.679  14.318 -0.2624  0.1711 -0.5689
 3255TIP3    H131256   3.891   2.672  14.348 -0.4880  0.0375  0.0921
 3255TIP3    H231257   3.753   2.613  14.369 -0.6694  0.0030 -1.1586
 3256TIP3   OH231258   3.161   0.956  14.503  0.2698 -0.4154  0.2042
 3256TIP3    H131259   3.088   0.917  14.552  0.0442  0.2369  0.3925
 3256TIP3    H231260   3.196   1.023  14.562  0.5403 -0.2127 -0.1879
 3257TIP3   OH231261   5.149   2.517  15.256  0.0396  0.1068  0.4012
 3257TIP3    H131262   5.082   2.464  15.213 -0.6919  1.1972  0.1284
 3257TIP3    H231263   5.131   2.606  15.225  2.2161  0.3153 -0.4420
 3258TIP3   OH231264   1.289   1.299  13.859 -0.1531  0.3054 -0.2338
 3258TIP3    H131265   1.318   1.207  13.858 -0.7271  0.1314 -1.0209
 3258TIP3    H231266   1.259   1.313  13.949 -0.5575 -0.4361 -0.2435
 3259TIP3   OH231267   0.022   6.560   0.585 -0.0081 -0.1563 -0.1391
 3259TIP3    H131268  -0.041   6.563   0.513 -1.0981 -0.5146  0.7692
 3259TIP3    H231269   0.028   6.650   0.616 -0.2014 -0.1431 -0.1373
 3260TIP3   OH231270   5.819   2.955  16.368  0.2719 -0.8487  0.3022
 3260TIP3    H131271   5.735   2.976  16.327 -0.2845 -1.6013  1.0179
 3260TIP3    H231272   5.876   3.028  16.345 -1.1941  0.7821  1.5355
 3261TIP3   OH231273   3.900   5.916   4.447  0.0430 -0.2711  0.2740
 3261TIP3    H131274   3.879   5.882   4.534 -0.5493  0.0926  0.2774
 3261TIP3    H231275   3.991   5.889   4.432  0.2026 -0.2005  1.0666
 3262TIP3   OH231276   5.933   2.883  11.611  0.1186 -0.2938  0.1665
 3262TIP3    H131277   6.022   2.850  11.605  0.4379  0.1472  1.8898
 3262TIP3    H231278   5.942   2.968  11.655 -1.1454 -0.2372  0.3550
 3263TIP3   OH231279   1.273   3.622  16.268  0.6181  0.4251  1.0031
 3263TIP3    H131280   1.281   3.687  16.197 -1.0493  0.6128  0.9547
 3263TIP3    H231281   1.360   3.581  16.272  0.5694 -0.1265 -1.6575
 3264TIP3   OH231282   4.607   0.280  15.799  0.5156  0.4086  0.1051
 3264TIP3    H131283   4.583   0.234  15.879  0.1855 -0.2398 -0.3597
 3264TIP3    H231284   4.547   0.355  15.795 -0.5123 -0.4139 -0.3200
 3265TIP3   OH231285   5.870   6.417   2.282 -0.2499  0.1523  0.5114
 3265TIP3    H131286   5.775   6.426   2.271 -0.4263 -1.3632  0.5985
 3265TIP3    H231287   5.906   6.427   2.194 -0.6610 -0.8824  0.2075
 3266TIP3   OH231288   0.349   4.908  15.374  0.1447  0.4707  0.2678
 3266TIP3    H131289   0.380   4.996  15.394 -0.2738  0.1433  2.6408
 3266TIP3    H231290   0.426   4.852  15.379  0.1225  0.4640  0.5860
 3267TIP3   OH231291   5.521   3.394   3.799  0.1279  0.2616  0.2568
 3267TIP3    H131292   5.614   3.399   3.822  0.4559 -0.2161 -0.8900
 3267TIP3    H231293   5.483   3.475   3.834  1.4450  1.5958 -1.2397
 3268TIP3   OH231294   4.947   1.285   0.291 -0.0080  0.2411  0.7156
 3268TIP3    H131295   4.901   1.317   0.369  0.8725 -2.8640  2.6782
 3268TIP3    H231296   4.910   1.198   0.276  1.4798 -0.1455 -0.9637
 3269TIP3   OH231297   2.382   2.144   5.161 -0.3965 -0.3636 -0.4154
 3269TIP3    H131298   2.334   2.140   5.243  1.2966 -2.1037  0.5890
 3269TIP3    H231299   2.384   2.237   5.138  2.0466  0.7679  3.4314
 3270TIP3   OH231300   0.542   2.474   4.038 -0.3813  0.3455 -0.1853
 3270TIP3    H131301   0.577   2.405   4.094 -0.3738 -0.4564 -1.1494
 3270TIP3    H231302   0.461   2.501   4.081 -0.0112  0.2585  0.5827
 3271TIP3   OH231303   3.150   3.086  16.754  0.3273  0.1148 -0.3531
 3271TIP3    H131304   3.080   3.067  16.816  0.6170  1.2620  0.3448
 3271TIP3    H231305   3.109   3.142  16.689  0.4152  0.1686 -0.3607
 3272TIP3   OH231306   3.079   6.550   2.858  0.6971  0.2708 -0.3137
 3272TIP3    H131307   3.144   6.481   2.865 -1.6369 -2.0810 -0.2231
 3272TIP3    H231308   3.023   6.524   2.784 -0.6002  1.7360  0.0883
 3273TIP3   OH231309   0.233   0.842   4.928 -0.3316 -0.4053 -0.2352
 3273TIP3    H131310   0.161   0.779   4.924  0.2389 -1.1117  0.3237
 3273TIP3    H231311   0.308   0.794   4.893  0.3011 -0.3063  0.9464
 3274TIP3   OH231312   0.275   4.828   0.227  0.3851  0.1486 -0.1466
 3274TIP3    H131313   0.197   4.784   0.192  0.3042 -2.0917  2.4932
 3274TIP3    H231314   0.348   4.775   0.197  0.7975  1.2507 -1.1704
 3275TIP3   OH231315   3.339   2.693  13.459  0.1072  0.7701 -0.4406
 3275TIP3    H131316   3.344   2.733  13.373 -0.3342  3.2639  0.5948
 3275TIP3    H231317   3.291   2.757  13.512 -0.2774 -1.0011  1.4791
 3276TIP3   OH231318   2.164   5.448  16.736 -0.3168 -0.1947 -0.1075
 3276TIP3    H131319   2.146   5.369  16.685 -0.8413 -0.7127  0.8583
 3276TIP3    H231320   2.241   5.426  16.788 -0.3404  0.0129  0.0148
 3277TIP3   OH231321   1.237   5.908  16.686 -0.7839 -0.2983  0.3059
 3277TIP3    H131322   1.165   5.892  16.626 -2.0564  1.2528  1.3426
 3277TIP3    H231323   1.239   6.003  16.697  0.2620 -0.4457  1.7041
 3278TIP3   OH231324   6.205   0.558   5.677  0.3787  0.3234  0.2774
 3278TIP3    H131325   6.201   0.480   5.734 -1.2685  0.7494  0.8133
 3278TIP3    H231326   6.296   0.562   5.648  1.0594 -0.4799  2.1118
 3279TIP3   OH231327   3.338   0.477  17.059 -0.0349  0.0551 -0.3108
 3279TIP3    H131328   3.406   0.537  17.089  1.9536 -2.6903  1.0589
 3279TIP3    H231329   3.354   0.468  16.965  0.0117  1.1932 -0.4193
 3280TIP3   OH231330   4.859   5.087  15.770  0.1050  0.1805 -0.4448
 3280TIP3    H131331   4.773   5.092  15.726  0.2510 -2.4602 -1.1789
 3280TIP3    H231332   4.911   5.154  15.726 -1.2198  1.0656 -0.7628
 3281TIP3   OH231333   3.496   4.647  13.428  0.6734 -0.6110  0.5867
 3281TIP3    H131334   3.432   4.583  13.398  0.4034  0.0072 -0.1805
 3281TIP3    H231335   3.462   4.678  13.512 -0.0888 -0.2340  0.1516
 3282TIP3   OH231336   6.181   1.574   1.058  0.3582 -0.1798  0.4912
 3282TIP3    H131337   6.156   1.664   1.035  1.9090 -0.0191 -0.7754
 3282TIP3    H231338   6.141   1.559   1.143 -1.2721  1.1307  0.0060
 3283TIP3   OH231339   4.513   5.546   0.021  0.3410  0.2322  0.4356
 3283TIP3    H131340   4.429   5.551  -0.024  0.0844  0.1209  0.8921
 3283TIP3    H231341   4.579   5.556  -0.048 -0.0497  1.3186  0.2046
 3284TIP3   OH231342   0.202   3.230   0.728  0.0574 -0.8982 -0.1246
 3284TIP3    H131343   0.190   3.254   0.636  0.4299 -1.3805 -0.3027
 3284TIP3    H231344   0.153   3.297   0.777  1.7538  0.7720 -0.5684
 3285TIP3   OH231345   1.421   5.346  14.706  0.0748  0.0171 -0.1045
 3285TIP3    H131346   1.505   5.307  14.683  1.3838  1.9908  1.0001
 3285TIP3    H231347   1.417   5.429  14.657 -0.3813  0.7935  1.1784
 3286TIP3   OH231348   1.504   3.364  14.070 -0.0524  0.3699 -0.2572
 3286TIP3    H131349   1.416   3.357  14.108 -0.6561  0.4629 -1.5678
 3286TIP3    H231350   1.502   3.445  14.020  0.7928  0.3867 -0.2770
 3287TIP3   OH231351   0.554   3.075  13.415  0.0934 -0.0297  0.0682
 3287TIP3    H131352   0.491   3.003  13.423 -0.2611  0.2198 -0.3882
 3287TIP3    H231353   0.501   3.149  13.386  0.3137  0.6402  1.3270
 3288TIP3   OH231354   2.693   5.852  12.165  0.1669 -0.1549  0.0299
 3288TIP3    H131355   2.770   5.824  12.215 -0.1730  1.3467  1.4957
 3288TIP3    H231356   2.681   5.944  12.189 -2.7276 -0.6135  0.7657
 3289TIP3   OH231357   6.066   4.470  17.054 -0.5142 -0.0840 -0.0468
 3289TIP3    H131358   6.091   4.560  17.036 -1.4962  0.4584  1.1357
 3289TIP3    H231359   5.991   4.477  17.113  0.0937 -1.6784  0.9940
 3290TIP3   OH231360   0.975   0.307   4.739  0.2840  0.1996  0.1009
 3290TIP3    H131361   1.016   0.253   4.671  0.5381  1.2150 -0.5823
 3290TIP3    H231362   0.938   0.244   4.801 -2.0840 -0.8599 -2.1933
 3291TIP3   OH231363   1.223   5.593  16.940 -0.1092  0.1188 -0.4865
 3291TIP3    H131364   1.284   5.658  16.974 -0.3912 -0.1160  0.4977
 3291TIP3    H231365   1.137   5.636  16.946 -0.4248 -0.6665  1.0932
 3292TIP3   OH231366   6.231   3.488   3.244 -0.3420  1.2761  0.0763
 3292TIP3    H131367   6.310   3.539   3.227  0.8472 -0.1298  1.1287
 3292TIP3    H231368   6.222   3.431   3.167  0.8137  0.0795  0.7974
 3293TIP3   OH231369   0.326   2.757  15.727 -0.1967 -0.2598  0.2568
 3293TIP3    H131370   0.248   2.754  15.671 -0.0434  2.1489 -0.1884
 3293TIP3    H231371   0.295   2.794  15.810  0.1773 -0.8916  0.6894
 3294TIP3   OH231372   4.383   5.912   4.380 -0.1780  0.1629 -0.5100
 3294TIP3    H131373   4.302   5.863   4.372 -0.4477  0.1445  1.7250
 3294TIP3    H231374   4.433   5.889   4.301 -2.7238  1.0380 -2.5097
 3295TIP3   OH231375   1.485   4.184   6.045  0.3712  0.0957  0.0522
 3295TIP3    H131376   1.396   4.171   6.011  0.3306  1.2361 -0.3197
 3295TIP3    H231377   1.481   4.151   6.135 -0.2876 -0.3514 -0.1347
 3296TIP3   OH231378   0.991   6.458   4.876 -0.3666 -0.2562  0.3216
 3296TIP3    H131379   0.918   6.437   4.934 -1.3860  1.6324 -0.1628
 3296TIP3    H231380   0.953   6.458   4.788  0.2579  0.5375  0.0358
 3297TIP3   OH231381   2.219   6.307   4.099 -0.2388  0.8621  0.4229
 3297TIP3    H131382   2.306   6.269   4.107 -0.8604 -0.6972  0.1132
 3297TIP3    H231383   2.193   6.326   4.189  0.4838  1.5319  0.5035
 3298TIP3   OH231384   0.296   5.491   0.867 -0.2625 -0.7301  0.6382
 3298TIP3    H131385   0.392   5.493   0.867 -0.2214 -1.7545  1.4401
 3298TIP3    H231386   0.274   5.399   0.881 -1.3880 -0.8114 -1.2748
 3299TIP3   OH231387   6.472   0.463   4.764 -0.2946 -0.9001  0.2107
 3299TIP3    H131388   6.404   0.470   4.831 -0.2102 -2.0124  0.4299
 3299TIP3    H231389   6.430   0.416   4.692 -0.6832  1.1265 -0.9470
 3300TIP3   OH231390   1.938   1.440  15.268 -0.2003  0.3583 -0.1346
 3300TIP3    H131391   1.997   1.427  15.342 -1.9649 -0.6133  1.1831
 3300TIP3    H231392   1.936   1.355  15.224 -0.5754  0.3871 -0.1777
 3301TIP3   OH231393   3.538   0.255   6.511  0.0766 -0.3627  0.0230
 3301TIP3    H131394   3.566   0.345   6.492  1.5534 -0.2600  2.3798
 3301TIP3    H231395   3.482   0.232   6.436 -0.8572  2.7040 -0.3689
 3302TIP3   OH231396   0.856   3.072   0.500 -0.5302 -0.0567  0.7268
 3302TIP3    H131397   0.769   3.039   0.523 -0.1417 -2.3750 -0.7528
 3302TIP3    H231398   0.914   3.034   0.566 -0.6476  2.2045  2.2501
 3303TIP3   OH231399   5.999   2.920  13.243  0.5237 -0.1331  0.1498
 3303TIP3    H131400   5.976   2.833  13.210  1.0523 -0.6168  1.0047
 3303TIP3    H231401   5.983   2.915  13.337 -1.0407  1.2407 -0.0017
 3304TIP3   OH231402   6.774   0.958   2.027  0.0888 -0.2560  0.1836
 3304TIP3    H131403   6.869   0.951   2.014  0.0541  1.2269 -1.1727
 3304TIP3    H231404   6.763   1.026   2.093 -0.0600  1.7154 -1.7898
 3305TIP3   OH231405   3.877   5.831   4.716  0.6860  0.3146 -0.1587
 3305TIP3    H131406   3.783   5.833   4.736  1.0216  1.7111  1.5266
 3305TIP3    H231407   3.918   5.803   4.797  1.8358  1.5492 -0.2838
 3306TIP3   OH231408   6.694   3.084   5.092 -0.6130  0.6986 -0.3122
 3306TIP3    H131409   6.730   3.150   5.151 -0.7849  0.9113 -0.4419
 3306TIP3    H231410   6.771   3.037   5.060 -0.6278 -0.6999  1.5444
 3307TIP3   OH231411   4.731   1.100  13.418  0.3881  0.1990 -0.1873
 3307TIP3    H131412   4.745   1.149  13.337 -1.4092  0.0878 -0.6027
 3307TIP3    H231413   4.702   1.014  13.389 -1.8189  0.6407  0.5306
 3308TIP3   OH231414   5.910   3.430   5.025 -0.7113 -0.0266 -0.6603
 3308TIP3    H131415   5.904   3.514   5.070 -0.0114 -0.9294  1.2259
 3308TIP3    H231416   5.843   3.376   5.066 -1.1184 -0.4289 -1.8200
 3309TIP3   OH231417   5.151   4.672   0.309  0.2812 -0.1903  0.3910
 3309TIP3    H131418   5.121   4.727   0.381 -0.8788  1.2623 -1.1308
 3309TIP3    H231419   5.235   4.710   0.283 -0.7508  1.2769 -0.9845
 3310TIP3   OH231420   0.051   3.287   3.220  0.0143 -0.5036  0.0561
 3310TIP3    H131421  -0.030   3.339   3.226 -0.8648 -1.9179  0.8949
 3310TIP3    H231422   0.097   3.306   3.302 -0.0590 -0.6436  0.1300
 3311TIP3   OH231423   3.129   5.043  14.277  0.2065  0.8201  0.4537
 3311TIP3    H131424   3.056   5.102  14.297 -0.8261  0.0170 -0.7975
 3311TIP3    H231425   3.090   4.974  14.223  1.9484  0.4916 -0.4548
 3312TIP3   OH231426   3.591   4.173  12.894 -0.1371 -0.3365 -0.1838
 3312TIP3    H131427   3.540   4.234  12.841  0.1166 -0.5333 -0.6708
 3312TIP3    H231428   3.595   4.213  12.980 -0.6176 -0.0365 -0.2929
 3313TIP3   OH231429   1.527   1.802  12.416  0.0103  0.1699 -0.4451
 3313TIP3    H131430   1.577   1.877  12.382  1.4029  0.6590  2.3913
 3313TIP3    H231431   1.436   1.830  12.410  0.2766  0.7652 -2.3774
 3314TIP3   OH231432   5.660   5.007   5.051  0.0998 -0.1500  0.5718
 3314TIP3    H131433   5.603   4.944   5.008  1.1669 -0.4244 -0.5079
 3314TIP3    H231434   5.602   5.062   5.103 -1.2350  0.0332 -1.0287
 3315TIP3   OH231435   4.965   6.284   3.992  0.5687 -0.6521 -0.3034
 3315TIP3    H131436   4.966   6.308   4.085  0.7248 -1.0781 -0.1898
 3315TIP3    H231437   5.040   6.330   3.955 -0.1430  0.4140 -0.4588
 3316TIP3   OH231438   4.063   0.182  14.998 -0.1394 -0.3500  0.3590
 3316TIP3    H131439   4.001   0.255  15.001  0.5437  0.2472  0.3965
 3316TIP3    H231440   4.109   0.186  15.082  0.0908 -0.6550  0.2510
 3317TIP3   OH231441   5.703   3.321  11.809  0.5169 -0.2364 -0.4247
 3317TIP3    H131442   5.611   3.309  11.783  0.0754 -1.5107  1.5055
 3317TIP3    H231443   5.744   3.363  11.734 -1.9299  1.5528 -0.8686
 3318TIP3   OH231444   6.162   5.945  13.789  0.4012  0.0233  0.0724
 3318TIP3    H131445   6.247   5.917  13.755 -0.3327  0.0678 -1.9405
 3318TIP3    H231446   6.168   5.931  13.883  2.3451 -0.7398 -0.1183
 3319TIP3   OH231447   3.292   2.368   2.498  0.3687  0.7914 -0.1211
 3319TIP3    H131448   3.342   2.342   2.421 -1.8356  1.0132 -1.6917
 3319TIP3    H231449   3.237   2.292   2.518  0.1131  1.1424  0.5526
 3320TIP3   OH231450   5.660   1.351  10.801 -0.1551  0.2033 -0.1572
 3320TIP3    H131451   5.703   1.290  10.742  1.1765 -0.6724  1.6073
 3320TIP3    H231452   5.641   1.428  10.747  1.4829 -0.3363 -1.5870
 3321TIP3   OH231453   5.803   6.171  11.696  0.4303  0.3276  0.4501
 3321TIP3    H131454   5.747   6.116  11.641 -0.0530  0.4899  0.7716
 3321TIP3    H231455   5.785   6.260  11.666  0.0586  0.4274  0.9643
 3322TIP3   OH231456   0.496   6.538   0.771  0.0496  0.0467  0.0268
 3322TIP3    H131457   0.558   6.494   0.713  1.9333 -0.0648  1.9813
 3322TIP3    H231458   0.426   6.474   0.783 -0.7252  0.3152 -2.5145
 3323TIP3   OH231459   3.316   2.812   5.230 -0.1551  0.1780  0.5761
 3323TIP3    H131460   3.286   2.891   5.274 -1.6696  0.8231 -1.4232
 3323TIP3    H231461   3.246   2.793   5.166  1.0251 -1.7282 -0.2246
 3324TIP3   OH231462   0.934   2.369  11.507 -0.0376 -0.3051  0.1997
 3324TIP3    H131463   0.852   2.414  11.487  0.4279  0.6280  0.3705
 3324TIP3    H231464   0.953   2.394  11.598 -0.5068 -1.9966  0.8173
 3325TIP3   OH231465   3.719   0.942  14.019 -0.3476  0.0969  0.6269
 3325TIP3    H131466   3.731   0.853  13.987  0.4253 -0.2943  1.9084
 3325TIP3    H231467   3.707   0.932  14.114 -0.0886  1.3536  0.8182
 3326TIP3   OH231468   5.187   3.420  13.843 -0.1426  0.7129 -0.6766
 3326TIP3    H131469   5.137   3.456  13.769 -0.9649  1.7339  0.3315
 3326TIP3    H231470   5.193   3.493  13.905 -0.1433 -0.3409  0.6039
 3327TIP3   OH231471   2.842   1.964   1.395  0.3109 -0.2050  0.6704
 3327TIP3    H131472   2.792   1.898   1.346 -2.9830  0.1655  3.2029
 3327TIP3    H231473   2.903   1.912   1.448 -0.8241 -1.1588  1.1141
 3328TIP3   OH231474   4.810   3.285  16.011 -0.7775 -0.0085  0.2671
 3328TIP3    H131475   4.814   3.203  15.961 -0.2017 -0.2468  0.6859
 3328TIP3    H231476   4.727   3.280  16.059 -0.7825 -0.3058  0.2285
 3329TIP3   OH231477   1.575   5.884   0.366 -0.4627 -0.3991  0.5677
 3329TIP3    H131478   1.578   5.920   0.454  1.5801 -1.2579  0.9153
 3329TIP3    H231479   1.550   5.792   0.378 -1.3990 -0.2143  0.1147
 3330TIP3   OH231480   5.269   6.359   5.090  0.2536 -0.1541  0.5332
 3330TIP3    H131481   5.278   6.323   5.002 -0.3308  2.6317 -0.7718
 3330TIP3    H231482   5.359   6.372   5.120  0.4815  0.1084 -0.2315
 3331TIP3   OH231483   6.151   3.209   6.065 -0.3627 -0.0715  0.2491
 3331TIP3    H131484   6.071   3.225   6.014 -1.6650  0.0639  2.2579
 3331TIP3    H231485   6.149   3.115   6.084 -0.1635 -0.0183  0.5354
 3332TIP3   OH231486   4.007   5.159   4.462  0.3386  0.2109  0.1479
 3332TIP3    H131487   4.016   5.169   4.367  2.7915 -0.9511  0.1828
 3332TIP3    H231488   4.012   5.065   4.477  0.0937  0.3850  1.4412
 3333TIP3   OH231489   3.979   5.385  11.014 -0.5590 -0.0539 -0.2620
 3333TIP3    H131490   4.017   5.324  10.951  2.4053  1.7921 -0.4264
 3333TIP3    H231491   3.957   5.462  10.963  2.4829  1.7214  0.8734
 3334TIP3   OH231492   6.680   4.708  17.130 -0.2247  0.3018  0.3700
 3334TIP3    H131493   6.716   4.625  17.163  1.1791  1.0278  0.7325
 3334TIP3    H231494   6.668   4.761  17.209 -1.6930  0.2574  0.2039
 3335TIP3   OH231495   5.162   5.419   4.494  0.1291  0.3315 -0.2565
 3335TIP3    H131496   5.194   5.397   4.407  0.5945  0.3304 -0.0908
 3335TIP3    H231497   5.232   5.391   4.553 -0.9372 -1.3952  0.2857
 3336TIP3   OH231498   3.942   1.935   1.848 -0.3963  0.1228 -0.8186
 3336TIP3    H131499   3.954   1.859   1.906  0.4692  1.1017  0.3545
 3336TIP3    H231500   3.848   1.937   1.830 -0.8185  0.1800  1.1726
 3337TIP3   OH231501   0.762   1.030   1.592 -0.0665 -0.3357 -0.3346
 3337TIP3    H131502   0.721   1.092   1.532 -0.6295 -1.4519 -1.1381
 3337TIP3    H231503   0.732   1.057   1.679 -0.0997  0.6574 -0.6428
 3338TIP3   OH231504   6.266   3.418  15.211  0.0236 -1.2917 -0.4376
 3338TIP3    H131505   6.232   3.343  15.258  0.5706 -1.0747  0.3210
 3338TIP3    H231506   6.305   3.474  15.278 -1.0536  0.0583 -0.8698
 3339TIP3   OH231507   5.318   0.553  16.799 -0.6224  0.0314 -0.8015
 3339TIP3    H131508   5.337   0.626  16.741 -0.0909 -0.3066 -1.0648
 3339TIP3    H231509   5.321   0.590  16.887 -0.0923  0.2760 -0.9182
 3340TIP3   OH231510   3.699   0.623   4.387 -0.7355  0.8456  0.3160
 3340TIP3    H131511   3.703   0.590   4.477 -0.5736  3.5488  1.3794
 3340TIP3    H231512   3.789   0.615   4.355 -0.7787 -0.0666  0.3749
 3341TIP3   OH231513   0.701   5.475  12.246 -0.4611 -0.2314 -0.2156
 3341TIP3    H131514   0.731   5.524  12.171  0.4055  2.1496  1.5628
 3341TIP3    H231515   0.609   5.501  12.257 -0.4213 -0.1280 -0.1242
 3342TIP3   OH231516   6.564   3.941   4.138  0.0887  0.3755 -0.6812
 3342TIP3    H131517   6.609   3.907   4.061  1.5567  2.2005 -0.7013
 3342TIP3    H231518   6.520   4.020   4.107 -1.7068 -0.4101 -0.2457
 3343TIP3   OH231519   0.111   3.097  14.804 -0.3992 -0.1581  0.1745
 3343TIP3    H131520   0.074   3.038  14.738  0.9504  0.5367 -1.2522
 3343TIP3    H231521   0.178   3.044  14.848 -2.4586 -1.1880  2.2736
 3344TIP3   OH231522   6.147   2.801  12.059 -0.0271  0.1862  0.0826
 3344TIP3    H131523   6.180   2.791  11.969 -1.3721 -1.6545 -0.2939
 3344TIP3    H231524   6.185   2.882  12.090  2.1891 -0.1867 -1.4073
 3345TIP3   OH231525   3.507   2.702   1.101  0.0307 -0.6592 -0.3345
 3345TIP3    H131526   3.427   2.705   1.153  0.4007  0.2224  0.2038
 3345TIP3    H231527   3.506   2.785   1.052  0.6600 -0.6045 -0.2553
 3346TIP3   OH231528   6.273   2.403   0.527  0.4132 -0.1799 -0.2939
 3346TIP3    H131529   6.253   2.478   0.471 -0.5803  0.2716  0.6242
 3346TIP3    H231530   6.331   2.348   0.474  1.2035  1.2445 -0.9782
 3347TIP3   OH231531   0.265   4.271  11.799 -0.2684 -0.2929 -0.5007
 3347TIP3    H131532   0.202   4.341  11.817 -0.3634 -0.8177  1.3919
 3347TIP3    H231533   0.263   4.261  11.704 -1.8092  0.8322 -0.6225
 3348TIP3   OH231534   1.571   3.468   2.769 -0.3040  0.0923 -0.0075
 3348TIP3    H131535   1.492   3.429   2.805 -1.0717  1.6676  0.1044
 3348TIP3    H231536   1.560   3.463   2.674  0.6527 -1.9473 -0.0659
 3349TIP3   OH231537   0.779   6.194  14.189 -0.5384  0.6763  0.1214
 3349TIP3    H131538   0.801   6.284  14.165  2.6548  0.6694  2.4240
 3349TIP3    H231539   0.732   6.202  14.271 -0.3313  0.2579  0.2838
 3350TIP3   OH231540   2.449   6.764   4.558 -0.4568  0.5869  0.2989
 3350TIP3    H131541   2.384   6.698   4.536 -0.6823  0.6236  0.8442
 3350TIP3    H231542   2.517   6.754   4.492  0.1344 -1.0324  1.1030
 3351TIP3   OH231543   3.455   0.482  15.550 -0.1056  0.3902 -0.2180
 3351TIP3    H131544   3.520   0.514  15.488 -1.8698  3.1917 -0.7944
 3351TIP3    H231545   3.486   0.395  15.574  3.2882  1.1816 -1.1893
 3352TIP3   OH231546   3.205   5.408  14.845  0.0912  0.0136 -0.3820
 3352TIP3    H131547   3.162   5.491  14.825 -0.1019 -0.4681 -2.1499
 3352TIP3    H231548   3.149   5.368  14.912  0.1158  1.2339  0.3808
 3353TIP3   OH231549   0.578   6.551   4.504  0.1262  0.1499 -0.2534
 3353TIP3    H131550   0.567   6.566   4.410  1.6476 -0.6633 -0.6070
 3353TIP3    H231551   0.611   6.634   4.538 -1.2539  0.7170 -0.2622
 3354TIP3   OH231552   1.556   2.469   5.293 -0.1231  0.7508  0.2531
 3354TIP3    H131553   1.462   2.484   5.285 -0.3316 -0.4022  0.3255
 3354TIP3    H231554   1.563   2.393   5.351  0.6449 -1.9700 -3.1235
 3355TIP3   OH231555   5.130   2.587  14.119 -0.2422 -0.0557 -0.2220
 3355TIP3    H131556   5.066   2.518  14.109 -0.2055 -0.1151 -0.0491
 3355TIP3    H231557   5.213   2.542  14.137 -0.1986  0.0272 -0.2108
 3356TIP3   OH231558   1.831   1.832  12.059  0.0055 -0.2734 -0.4311
 3356TIP3    H131559   1.840   1.789  11.974 -2.1731  1.4015 -1.5970
 3356TIP3    H231560   1.852   1.763  12.123 -0.1266 -2.1061 -2.2658
 3357TIP3   OH231561   1.661   3.113  13.629 -0.5981 -0.3600 -0.6627
 3357TIP3    H131562   1.741   3.111  13.682 -0.9043 -1.1955 -0.2071
 3357TIP3    H231563   1.590   3.102  13.693 -1.0769  0.2895 -1.0691
 3358TIP3   OH231564   5.170   6.067   4.107 -0.2699 -0.2001 -0.5848
 3358TIP3    H131565   5.125   6.134   4.056  0.5757 -0.4376 -1.6805
 3358TIP3    H231566   5.190   5.998   4.044  0.9773 -0.4216  0.0196
 3359TIP3   OH231567   3.574   0.349  15.097 -0.0599 -0.4329  0.3915
 3359TIP3    H131568   3.500   0.310  15.146  0.4993 -2.4148 -0.2443
 3359TIP3    H231569   3.546   0.346  15.006  0.2528  0.1372  0.2758
 3360TIP3   OH231570   1.156   1.218  12.770  0.3102 -0.0929 -0.1534
 3360TIP3    H131571   1.114   1.287  12.821 -0.4712  0.3027 -1.2910
 3360TIP3    H231572   1.230   1.261  12.727 -0.9749  0.4505 -1.9646
 3361TIP3   OH231573   5.626   2.652  11.801 -0.0971 -0.3136  0.6084
 3361TIP3    H131574   5.694   2.717  11.818  0.4657 -1.0168  1.1411
 3361TIP3    H231575   5.675   2.573  11.777 -0.5901 -1.4451  3.0303
 3362TIP3   OH231576   1.285   1.355   3.317  0.3631  0.0594 -0.2301
 3362TIP3    H131577   1.355   1.290   3.327  0.9612  0.9012  1.4576
 3362TIP3    H231578   1.225   1.337   3.390  0.7977  1.6788  0.5774
 3363TIP3   OH231579   4.409   0.532   0.805 -0.1723 -0.4067  0.1686
 3363TIP3    H131580   4.424   0.608   0.749 -0.6386 -0.7859 -0.4836
 3363TIP3    H231581   4.491   0.521   0.853  1.0894 -1.4009 -2.0574
 3364TIP3   OH231582   5.623   0.145   5.619  0.9503 -0.3253 -0.1727
 3364TIP3    H131583   5.649   0.053   5.611  0.6294 -0.3385 -1.1713
 3364TIP3    H231584   5.699   0.188   5.660  0.6951 -1.2072  1.3138
 3365TIP3   OH231585   2.238   2.445  16.818  0.1232  0.2115  0.4520
 3365TIP3    H131586   2.307   2.503  16.850  2.4185 -1.4895 -1.0496
 3365TIP3    H231587   2.221   2.476  16.729  0.6140 -0.7121  0.0186
 3366TIP3   OH231588   3.541   0.023   3.194  0.8802 -0.2455  0.6015
 3366TIP3    H131589   3.494  -0.046   3.148  1.7751 -1.6886  1.7405
 3366TIP3    H231590   3.592   0.067   3.127  0.6182 -0.9733 -0.0899
 3367TIP3   OH231591   1.757   4.114  17.002 -0.2178 -0.4977  0.6712
 3367TIP3    H131592   1.672   4.071  17.016 -0.2124 -0.9898 -0.6057
 3367TIP3    H231593   1.809   4.050  16.954 -0.0913  0.7775 -1.0004
 3368TIP3   OH231594   1.885   3.720   3.612 -0.2970 -0.2476  0.4213
 3368TIP3    H131595   1.852   3.631   3.600 -1.7802 -0.6546  5.3930
 3368TIP3    H231596   1.815   3.776   3.578 -0.6353 -1.0048 -0.1536
 3369TIP3   OH231597   1.906   5.148  11.665  0.0200 -0.4766  0.3311
 3369TIP3    H131598   1.842   5.078  11.661  0.2852 -0.7440  0.7627
 3369TIP3    H231599   1.978   5.113  11.718 -0.1898  0.3866  1.2221
 3370TIP3   OH231600   0.138   5.334  16.453  0.4848 -0.5454 -0.0187
 3370TIP3    H131601   0.183   5.398  16.398  2.2387 -0.5016  1.4073
 3370TIP3    H231602   0.045   5.358  16.446  0.8905  0.8580 -1.1172
 3371TIP3   OH231603   5.575   6.390   2.388 -0.0021 -0.4170 -0.3460
 3371TIP3    H131604   5.533   6.338   2.456  0.7760 -0.4685  0.1111
 3371TIP3    H231605   5.597   6.473   2.431 -0.0861 -0.1988 -0.7140
 3372TIP3   OH231606   5.874   2.825  11.927  0.3173  0.1553 -0.2205
 3372TIP3    H131607   5.963   2.856  11.940 -0.5960  2.5348  1.0463
 3372TIP3    H231608   5.822   2.904  11.913 -1.6000 -1.1496 -1.0581
 3373TIP3   OH231609   0.056   0.923   0.088  0.0063 -0.4688 -0.5680
 3373TIP3    H131610  -0.031   0.893   0.110 -0.1742 -0.4258 -1.2096
 3373TIP3    H231611   0.109   0.903   0.166 -1.1521  2.0821  1.0190
 3374TIP3   OH231612   2.880   0.233  12.152 -0.6387 -0.3540  0.0010
 3374TIP3    H131613   2.878   0.240  12.057  1.2120  0.8645  0.0013
 3374TIP3    H231614   2.917   0.146  12.169  1.8335  0.4980 -0.5133
 3375TIP3   OH231615   0.916   3.256  16.411 -0.0569  0.5879 -0.1197
 3375TIP3    H131616   1.009   3.247  16.393  0.0317  2.7041 -0.9833
 3375TIP3    H231617   0.912   3.310  16.490 -0.5572  0.5944 -0.1460
 3376TIP3   OH231618   5.404   2.039  15.147 -0.5535 -0.2033 -0.7393
 3376TIP3    H131619   5.392   1.946  15.128 -2.0122  0.0874 -1.4217
 3376TIP3    H231620   5.420   2.079  15.061  2.2917 -0.0705 -0.2429
 3377TIP3   OH231621   1.727   2.485   2.760  0.7467  0.0382 -0.1824
 3377TIP3    H131622   1.705   2.420   2.826  1.6642  0.0982  0.1998
 3377TIP3    H231623   1.775   2.435   2.693 -0.5000 -0.0950 -1.0039
 3378TIP3   OH231624   2.663   0.897   3.470 -0.4024  0.0927 -0.7308
 3378TIP3    H131625   2.573   0.865   3.476  0.6696 -3.1650  0.1195
 3378TIP3    H231626   2.717   0.822   3.496  2.6138  1.7078 -1.8256
 3379TIP3   OH231627   3.985   3.033  16.985 -0.7042 -0.0059  0.0049
 3379TIP3    H131628   3.978   3.123  17.015  0.5591 -0.5059  2.0258
 3379TIP3    H231629   3.897   2.997  16.994 -0.9693  0.7029  0.3062
 3380TIP3   OH231630   0.289   6.487  15.161 -0.0927 -0.5950  0.2835
 3380TIP3    H131631   0.265   6.395  15.155  0.0727 -0.6094 -0.2835
 3380TIP3    H231632   0.212   6.531  15.197  0.1053 -1.0620  1.3194
 3381TIP3   OH231633   1.732   6.293   4.702 -0.2709 -0.1974 -0.3371
 3381TIP3    H131634   1.669   6.283   4.773 -1.5727 -1.1156 -1.5791
 3381TIP3    H231635   1.809   6.331   4.744 -1.1801 -0.2457  1.4624
 3382TIP3   OH231636   5.726   1.678   3.592 -0.3374  0.5647 -0.4798
 3382TIP3    H131637   5.799   1.702   3.535 -0.5211 -1.5130 -1.7082
 3382TIP3    H231638   5.720   1.583   3.585  0.5695 -0.1031  4.2068
 3383TIP3   OH231639   0.430   0.440  12.602  0.2974  0.1389 -0.7503
 3383TIP3    H131640   0.498   0.506  12.587  0.4393  0.0853 -0.3608
 3383TIP3    H231641   0.353   0.475  12.558  0.5380  0.2679 -1.0766
 3384TIP3   OH231642   4.443   1.924   0.258  0.5379 -0.0410 -0.0661
 3384TIP3    H131643   4.415   1.872   0.183 -0.8046 -0.2977  0.5804
 3384TIP3    H231644   4.389   2.003   0.254 -0.5474 -0.6595  1.3473
 3385TIP3   OH231645   6.722   5.465  12.894 -0.2565  0.2030 -0.6726
 3385TIP3    H131646   6.745   5.557  12.907  1.4870 -0.5622  2.8139
 3385TIP3    H231647   6.758   5.444  12.807  1.2040  2.2911 -0.6605
 3386TIP3   OH231648   5.832   1.900  12.783  0.0889 -0.8960  0.0487
 3386TIP3    H131649   5.825   1.828  12.846 -1.6214 -0.8217  0.0028
 3386TIP3    H231650   5.742   1.916  12.756  0.5079  0.8804 -0.3992
 3387TIP3   OH231651   3.795   5.830  16.394 -0.3625 -0.4225 -0.0557
 3387TIP3    H131652   3.723   5.884  16.360  0.1125  1.1490  1.3034
 3387TIP3    H231653   3.852   5.892  16.440  1.5352 -1.7218 -0.5292
 3388TIP3   OH231654   2.021   5.893   5.613 -0.0478  0.2135  0.4930
 3388TIP3    H131655   1.927   5.877   5.609  0.0659 -0.1942 -1.2713
 3388TIP3    H231656   2.043   5.932   5.528  1.7076 -1.7244 -0.0380
 3389TIP3   OH231657   2.062   5.867   1.446  0.6449 -0.1055 -0.2423
 3389TIP3    H131658   2.107   5.881   1.529  2.8495 -0.7422 -1.2628
 3389TIP3    H231659   1.979   5.914   1.456  0.5044 -0.7681  2.5654
 3390TIP3   OH231660   0.874   4.661  13.305 -0.1537  0.3487 -0.6375
 3390TIP3    H131661   0.855   4.665  13.399 -0.6010  0.4010 -0.7271
 3390TIP3    H231662   0.916   4.576  13.292 -0.6437  0.0832 -0.4885
 3391TIP3   OH231663   1.682   6.259   6.145 -0.5931  0.3742 -0.2443
 3391TIP3    H131664   1.602   6.245   6.195 -0.5081  1.7123  0.3049
 3391TIP3    H231665   1.750   6.272   6.211 -0.2109  0.7494 -0.7028
 3392TIP3   OH231666   2.354   1.583  11.724  0.2498  0.2069  0.1122
 3392TIP3    H131667   2.312   1.661  11.760 -0.0158  0.0058  0.2378
 3392TIP3    H231668   2.443   1.585  11.760 -0.2828 -0.4663  1.4915
 3393TIP3   OH231669   2.105   5.205  13.246 -0.9133  0.5394  0.0257
 3393TIP3    H131670   2.197   5.185  13.265 -0.1505  1.6241 -2.2502
 3393TIP3    H231671   2.057   5.129  13.279  0.9765 -0.9086 -0.3974
 3394TIP3   OH231672   1.496   2.683  10.793 -0.0524  0.9339 -0.1627
 3394TIP3    H131673   1.542   2.766  10.792  1.6329  0.0400 -0.3653
 3394TIP3    H231674   1.540   2.631  10.860 -4.1252  1.7385  3.5686
 3395TIP3   OH231675   3.795   0.326  17.003 -0.0577 -0.2245  0.5602
 3395TIP3    H131676   3.757   0.267  17.069 -1.0530  0.4669  0.6223
 3395TIP3    H231677   3.870   0.277  16.968 -0.3802 -1.1951  1.1808
 3396TIP3   OH231678   4.674   4.503  12.784 -0.1822 -0.0115  0.0379
 3396TIP3    H131679   4.580   4.520  12.787 -0.5201 -1.5792 -0.5419
 3396TIP3    H231680   4.693   4.454  12.865  0.2559  0.7594  0.4166
 3397TIP3   OH231681   4.926   1.476  10.392  0.2873 -0.2538 -0.2028
 3397TIP3    H131682   4.875   1.505  10.317  0.3418  0.4881  0.0444
 3397TIP3    H231683   4.922   1.548  10.454 -0.9711 -1.4241  1.1432
 3398TIP3   OH231684   2.546   1.191   2.597  0.8014  0.5300 -0.3122
 3398TIP3    H131685   2.606   1.134   2.547  0.5848 -0.3561  0.4050
 3398TIP3    H231686   2.604   1.240   2.655  0.9193  0.4333 -0.3462
 3399TIP3   OH231687   4.266   5.993  13.703 -0.2757 -0.0830 -0.2396
 3399TIP3    H131688   4.268   5.981  13.798 -3.2727 -2.4426 -0.3568
 3399TIP3    H231689   4.200   6.061  13.689 -0.1127 -0.0134 -0.6886
 3400TIP3   OH231690   1.908   2.200   1.678 -0.0276  0.4317 -0.2908
 3400TIP3    H131691   1.923   2.127   1.738 -1.7927  0.1088 -0.1899
 3400TIP3    H231692   1.916   2.278   1.733  0.6109  0.2639 -0.1346
 3401TIP3   OH231693   3.375   0.471   3.161 -0.5287 -0.3934  0.1112
 3401TIP3    H131694   3.336   0.552   3.129 -1.1580 -1.1494 -1.1513
 3401TIP3    H231695   3.456   0.498   3.203 -0.8478  0.9116 -0.0644
 3402TIP3   OH231696   5.246   3.892   1.598 -0.1408 -0.3757  0.0932
 3402TIP3    H131697   5.267   3.813   1.547 -0.4224 -0.3803 -0.0148
 3402TIP3    H231698   5.283   3.875   1.685 -1.2362 -1.1411  0.4337
 3403TIP3   OH231699   0.369   0.904   2.439 -0.4080  0.1754  0.1796
 3403TIP3    H131700   0.457   0.903   2.477 -0.7562  1.1248  1.0442
 3403TIP3    H231701   0.313   0.866   2.507 -0.6991 -0.2762 -0.3040
 3404TIP3   OH231702   5.272   6.695  16.527  0.0504  0.0777  0.1281
 3404TIP3    H131703   5.258   6.718  16.435 -2.4716 -1.7016 -0.0424
 3404TIP3    H231704   5.251   6.775  16.575 -2.3764  0.0166 -0.7172
 3405TIP3   OH231705   0.583   5.798   4.116  0.3803  0.5081  0.1805
 3405TIP3    H131706   0.609   5.796   4.024 -1.6255  0.4829 -0.4483
 3405TIP3    H231707   0.576   5.891   4.136 -2.0073  0.5879 -0.6497
 3406TIP3   OH231708   6.432   4.658  15.299 -0.6682 -0.0431 -0.1046
 3406TIP3    H131709   6.459   4.750  15.303  0.0336 -0.2798  0.8877
 3406TIP3    H231710   6.356   4.653  15.356 -0.5008 -0.1529  0.1060
 3407TIP3   OH231711   6.619   2.071  16.367 -0.0606  0.6409  0.2878
 3407TIP3    H131712   6.580   2.123  16.438  0.9152  0.7101  0.7873
 3407TIP3    H231713   6.599   1.980  16.391  0.8048  0.6226  1.0057
 3408TIP3   OH231714   3.735   1.866   4.551  0.1031 -0.1427 -0.7184
 3408TIP3    H131715   3.830   1.862   4.563  0.0093  2.2914  2.2402
 3408TIP3    H231716   3.722   1.898   4.462  2.2330  2.0381 -0.3331
 3409TIP3   OH231717   0.537   2.099  11.232 -0.7632 -0.4253  0.2155
 3409TIP3    H131718   0.606   2.090  11.166 -1.4776  1.8668 -0.9589
 3409TIP3    H231719   0.501   2.011  11.240  2.0198 -1.6391  0.6304
 3410TIP3   OH231720   5.652   3.518   2.819 -0.1262 -0.7595 -0.0899
 3410TIP3    H131721   5.721   3.504   2.754  0.1370 -0.7040  0.1727
 3410TIP3    H231722   5.575   3.543   2.768  0.1948 -0.2840 -0.3516
 3411TIP3   OH231723   3.538   4.649  14.523 -0.4232 -0.3284 -0.1032
 3411TIP3    H131724   3.613   4.663  14.467 -1.1110  3.0483 -0.3532
 3411TIP3    H231725   3.498   4.568  14.490  0.7461  0.0479 -2.6226
 3412TIP3   OH231726   2.698   2.118   4.829  0.1232 -0.2198  0.3353
 3412TIP3    H131727   2.683   2.128   4.923  1.2373 -1.1289  0.6310
 3412TIP3    H231728   2.629   2.058   4.800 -0.5651  0.4986  0.4448
 3413TIP3   OH231729   6.444   5.931  12.102  0.4817 -0.6138  0.2306
 3413TIP3    H131730   6.451   6.010  12.157  3.5800 -1.2905  1.0000
 3413TIP3    H231731   6.420   5.862  12.163  0.5450 -0.7478  0.1034
 3414TIP3   OH231732   5.370   0.280   3.642 -0.0070 -0.1625 -0.5633
 3414TIP3    H131733   5.287   0.260   3.685  1.8892 -3.1776  2.1570
 3414TIP3    H231734   5.404   0.355   3.690 -0.5151  0.1914 -0.7482
 3415TIP3   OH231735   4.577   5.937   4.163  0.2600 -0.0934  0.9813
 3415TIP3    H131736   4.667   5.967   4.176  0.7444 -0.9887 -0.0752
 3415TIP3    H231737   4.559   5.955   4.070 -1.0466  1.0550  1.4225
 3416TIP3   OH231738   1.192   6.093   0.100 -0.0122 -0.1219 -0.3751
 3416TIP3    H131739   1.149   6.041   0.032 -1.3978 -0.0186  0.3669
 3416TIP3    H231740   1.191   6.036   0.177  1.1804 -0.0908 -0.3171
 3417TIP3   OH231741   2.629   2.219  12.515  0.2544 -0.0677 -0.3504
 3417TIP3    H131742   2.721   2.232  12.496  0.3804 -0.3246  0.0721
 3417TIP3    H231743   2.607   2.135  12.474  0.5166 -0.6036  0.5826
 3418TIP3   OH231744   1.716   4.644   0.456 -0.8671  0.3228  0.5213
 3418TIP3    H131745   1.746   4.553   0.447  0.4086  0.8031 -0.4737
 3418TIP3    H231746   1.795   4.696   0.441 -2.1542  1.6827 -2.1172
 3419TIP3   OH231747   2.872   6.458  13.304  0.2773 -0.3830 -0.0081
 3419TIP3    H131748   2.871   6.382  13.363  1.3632 -1.3504 -1.1806
 3419TIP3    H231749   2.865   6.421  13.217  3.2848  0.6032 -0.7950
 3420TIP3   OH231750   6.791   3.876   3.524 -0.0513  0.0711 -0.6938
 3420TIP3    H131751   6.816   3.890   3.615 -1.2724 -0.2000 -0.3025
 3420TIP3    H231752   6.774   3.964   3.490 -1.6950  0.0400 -0.0233
 3421TIP3   OH231753   2.211   5.814  11.582 -0.1219  0.3993  0.3089
 3421TIP3    H131754   2.230   5.749  11.650  0.2216  0.6879  0.4904
 3421TIP3    H231755   2.126   5.788  11.548 -0.7688  0.8275  1.5322
 3422TIP3   OH231756   0.071   4.426  15.557 -0.3254 -0.0394 -0.3874
 3422TIP3    H131757   0.012   4.446  15.485 -0.3822 -0.1958 -0.3843
 3422TIP3    H231758   0.035   4.347  15.597 -0.5466  0.3002  0.0902
 3423TIP3   OH231759   3.723   1.732  12.101  0.4152 -0.4882  0.4910
 3423TIP3    H131760   3.735   1.765  12.190 -0.6307 -3.2110  1.7794
 3423TIP3    H231761   3.794   1.668  12.090  0.6667 -0.0237 -0.7548
 3424TIP3   OH231762   5.745   3.490  16.049 -0.0901  0.2609  0.4934
 3424TIP3    H131763   5.747   3.400  16.015  1.2230 -0.2234  1.7465
 3424TIP3    H231764   5.820   3.533  16.009 -0.6996  0.8019 -0.0812
 3425TIP3   OH231765   2.433   2.235  16.163 -0.0252  0.5856  0.4215
 3425TIP3    H131766   2.340   2.215  16.177 -0.1260  0.5614 -0.2562
 3425TIP3    H231767   2.463   2.267  16.248 -0.7096  0.8225  0.5836
 3426TIP3   OH231768   4.944   5.402  14.171 -0.1746 -0.2182 -0.5279
 3426TIP3    H131769   5.019   5.421  14.115 -0.5517 -1.1818 -1.4011
 3426TIP3    H231770   4.982   5.384  14.257  0.6421 -0.9315 -1.0205
 3427TIP3   OH231771   5.045   4.127   3.300  0.2232  0.0388  0.0004
 3427TIP3    H131772   5.114   4.090   3.245 -0.1960  1.0979 -1.3013
 3427TIP3    H231773   4.971   4.067   3.289  0.0033  0.4665 -0.9693
 3428TIP3   OH231774   6.313   6.465   0.033  0.4239  0.0275 -0.5181
 3428TIP3    H131775   6.365   6.398  -0.011  0.2019  0.0086 -0.7529
 3428TIP3    H231776   6.250   6.416   0.086  2.1882 -0.0021  1.6973
 3429TIP3   OH231777   4.632   3.756   6.220  0.5287 -0.1018  0.5489
 3429TIP3    H131778   4.697   3.824   6.203  1.4657 -0.9506  0.6366
 3429TIP3    H231779   4.684   3.678   6.240 -0.5230 -0.8091  0.5841
 3430TIP3   OH231780   2.886   3.718   1.933 -0.0582  0.6443  0.0506
 3430TIP3    H131781   2.907   3.755   2.019 -0.6133 -1.2215  1.0438
 3430TIP3    H231782   2.928   3.777   1.870  0.7497  1.7969  1.6114
 3431TIP3   OH231783   3.765   3.029  14.653 -0.0867  0.9864  0.3239
 3431TIP3    H131784   3.788   2.936  14.654 -2.4154  0.3494  1.1603
 3431TIP3    H231785   3.799   3.061  14.569  0.1795 -0.7680 -0.2775
 3432TIP3   OH231786   3.048   6.603  11.198 -0.4859 -0.7671 -0.0787
 3432TIP3    H131787   2.957   6.602  11.166 -1.2771  0.4452  1.9658
 3432TIP3    H231788   3.042   6.575  11.289  1.2644 -0.9768  0.0034
 3433TIP3   OH231789   1.483   6.505  14.550 -0.1725 -0.3494  0.1034
 3433TIP3    H131790   1.464   6.572  14.485 -1.9962 -1.3847 -0.5149
 3433TIP3    H231791   1.515   6.553  14.626  1.1009  0.9633 -1.1989
 3434TIP3   OH231792   3.175   1.271  11.184 -0.2416 -0.1967 -0.4468
 3434TIP3    H131793   3.202   1.211  11.115 -0.3019  0.7021 -1.2755
 3434TIP3    H231794   3.226   1.350  11.168 -0.6557  0.2138  0.2167
 3435TIP3   OH231795   4.032   0.207   6.117  0.0914  0.3445  0.0158
 3435TIP3    H131796   4.025   0.167   6.204  0.0026 -0.7878 -0.5039
 3435TIP3    H231797   4.124   0.196   6.093  0.2904  1.3385  0.2728
 3436TIP3   OH231798   2.617   3.245  15.833 -0.0913  0.0155 -0.0238
 3436TIP3    H131799   2.667   3.194  15.897 -1.0598  0.6713  1.3153
 3436TIP3    H231800   2.526   3.240  15.864 -0.2284  2.5924  0.2515
 3437TIP3   OH231801   3.257   6.259  13.608 -0.5338  0.2184 -0.0106
 3437TIP3    H131802   3.250   6.232  13.516 -1.2042 -0.2963  0.1809
 3437TIP3    H231803   3.283   6.179  13.654 -1.1982  0.2220  0.3799
 3438TIP3   OH231804   2.743   5.220   5.781  0.2157 -0.3668 -0.1829
 3438TIP3    H131805   2.736   5.129   5.752  0.2835 -0.4734  0.1310
 3438TIP3    H231806   2.652   5.249   5.788  0.1796 -0.5380  0.1058
 3439TIP3   OH231807   0.513   3.086  10.958 -0.0323 -0.0714  0.1427
 3439TIP3    H131808   0.584   3.025  10.939  0.7509  1.4427 -2.2941
 3439TIP3    H231809   0.434   3.032  10.956  0.6914 -1.1488 -1.2612
 3440TIP3   OH231810   6.814   1.221   6.150  0.4771 -0.2280 -0.3872
 3440TIP3    H131811   6.870   1.288   6.111  2.5717 -1.8192 -0.2999
 3440TIP3    H231812   6.844   1.138   6.112 -0.9239 -1.3103  0.6946
 3441TIP3   OH231813   0.063   5.793  16.932  0.4781  0.5029 -0.6068
 3441TIP3    H131814   0.136   5.815  16.873  0.6790  1.6082  0.0239
 3441TIP3    H231815  -0.001   5.863  16.918  0.1444  0.2973 -0.1327
 3442TIP3   OH231816   3.902   4.178   0.498  0.0653 -0.1013  0.1126
 3442TIP3    H131817   3.885   4.088   0.470 -1.5289 -0.6366  2.4650
 3442TIP3    H231818   3.976   4.171   0.558  0.0557  0.2008  0.1619
 3443TIP3   OH231819   4.045   5.674  16.588  0.1942 -0.2371  0.0942
 3443TIP3    H131820   3.976   5.626  16.542 -0.2550 -0.6589  1.1651
 3443TIP3    H231821   4.001   5.752  16.622  0.4650 -0.0430 -0.0006
 3444TIP3   OH231822   0.507   2.393   0.182  0.1234  0.0514 -0.1853
 3444TIP3    H131823   0.509   2.487   0.162  1.3689 -0.3508 -2.2292
 3444TIP3    H231824   0.596   2.373   0.211 -0.9796  0.0973  3.8764
 3445TIP3   OH231825   3.122   4.874  12.715  0.4640  0.6559  0.1234
 3445TIP3    H131826   3.073   4.942  12.668  0.5821  0.6119 -0.0639
 3445TIP3    H231827   3.113   4.796  12.660  0.5200  0.5791  0.2236
 3446TIP3   OH231828   4.066   3.012   6.320 -0.0746 -0.1048  0.4447
 3446TIP3    H131829   4.076   2.931   6.270 -1.0788 -0.2074  0.3842
 3446TIP3    H231830   4.143   3.015   6.377  1.1757  0.0778 -1.1798
 3447TIP3   OH231831   1.999   1.214  11.052  0.6733  0.5403 -0.6265
 3447TIP3    H131832   2.077   1.247  11.008  0.1954 -0.7058 -2.5580
 3447TIP3    H231833   1.948   1.173  10.982 -0.6337 -0.6781  0.9536
 3448TIP3   OH231834   5.976   5.578   0.974  0.3232  0.2811 -0.0220
 3448TIP3    H131835   6.059   5.564   0.927 -0.0682 -0.6813 -0.4532
 3448TIP3    H231836   5.909   5.552   0.911 -0.1960 -1.7031  1.2610
 3449TIP3   OH231837   2.452   0.800  12.476 -0.0110  0.3208 -0.2533
 3449TIP3    H131838   2.528   0.780  12.530 -1.1147 -0.4908  1.0775
 3449TIP3    H231839   2.381   0.748  12.514 -1.2897  1.2069 -1.3130
 3450TIP3   OH231840   0.713   1.833  13.250  0.2142 -0.3385  0.0732
 3450TIP3    H131841   0.703   1.887  13.171 -0.8737 -2.0847 -1.0435
 3450TIP3    H231842   0.632   1.847  13.298  0.6308  0.2698  0.6143
 3451TIP3   OH231843   1.325   4.882  17.040  0.3233 -0.4716  0.2319
 3451TIP3    H131844   1.418   4.884  17.061  0.2972  0.2364  0.3248
 3451TIP3    H231845   1.281   4.872  17.125  0.3082 -0.5090  0.2197
 3452TIP3   OH231846   0.417   3.875   0.853  0.1265 -0.0215  0.1657
 3452TIP3    H131847   0.428   3.878   0.758 -0.0314  0.6076  0.1598
 3452TIP3    H231848   0.323   3.885   0.867  0.1076 -0.4676  0.3796
 3453TIP3   OH231849   1.395   3.189  11.448 -0.0608 -0.0367  0.8983
 3453TIP3    H131850   1.367   3.163  11.360 -1.7365 -1.7617  1.8650
 3453TIP3    H231851   1.491   3.188  11.444 -0.0978 -0.3955 -0.8163
 3454TIP3   OH231852   5.433   0.897   1.105  0.1507 -0.6824 -0.4696
 3454TIP3    H131853   5.513   0.849   1.126  0.6183  0.1914 -0.1817
 3454TIP3    H231854   5.457   0.989   1.115 -0.7322 -0.3817 -0.9593
 3455TIP3   OH231855   2.812   1.891  14.530 -0.2665 -0.3869 -0.1184
 3455TIP3    H131856   2.731   1.925  14.493 -0.1713 -1.1217 -1.0420
 3455TIP3    H231857   2.880   1.918  14.468 -0.0405 -1.2158 -0.2561
 3456TIP3   OH231858   2.645   6.147  11.289  0.5282  0.2142 -0.3077
 3456TIP3    H131859   2.560   6.122  11.252  1.3168 -0.0003 -2.0725
 3456TIP3    H231860   2.707   6.083  11.254  1.4633  0.4825  0.8002
 3457TIP3   OH231861   0.493   5.124  12.471  0.5587 -1.0185 -0.3051
 3457TIP3    H131862   0.410   5.085  12.442  0.5124 -0.4631 -0.9534
 3457TIP3    H231863   0.538   5.148  12.390  1.1383 -0.8685  0.0515
 3458TIP3   OH231864   3.564   3.626   4.581  0.5528  0.2491 -0.4831
 3458TIP3    H131865   3.485   3.578   4.607  0.1968  0.4756 -1.1404
 3458TIP3    H231866   3.636   3.565   4.600  0.2281  0.0502  0.1407
 3459TIP3   OH231867   0.638   5.970   3.066 -0.1708 -0.4261 -0.2453
 3459TIP3    H131868   0.614   6.059   3.091 -0.8053 -0.4897 -0.5884
 3459TIP3    H231869   0.561   5.918   3.089 -0.7054 -0.5246 -2.0844
 3460TIP3   OH231870   2.840   2.891  13.865 -0.7432  0.2065  0.6670
 3460TIP3    H131871   2.915   2.931  13.822  0.2975 -0.6336  1.6401
 3460TIP3    H231872   2.830   2.806  13.822 -0.7876  0.0837  0.9204
 3461TIP3   OH231873   1.256   0.100   3.509  0.3465 -0.4996 -0.3152
 3461TIP3    H131874   1.170   0.142   3.504 -0.5308 -2.3183 -1.4575
 3461TIP3    H231875   1.266   0.055   3.426  2.2282 -0.7210 -0.0139
 3462TIP3   OH231876   0.374   0.587   1.769 -0.2002  0.1377 -0.2567
 3462TIP3    H131877   0.311   0.518   1.747  0.7869 -0.7475 -0.3737
 3462TIP3    H231878   0.403   0.620   1.684 -1.6217  1.6352 -0.2171
 3463TIP3   OH231879   4.056   2.103  13.701  0.2403 -0.0696 -0.5843
 3463TIP3    H131880   3.961   2.105  13.687  0.2649  1.0064 -0.6680
 3463TIP3    H231881   4.089   2.047  13.630 -0.1612  1.0595 -1.7131
 3464TIP3   OH231882   4.566   3.833   1.504  0.8964 -0.0259  0.4834
 3464TIP3    H131883   4.613   3.900   1.554  0.6856  0.2810  0.2740
 3464TIP3    H231884   4.628   3.804   1.438 -0.6032  3.9477 -3.1861
 3465TIP3   OH231885   2.663   0.917   1.038 -0.0863 -0.2300  0.0276
 3465TIP3    H131886   2.613   0.946   0.962 -0.7921 -1.6346 -0.0793
 3465TIP3    H231887   2.754   0.939   1.017 -0.5101  1.3511 -0.2628
 3466TIP3   OH231888   3.691   1.904  14.948 -0.4455 -0.0617 -0.0965
 3466TIP3    H131889   3.626   1.917  15.016 -0.6485 -1.8494  0.1030
 3466TIP3    H231890   3.775   1.904  14.994 -0.5791 -1.2204  0.1743
 3467TIP3   OH231891   1.887   3.588  15.695 -0.2727 -0.5025 -0.4987
 3467TIP3    H131892   1.890   3.506  15.745 -0.6690 -1.6857 -2.3110
 3467TIP3    H231893   1.979   3.608  15.676 -0.1944 -0.7313 -0.3673
 3468TIP3   OH231894   3.178   6.313  12.978 -0.3053  0.0787  0.3704
 3468TIP3    H131895   3.144   6.225  12.961  0.5697 -0.4247  1.0840
 3468TIP3    H231896   3.103   6.362  13.011 -0.5450 -0.7549  1.1181
 3469TIP3   OH231897   0.911   3.548  15.717 -0.1226  0.9557 -0.4559
 3469TIP3    H131898   0.925   3.456  15.739 -0.6969  0.9518 -0.0700
 3469TIP3    H231899   0.959   3.561  15.635 -0.6323  0.1190 -0.9014
 3470TIP3   OH231900   0.037   6.017  11.749  0.3015 -0.6457 -0.1101
 3470TIP3    H131901  -0.034   5.964  11.785 -0.9462  1.0014 -0.0269
 3470TIP3    H231902   0.112   5.958  11.747 -1.0851 -2.5029 -0.3403
 3471TIP3   OH231903   1.746   6.058   4.482  0.3148 -0.4144  0.2362
 3471TIP3    H131904   1.748   6.132   4.422 -0.6821 -0.2720  0.3610
 3471TIP3    H231905   1.661   6.017   4.466 -0.5179  0.3493  2.4022
 3472TIP3   OH231906   1.659   2.197  14.381  0.3111  0.0248  0.0811
 3472TIP3    H131907   1.630   2.125  14.326  0.5680 -0.4542  0.5578
 3472TIP3    H231908   1.662   2.160  14.470  0.4751  0.6093  0.3281
 3473TIP3   OH231909   1.812   1.957  13.096  0.5058  0.4144  0.7072
 3473TIP3    H131910   1.821   1.862  13.103  0.2613  0.3476  0.1722
 3473TIP3    H231911   1.743   1.979  13.158 -0.0943  0.1180  0.1569
 3474TIP3   OH231912   4.739   2.799   0.429  0.6730  0.5578  0.4592
 3474TIP3    H131913   4.678   2.873   0.436  0.4292  0.3721  0.2870
 3474TIP3    H231914   4.725   2.764   0.341  0.1172 -0.2750  0.8687
 3475TIP3   OH231915   5.498   3.938   3.084 -0.0494  0.3785 -0.0571
 3475TIP3    H131916   5.430   3.887   3.129  0.1465  1.1173  1.1149
 3475TIP3    H231917   5.545   3.874   3.031  0.1559 -0.6633  1.3238
 3476TIP3   OH231918   2.861   0.063   1.335 -0.2801  0.7177 -0.5538
 3476TIP3    H131919   2.886  -0.007   1.396 -3.9687 -0.4522 -0.1048
 3476TIP3    H231920   2.933   0.068   1.272  1.3209 -1.6347  0.9444
 3477TIP3   OH231921   3.817   3.167   0.844 -0.0833 -0.4532 -0.1046
 3477TIP3    H131922   3.800   3.120   0.926 -1.1729 -0.9561 -0.6025
 3477TIP3    H231923   3.877   3.111   0.796  2.0805  0.6965  1.0848
 3478TIP3   OH231924   3.891   6.535   6.502  0.8110 -0.4225  0.2166
 3478TIP3    H131925   3.854   6.469   6.561  2.0332 -0.2267  1.2406
 3478TIP3    H231926   3.897   6.491   6.418 -1.7112 -0.4594 -0.0184
 3479TIP3   OH231927   0.247   4.573  13.281  0.7629  0.0765 -0.0268
 3479TIP3    H131928   0.187   4.627  13.229  1.8323  1.8261  0.4770
 3479TIP3    H231929   0.289   4.517  13.216  1.6915  1.8514 -1.0442
 3480TIP3   OH231930   6.406   4.356   0.943 -0.2533 -0.6191 -0.2862
 3480TIP3    H131931   6.351   4.418   0.992 -0.4441 -0.7925 -0.2778
 3480TIP3    H231932   6.441   4.297   1.010 -0.0701 -0.5200 -0.2940
 3481TIP3   OH231933   3.665   5.561  16.126 -0.4195 -0.5958  0.3824
 3481TIP3    H131934   3.638   5.614  16.051  2.9780 -0.4852 -0.9567
 3481TIP3    H231935   3.663   5.471  16.093  0.9394 -0.5588  0.1331
 3482TIP3   OH231936   0.088   5.126  17.287  0.2753  0.6885 -0.1859
 3482TIP3    H131937   0.095   5.219  17.309  2.7986  0.2219  1.3780
 3482TIP3    H231938   0.104   5.080  17.369 -0.2257 -1.1515 -1.0581
 3483TIP3   OH231939   2.725   0.367   2.626  0.3581 -0.3407  0.5206
 3483TIP3    H131940   2.666   0.364   2.702  0.7547  0.5890  0.8814
 3483TIP3    H231941   2.666   0.373   2.550 -0.0820  2.7014  0.9677
 3484TIP3   OH231942   3.883   2.276   0.417  0.5764  0.5002 -1.1915
 3484TIP3    H131943   3.901   2.240   0.331  0.5164  1.2595 -1.5300
 3484TIP3    H231944   3.788   2.270   0.427  0.4531  1.4387 -1.6590
 3485TIP3   OH231945   1.322   4.349   5.621  0.3420 -0.0594 -0.1107
 3485TIP3    H131946   1.341   4.260   5.651 -1.3439 -0.7092 -0.8264
 3485TIP3    H231947   1.382   4.363   5.547  2.3953  0.4175  1.5480
 3486TIP3   OH231948   2.317   5.554  17.038 -0.4151 -0.1723  0.0082
 3486TIP3    H131949   2.248   5.500  17.076 -1.0177  1.6221  1.6419
 3486TIP3    H231950   2.272   5.634  17.010  0.7981  0.5105 -0.0600
 3487TIP3   OH231951   1.390   1.685  11.572  0.3145  0.1185 -0.1692
 3487TIP3    H131952   1.404   1.597  11.536  2.1563  0.2607  0.1071
 3487TIP3    H231953   1.353   1.670  11.659  2.4036 -0.5139  0.6774
 3488TIP3   OH231954   6.065   6.339   3.337 -0.5531  0.4258  0.6896
 3488TIP3    H131955   6.147   6.321   3.382 -0.2199 -0.7444 -0.3606
 3488TIP3    H231956   6.024   6.254   3.324 -1.6262  0.9280  0.5856
 3489TIP3   OH231957   4.508   3.883  14.241 -0.2558  0.1741  0.0865
 3489TIP3    H131958   4.543   3.972  14.246 -0.8724  0.3805  1.0078
 3489TIP3    H231959   4.435   3.890  14.179  0.8403 -0.1150 -1.3089
 3490TIP3   OH231960   0.643   5.828  13.293  0.0662 -0.3757 -0.5479
 3490TIP3    H131961   0.728   5.871  13.295  0.6608 -1.5146  2.1167
 3490TIP3    H231962   0.627   5.810  13.200  2.1069  0.9985 -1.2152
 3491TIP3   OH231963   6.013   6.161   2.205  0.1799 -0.4456  0.0705
 3491TIP3    H131964   6.000   6.251   2.234 -0.8511 -1.1765  2.0138
 3491TIP3    H231965   6.092   6.165   2.150  0.7610  1.4414  0.9663
 3492TIP3   OH231966   6.757   0.005   1.547 -0.4432 -0.0286  0.6384
 3492TIP3    H131967   6.738  -0.033   1.461 -0.5214 -1.9142  1.4364
 3492TIP3    H231968   6.763   0.099   1.531 -0.8851 -0.2927 -1.3456
 3493TIP3   OH231969   5.420   3.483   5.877 -0.2253 -0.0517  0.7338
 3493TIP3    H131970   5.512   3.497   5.855 -0.0950 -0.0212  1.2942
 3493TIP3    H231971   5.387   3.429   5.805 -0.5627  2.4645 -1.1331
 3494TIP3   OH231972   4.798   3.983   3.413 -0.0311 -0.5739 -0.4822
 3494TIP3    H131973   4.844   3.899   3.421  1.2086 -0.0811 -2.0043
 3494TIP3    H231974   4.715   3.960   3.371  0.4183 -1.0241 -1.1580
 3495TIP3   OH231975   0.738   3.185  16.196 -0.8652 -0.4855 -0.2590
 3495TIP3    H131976   0.807   3.152  16.137 -0.9283 -0.2993 -0.4388
 3495TIP3    H231977   0.784   3.201  16.278 -1.3717 -3.8974  0.8502
 3496TIP3   OH231978   3.053   4.621  16.343  0.3810 -0.1291  0.2398
 3496TIP3    H131979   3.101   4.704  16.336  0.4266 -0.2884 -2.7759
 3496TIP3    H231980   2.983   4.639  16.405  0.7755  1.9800  0.1452
 3497TIP3   OH231981   1.556   4.558   2.578 -0.0890  0.3603 -0.1491
 3497TIP3    H131982   1.538   4.486   2.638 -2.6888 -0.2805 -1.5603
 3497TIP3    H231983   1.499   4.629   2.608  0.6792  1.0096 -0.2004
 3498TIP3   OH231984   4.679   6.550   0.918 -0.3117  0.0269 -0.3735
 3498TIP3    H131985   4.637   6.473   0.879 -2.1038  1.0859 -0.5985
 3498TIP3    H231986   4.617   6.580   0.984 -0.5401  2.3909 -1.5862
 3499TIP3   OH231987   0.887   3.974   2.780 -0.2429  0.4427 -0.1259
 3499TIP3    H131988   0.923   3.905   2.836 -1.6705  0.7647  1.2610
 3499TIP3    H231989   0.959   3.997   2.722  1.0512 -0.4979  1.0222
 3500TIP3   OH231990   3.901   5.111   1.504  0.0781  0.1698 -0.5521
 3500TIP3    H131991   3.859   5.171   1.565  0.6418 -0.3106  0.3276
 3500TIP3    H231992   3.832   5.088   1.441 -0.0254  2.0997 -1.2135
 3501TIP3   OH231993   0.763   4.423  16.138  0.2725 -0.2568 -0.2832
 3501TIP3    H131994   0.826   4.357  16.108  0.1175 -0.1962 -0.7487
 3501TIP3    H231995   0.699   4.374  16.189  0.2498 -0.4394 -0.4886
 3502TIP3   OH231996   5.853   2.108  14.120  0.4244 -0.2397 -0.0224
 3502TIP3    H131997   5.922   2.049  14.087  0.8698  0.6960 -0.8187
 3502TIP3    H231998   5.892   2.151  14.196  0.3556 -0.4368  0.1260
 3503TIP3   OH231999   2.514   1.186   3.638 -0.1408  0.2637  0.3854
 3503TIP3    H132000   2.484   1.265   3.682  0.1024  0.0415  0.9612
 3503TIP3    H232001   2.442   1.124   3.646  0.9396 -0.7814  3.0715
 3504TIP3   OH232002   4.221   6.037  17.129  0.3351  0.2071 -0.5671
 3504TIP3    H132003   4.300   6.080  17.161  1.5419 -2.1689 -0.0703
 3504TIP3    H232004   4.249   5.991  17.049 -0.9334  0.5163 -1.2278
 3505TIP3   OH232005   2.384   3.145   0.476  0.1669  0.8730 -0.4119
 3505TIP3    H132006   2.478   3.156   0.460 -0.2123  2.0696 -2.1054
 3505TIP3    H232007   2.350   3.113   0.392 -0.7443 -1.1562  0.6578
 3506TIP3   OH232008   0.601   1.310   4.954 -0.2091 -0.7168 -0.1326
 3506TIP3    H132009   0.657   1.272   4.886 -0.3108 -2.0099  0.4691
 3506TIP3    H232010   0.534   1.358   4.905  0.9439  0.1922 -0.8790
 3507TIP3   OH232011   6.068   0.459  14.936  0.1767  0.3721  0.5640
 3507TIP3    H132012   6.067   0.390  14.869 -1.2987 -0.9080  1.8051
 3507TIP3    H232013   5.975   0.474  14.956  0.4945  2.3822  0.7119
 3508TIP3   OH232014   6.616   2.440  15.693 -0.3464 -0.0051 -0.3643
 3508TIP3    H132015   6.692   2.488  15.661 -1.3242  2.2588  0.5309
 3508TIP3    H232016   6.628   2.351  15.659  1.9022  0.6547 -1.4956
 3509TIP3   OH232017   4.713   5.567   4.950  0.1182 -0.1886  0.1765
 3509TIP3    H132018   4.783   5.608   4.899  1.6464  0.3060  2.5102
 3509TIP3    H232019   4.703   5.480   4.910 -1.1854  1.2606 -3.0258
 3510TIP3   OH232020   0.281   2.983   5.604 -0.5052 -0.4469  0.3547
 3510TIP3    H132021   0.339   2.908   5.588  0.3506  0.3076 -0.1167
 3510TIP3    H232022   0.327   3.034   5.670 -0.4560  0.3509 -0.2906
 3511TIP3   OH232023   2.622   0.428   4.221  0.1782 -0.2806  0.1093
 3511TIP3    H132024   2.540   0.378   4.214  0.1678 -0.1660 -0.6490
 3511TIP3    H232025   2.606   0.490   4.292 -0.9828  0.8398 -1.0961
 3512TIP3   OH232026   3.998   4.139   5.369  0.0750  0.5546  0.7864
 3512TIP3    H132027   4.028   4.107   5.284  2.8274  0.6450  1.6031
 3512TIP3    H232028   3.905   4.119   5.372  0.5781 -2.5933 -0.8767
 3513TIP3   OH232029   6.755   6.289  15.083 -0.0438  0.0078 -0.4681
 3513TIP3    H132030   6.809   6.290  15.004  2.8610 -0.1557  1.3650
 3513TIP3    H232031   6.739   6.381  15.103  0.4369  0.0953 -0.4806
 3514TIP3   OH232032   0.659   2.202  15.019  0.0221  0.3410  0.3740
 3514TIP3    H132033   0.585   2.148  14.991  1.0913 -0.8771 -0.1764
 3514TIP3    H232034   0.736   2.148  15.004  0.9781  1.2215  1.8444
 3515TIP3   OH232035   1.055   3.690  16.881 -0.3933 -0.0978 -0.0522
 3515TIP3    H132036   1.065   3.605  16.839 -0.5572 -0.0742 -0.1407
 3515TIP3    H232037   0.986   3.734  16.831  1.7999  1.3357 -2.0223
 3516TIP3   OH232038   1.070   0.821   4.686  0.0976  0.6273 -0.0246
 3516TIP3    H132039   1.112   0.808   4.771 -2.6970 -2.6763  1.1135
 3516TIP3    H232040   1.056   0.732   4.653 -2.0240  1.6687 -2.2602
 3517TIP3   OH232041   5.127   6.447  10.603 -0.1613 -0.4727 -0.1667
 3517TIP3    H132042   5.202   6.464  10.546 -1.4292  0.5562 -1.5952
 3517TIP3    H232043   5.158   6.381  10.665  2.5512  1.3120  0.5332
 3518TIP3   OH232044   6.567   6.130  15.917  0.0867 -0.3431 -0.2842
 3518TIP3    H132045   6.563   6.043  15.957  0.5504 -1.3786 -2.3228
 3518TIP3    H232046   6.481   6.168  15.933  0.0969 -0.8858  1.2120
 3519TIP3   OH232047   3.664   2.743  11.391 -0.1640 -0.1040 -0.3360
 3519TIP3    H132048   3.577   2.758  11.428 -0.3978 -1.4652 -0.2774
 3519TIP3    H232049   3.672   2.647  11.388  1.6867 -0.0092  0.4860
 3520TIP3   OH232050   4.738   6.077  13.471 -0.0462 -1.0363 -0.1546
 3520TIP3    H132051   4.654   6.048  13.436 -0.6760 -0.2530  0.6544
 3520TIP3    H232052   4.717   6.158  13.518  1.4555  0.1573 -1.4256
 3521TIP3   OH232053   5.384   0.135   1.280 -0.2873  0.0914  0.6311
 3521TIP3    H132054   5.406   0.125   1.188 -0.9872 -0.2809  0.5009
 3521TIP3    H232055   5.455   0.188   1.316 -0.8882  1.7589 -0.4999
 3522TIP3   OH232056   6.756   5.734  13.782  0.3077  0.2136 -0.0298
 3522TIP3    H132057   6.789   5.812  13.827  2.9238 -0.7260 -0.1818
 3522TIP3    H232058   6.805   5.661  13.820 -0.8644 -1.1854 -1.0814
 3523TIP3   OH232059   1.366   4.371  15.425 -0.5900  0.2071 -0.0320
 3523TIP3    H132060   1.397   4.457  15.398  0.1856  0.7770  2.3995
 3523TIP3    H232061   1.444   4.315  15.420 -0.6770  0.0792  0.0540
 3524TIP3   OH232062   6.787   4.586   3.879  0.6915  0.1692 -0.0799
 3524TIP3    H132063   6.817   4.630   3.959  0.4550 -0.8093  0.5673
 3524TIP3    H232064   6.708   4.539   3.906  1.3893 -1.3272 -0.5049
 3525TIP3   OH232065   1.994   0.299   3.897  0.1917  0.5080 -0.5002
 3525TIP3    H132066   1.950   0.303   3.812  0.5680  1.2440 -0.6645
 3525TIP3    H232067   1.995   0.389   3.928  1.1845  0.4351 -0.2944
 3526TIP3   OH232068   5.887   5.855  11.299  0.5401 -0.0621 -0.2695
 3526TIP3    H132069   5.936   5.777  11.271 -1.8673 -1.1743 -1.6845
 3526TIP3    H232070   5.882   5.847  11.394  0.8578 -1.3122 -0.3394
 3527TIP3   OH232071   3.788   5.340  12.131 -0.9538  0.5476  0.4572
 3527TIP3    H132072   3.875   5.379  12.124 -0.3217 -0.7338  0.8103
 3527TIP3    H232073   3.796   5.256  12.085 -3.0967  1.9962 -2.9461
 3528TIP3   OH232074   6.214   2.595   2.862  0.4816 -0.0676  0.0293
 3528TIP3    H132075   6.250   2.676   2.826  1.2181 -1.0281 -1.5092
 3528TIP3    H232076   6.290   2.551   2.902  0.1699 -0.2042  0.4802
 3529TIP3   OH232077   2.622   3.109   0.976  0.3489 -0.3780  0.2022
 3529TIP3    H132078   2.535   3.126   0.940 -0.5417  0.5206  2.5739
 3529TIP3    H232079   2.677   3.177   0.938 -0.0496 -0.7169 -1.0288
 3530TIP3   OH232080   3.686   5.737  14.150 -0.6048  0.2021  0.9852
 3530TIP3    H132081   3.685   5.646  14.122 -0.4160  0.4229  0.2284
 3530TIP3    H232082   3.597   5.768  14.135 -0.2343  0.6303 -0.4718
 3531TIP3   OH232083   3.899   5.426   0.373 -0.2506  0.0179  0.8632
 3531TIP3    H132084   3.971   5.425   0.436  0.1414 -1.5037  0.4477
 3531TIP3    H232085   3.941   5.442   0.289 -0.4167 -0.6669  0.6449
 3532TIP3   OH232086   3.826   4.406   5.714 -0.5723 -0.5967 -0.2548
 3532TIP3    H132087   3.888   4.380   5.646 -0.4111 -1.3344  0.1556
 3532TIP3    H232088   3.861   4.488   5.748  1.2259 -1.8399  1.1678
 3533TIP3   OH232089   5.334   6.377   3.557 -0.0073 -0.5399  0.4787
 3533TIP3    H132090   5.396   6.352   3.626 -1.4635  0.8002  2.3751
 3533TIP3    H232091   5.250   6.341   3.586 -0.7040  0.2788 -0.4545
 3534TIP3   OH232092   3.920   4.378   6.084  0.1810  0.9008  0.0126
 3534TIP3    H132093   3.828   4.402   6.070  0.1044 -0.5560 -2.7895
 3534TIP3    H232094   3.969   4.455   6.056 -0.1815  0.9094 -0.6267
 3535TIP3   OH232095   1.577   2.185   5.829 -0.1398  0.4036  0.1295
 3535TIP3    H132096   1.543   2.096   5.832  0.6335  0.1102  0.5622
 3535TIP3    H232097   1.564   2.219   5.918  1.6953 -0.1217  0.6492
 3536TIP3   OH232098   2.905   3.783   4.132  0.4507 -0.3520  0.1967
 3536TIP3    H132099   2.979   3.787   4.072 -0.3791 -0.8622 -0.8871
 3536TIP3    H232100   2.901   3.692   4.160  0.6921 -0.1648  0.8782
 3537TIP3   OH232101   4.866   6.546  15.435  0.3847  0.8220 -0.1889
 3537TIP3    H132102   4.946   6.560  15.384  0.0276  0.7252 -0.7861
 3537TIP3    H232103   4.803   6.606  15.396 -0.5504 -0.8258 -1.3639
 3538TIP3   OH232104   3.407   0.971  14.215 -0.1007  0.7810  0.2405
 3538TIP3    H132105   3.501   0.957  14.206 -0.0564  1.3437 -0.2179
 3538TIP3    H232106   3.371   0.883  14.223  0.3856  0.5082 -0.4183
 3539TIP3   OH232107   3.697   6.234   5.827  0.1361  0.3207 -0.3553
 3539TIP3    H132108   3.763   6.175   5.790  2.6858  2.0355  1.1763
 3539TIP3    H232109   3.744   6.284   5.893 -2.3537  2.7870 -0.2867
 3540TIP3   OH232110   1.544   6.505  11.852  0.0517  0.2720 -0.2771
 3540TIP3    H132111   1.521   6.413  11.868  3.2868 -0.5335  0.3941
 3540TIP3    H232112   1.460   6.551  11.857 -1.6628 -2.5584 -0.3224
 3541TIP3   OH232113   3.699   3.073  16.480  0.5553  0.2719 -0.2444
 3541TIP3    H132114   3.744   3.010  16.535  0.3507 -1.7866 -2.2781
 3541TIP3    H232115   3.654   3.019  16.414 -1.3852  2.4430 -0.8331
 3542TIP3   OH232116   1.407   3.286   0.188  0.5368  0.0908  0.7346
 3542TIP3    H132117   1.361   3.208   0.158  1.4563  0.2937 -1.4030
 3542TIP3    H232118   1.499   3.259   0.190  1.0204  1.3833 -1.2195
 3543TIP3   OH232119   6.225   3.917  14.721  0.1892 -0.0000  0.4392
 3543TIP3    H132120   6.300   3.903  14.779  0.5045  0.9344  0.2677
 3543TIP3    H232121   6.157   3.857  14.754  1.5257 -2.0929 -0.3984
 3544TIP3   OH232122   0.000   5.796  14.159  0.7012  0.2785  0.2015
 3544TIP3    H132123  -0.077   5.758  14.200  0.2953  0.5727 -0.2769
 3544TIP3    H232124   0.018   5.741  14.084 -0.4945  1.5513 -1.0848
 3545TIP3   OH232125   1.888   4.666  15.501  0.0505  0.3983 -0.0059
 3545TIP3    H132126   1.825   4.607  15.460  0.6355  0.2858 -0.7694
 3545TIP3    H232127   1.886   4.643  15.594 -1.0293  0.4057 -0.0213
 3546TIP3   OH232128   6.438   4.331   6.224 -0.1730  0.0849 -0.2553
 3546TIP3    H132129   6.512   4.304   6.279 -1.8761 -0.3112  1.9680
 3546TIP3    H232130   6.461   4.419   6.195  2.6772 -1.2332 -2.5171
 3547TIP3   OH232131   6.547   2.846   2.848  0.3117  0.7221  0.5654
 3547TIP3    H132132   6.497   2.884   2.920 -0.0478 -0.6279  1.0417
 3547TIP3    H232133   6.482   2.804   2.792  0.9079 -2.2561  1.9076
 3548TIP3   OH232134   0.076   3.618   3.287 -0.2174  0.5041 -0.5301
 3548TIP3    H132135   0.090   3.635   3.380 -2.4197  0.0250 -0.0503
 3548TIP3    H232136   0.001   3.674   3.264 -0.1485  0.0862 -1.8335
 3549TIP3   OH232137   4.241   1.487  12.062 -0.3642 -0.6107 -0.4360
 3549TIP3    H132138   4.190   1.564  12.038  1.5383  0.9559  0.3148
 3549TIP3    H232139   4.178   1.429  12.104 -1.6332  1.0648  0.0953
 3550TIP3   OH232140   2.709   1.430   5.692  0.1568 -0.4438  0.2461
 3550TIP3    H132141   2.791   1.426   5.742  0.4501 -0.1504 -0.2064
 3550TIP3    H232142   2.641   1.424   5.758  0.5461 -0.7053  0.6285
 3551TIP3   OH232143   4.786   4.613   6.832  0.2999  0.1454 -0.1167
 3551TIP3    H132144   4.697   4.584   6.816 -0.0769  0.1044  1.7494
 3551TIP3    H232145   4.825   4.544   6.886  1.4942  0.1363 -0.9406
 3552TIP3   OH232146   4.261   3.970   3.188  0.1021 -0.2501 -0.2229
 3552TIP3    H132147   4.302   4.051   3.219  0.1492 -0.9999  1.8944
 3552TIP3    H232148   4.276   3.907   3.259  0.0739 -2.1357 -1.8022
 3553TIP3   OH232149   5.233   0.067   4.116 -0.0505  0.1109 -0.5068
 3553TIP3    H132150   5.241   0.011   4.039  0.6417  0.8819 -1.0051
 3553TIP3    H232151   5.192   0.010   4.182 -0.0865 -0.7420 -1.2389
 3554TIP3   OH232152   5.940   3.034   4.132  0.0076 -1.0732  0.0835
 3554TIP3    H132153   5.901   3.064   4.214 -1.0997 -0.2732 -0.7126
 3554TIP3    H232154   5.998   3.105   4.106 -2.3898  0.3907 -1.6491
 3555TIP3   OH232155   4.493   2.688   0.497  1.0148 -0.3282 -0.3803
 3555TIP3    H132156   4.450   2.661   0.577  0.1813 -0.7063 -0.9394
 3555TIP3    H232157   4.587   2.687   0.518  0.7741  0.4480  0.8336
 3556TIP3   OH232158   2.506   6.238   5.240 -0.4682  0.9126 -0.2855
 3556TIP3    H132159   2.543   6.303   5.180 -0.7342 -0.7615 -2.3905
 3556TIP3    H232160   2.448   6.185   5.185 -1.7183  0.0372  1.7464
 3557TIP3   OH232161   5.454   0.440  15.798 -0.2207 -0.1768 -0.3269
 3557TIP3    H132162   5.382   0.494  15.832 -1.0114 -0.7904 -0.9815
 3557TIP3    H232163   5.411   0.373  15.746  0.8725 -0.2289 -1.1934
 3558TIP3   OH232164   3.846   5.376   5.861 -0.2190 -0.2876  0.1019
 3558TIP3    H132165   3.845   5.458   5.813 -0.8341  0.4270  1.3093
 3558TIP3    H232166   3.802   5.314   5.803 -0.3069  0.3724 -0.5521
 3559TIP3   OH232167   6.415   4.610   0.749  0.4510 -0.2275  0.0265
 3559TIP3    H132168   6.457   4.681   0.797 -0.3744 -0.6473  1.4317
 3559TIP3    H232169   6.333   4.594   0.796  0.6187 -2.1227 -0.2482
 3560TIP3   OH232170   4.989   3.981  11.814 -0.5414 -0.2541  0.3942
 3560TIP3    H132171   4.965   3.983  11.906 -0.2480  0.4270  0.4674
 3560TIP3    H232172   5.084   3.989  11.814 -0.4526 -1.2097  0.0568
 3561TIP3   OH232173   2.312   2.354   6.382 -0.5961 -0.0915  0.4389
 3561TIP3    H132174   2.311   2.286   6.315  0.1308  0.4277 -0.1190
 3561TIP3    H232175   2.256   2.320   6.451 -0.2553 -1.2553  0.1708
 3562TIP3   OH232176   1.596   3.962  14.892 -0.0272  0.0553  0.0904
 3562TIP3    H132177   1.644   3.972  14.809 -0.6615  1.1266 -0.1675
 3562TIP3    H232178   1.665   3.960  14.959  0.5189 -1.3400 -0.4833
 3563TIP3   OH232179   2.465   6.027  15.620  0.2363 -0.3527 -0.0275
 3563TIP3    H132180   2.406   5.987  15.557  0.8155 -0.6402 -0.3965
 3563TIP3    H232181   2.486   6.112  15.582  1.5677 -1.0218 -0.8625
 3564TIP3   OH232182   0.711   1.102  11.925 -0.0324  0.0629  0.1851
 3564TIP3    H132183   0.773   1.170  11.952  0.2154 -0.0095 -0.1842
 3564TIP3    H232184   0.627   1.146  11.920  0.1220  0.3425 -0.0317
 3565TIP3   OH232185   6.306   5.670  17.282 -0.1599  0.4300 -0.2287
 3565TIP3    H132186   6.326   5.577  17.279 -1.3783  0.1715 -1.2514
 3565TIP3    H232187   6.256   5.686  17.201  0.6087  2.1038 -0.4106
 3566TIP3   OH232188   4.164   2.541   6.172 -0.1694  0.7534 -0.3784
 3566TIP3    H132189   4.074   2.514   6.187  0.4295 -1.3345 -0.2393
 3566TIP3    H232190   4.190   2.497   6.091  1.6545 -1.3230  1.2149
 3567TIP3   OH232191   5.848   0.222   2.443  0.9952  0.1872 -0.4282
 3567TIP3    H132192   5.849   0.218   2.539  1.8997  0.7139 -0.4024
 3567TIP3    H232193   5.892   0.142   2.415 -1.7256 -1.4056 -0.5087
 3568TIP3   OH232194   2.990   2.479  12.654  0.6080 -0.1063 -0.1393
 3568TIP3    H132195   2.977   2.568  12.621  2.1715  0.4663  0.6621
 3568TIP3    H232196   3.041   2.491  12.735  1.1377 -1.7430 -0.1922
 3569TIP3   OH232197   5.641   1.319  11.111 -0.3708 -0.0734  0.1770
 3569TIP3    H132198   5.614   1.322  11.019  2.1843  0.6859 -0.6607
 3569TIP3    H232199   5.603   1.398  11.149 -0.5956  0.1711 -0.5296
 3570TIP3   OH232200   0.052   1.257   1.499 -0.1938  0.3832 -0.0615
 3570TIP3    H132201  -0.012   1.246   1.568  0.0560  0.3555  0.1670
 3570TIP3    H232202   0.114   1.322   1.533 -0.8399  1.4155 -0.8131
 3571TIP3   OH232203   3.135   2.605  11.171  0.2417 -0.1878  0.1399
 3571TIP3    H132204   3.084   2.569  11.243  1.2156  2.6702  2.4315
 3571TIP3    H232205   3.079   2.672  11.132  0.7399  0.1746  0.0381
 3572TIP3   OH232206   6.021   2.801  12.869  0.2687 -0.5302 -0.1559
 3572TIP3    H132207   6.004   2.878  12.815  0.3673 -0.6846 -0.4088
 3572TIP3    H232208   5.941   2.787  12.919  0.0192 -0.6438 -0.5830
 3573TIP3   OH232209   3.196   6.794   5.314  0.3560 -0.4701 -0.3314
 3573TIP3    H132210   3.180   6.845   5.235  0.6798 -1.1738 -0.8679
 3573TIP3    H232211   3.110   6.759   5.338 -0.1920  1.5988  0.9872
 3574TIP3   OH232212   0.462   3.124   1.188 -1.0854 -0.0524 -0.2620
 3574TIP3    H132213   0.504   3.209   1.172 -0.7792 -0.1879 -0.1942
 3574TIP3    H232214   0.400   3.114   1.116 -1.8654  0.6914  0.2914
 3575TIP3   OH232215   0.615   6.567  15.666 -0.2500 -0.6193  0.3994
 3575TIP3    H132216   0.526   6.595  15.687  0.1872 -0.3089  2.0047
 3575TIP3    H232217   0.668   6.646  15.675 -0.0059 -0.4460 -2.1040
 3576TIP3   OH232218   0.173   0.577  11.919  0.0341 -0.4210 -0.0051
 3576TIP3    H132219   0.137   0.491  11.897  0.6677 -0.5350 -0.6346
 3576TIP3    H232220   0.229   0.599  11.845  2.1654 -0.7499  1.4313
 3577TIP3   OH232221   5.899   0.984  12.739  0.2348  0.6029  0.4801
 3577TIP3    H132222   5.809   0.952  12.735  0.2525  0.4578  1.1346
 3577TIP3    H232223   5.927   0.988  12.647  0.0658 -0.7912  0.3390
 3578TIP3   OH232224   1.042   6.364   2.910  0.2570  0.4687 -0.1242
 3578TIP3    H132225   0.965   6.326   2.953  0.5956  0.0932  0.1569
 3578TIP3    H232226   1.029   6.458   2.916  0.6963  0.4426  1.5288
 3579TIP3   OH232227   2.106   2.354  14.323 -0.3321  0.1035 -0.1331
 3579TIP3    H132228   2.140   2.273  14.359  0.4481  0.6403  0.3672
 3579TIP3    H232229   2.044   2.386  14.388 -0.5016  0.0046 -0.2451
 3580TIP3   OH232230   4.378   3.326   5.294 -0.3145 -0.3419 -0.2875
 3580TIP3    H132231   4.320   3.401   5.307  0.3875  0.2263 -0.3439
 3580TIP3    H232232   4.465   3.365   5.283 -0.1684 -1.0580 -1.9551
 3581TIP3   OH232233   3.127   5.438   2.575  0.6679 -0.4100  0.6467
 3581TIP3    H132234   3.154   5.491   2.650 -1.2924  1.2775  0.2360
 3581TIP3    H232235   3.100   5.354   2.613 -0.1868  0.3796  1.8499
 3582TIP3   OH232236   1.831   0.973   3.703 -0.5857  0.2625 -0.4190
 3582TIP3    H132237   1.866   0.984   3.614  1.1162 -1.7801 -0.0552
 3582TIP3    H232238   1.846   1.058   3.744 -0.2049  0.8358 -1.6736
 3583TIP3   OH232239   3.560   0.931  16.354  0.3010  0.3308  0.2141
 3583TIP3    H132240   3.549   0.982  16.274  0.4108 -0.1287 -0.0999
 3583TIP3    H232241   3.654   0.913  16.359  0.0519 -1.5613 -0.7778
 3584TIP3   OH232242   1.723   6.218  13.513  0.5324 -0.4729 -0.0286
 3584TIP3    H132243   1.763   6.213  13.600 -0.5040 -0.2894  0.4842
 3584TIP3    H232244   1.791   6.253  13.456  1.5415 -1.5066  0.5046
 3585TIP3   OH232245   3.417   1.323  17.144 -0.0985  0.6021  0.2399
 3585TIP3    H132246   3.477   1.388  17.106 -1.2243  2.8570  2.0659
 3585TIP3    H232247   3.336   1.334  17.094 -0.9474  2.1692  1.8618
 3586TIP3   OH232248   3.984   4.685  11.509 -0.1632 -0.2117 -0.1062
 3586TIP3    H132249   4.055   4.672  11.445 -0.1457  3.6708 -1.0820
 3586TIP3    H232250   4.024   4.737  11.579 -1.8159  1.4887 -0.3640
 3587TIP3   OH232251   4.887   5.490   0.988 -0.0065 -0.0514 -0.3814
 3587TIP3    H132252   4.798   5.518   1.008  0.4475  1.2566 -0.0349
 3587TIP3    H232253   4.881   5.451   0.901 -0.5817  2.1624 -1.4276
 3588TIP3   OH232254   3.232   0.697   2.552 -0.5150  0.0378 -0.0239
 3588TIP3    H132255   3.152   0.651   2.576 -0.8359 -0.2059 -1.4864
 3588TIP3    H232256   3.207   0.752   2.478  0.4852  0.5694  0.0163
 3589TIP3   OH232257   2.262   5.617   2.006  0.0001  0.3582  0.0432
 3589TIP3    H132258   2.294   5.568   2.081  0.1511  1.1805  0.5218
 3589TIP3    H232259   2.181   5.571   1.981 -0.9433  1.0080  1.7191
 3590TIP3   OH232260   0.009   5.346  13.160  0.0159  0.0362  0.2970
 3590TIP3    H132261   0.013   5.396  13.079  0.5052 -1.1861 -0.4690
 3590TIP3    H232262   0.100   5.320  13.176 -0.4682 -2.6115 -0.6791
 3591TIP3   OH232263   3.036   5.350  14.275  0.3298  0.8256  0.1731
 3591TIP3    H132264   3.078   5.329  14.192  1.2705  1.8837  0.3589
 3591TIP3    H232265   3.105   5.339  14.340 -0.1504  0.9007  0.7059
 3592TIP3   OH232266   6.070   5.259  12.796 -0.2663 -0.2488 -0.0581
 3592TIP3    H132267   6.004   5.329  12.794  0.3642  0.4063  1.3282
 3592TIP3    H232268   6.095   5.247  12.704 -0.9860  0.7639 -0.3969
 3593TIP3   OH232269   0.245   3.385   1.053 -0.1956  0.0945  0.2901
 3593TIP3    H132270   0.188   3.379   1.129 -1.5696  0.5714 -0.6635
 3593TIP3    H232271   0.187   3.411   0.981  1.1941  0.4263 -0.7599
 3594TIP3   OH232272   6.618   4.943   4.367  0.2762  0.3850 -0.5249
 3594TIP3    H132273   6.524   4.931   4.374  0.2134  1.1624  0.1296
 3594TIP3    H232274   6.649   4.945   4.458  0.9112  0.2106 -0.7285
 3595TIP3   OH232275   6.481   2.591   1.612 -0.0345 -0.0291 -0.0862
 3595TIP3    H132276   6.434   2.516   1.575  0.0563 -1.5780  2.6593
 3595TIP3    H232277   6.413   2.656   1.628 -0.3040  0.0403 -1.4494
 3596TIP3   OH232278   5.267   6.675  17.225 -0.3894 -0.6138  0.2395
 3596TIP3    H132279   5.205   6.630  17.167 -2.9552  0.5892  1.8815
 3596TIP3    H232280   5.236   6.766  17.227  0.7787 -0.2191  1.9649
 3597TIP3   OH232281   0.900   1.000  14.683  0.4957 -0.2707 -0.3813
 3597TIP3    H132282   0.838   0.997  14.757  0.6716 -0.9008 -0.2510
 3597TIP3    H232283   0.852   1.046  14.614  0.0252 -0.4011 -0.1510
 3598TIP3   OH232284   2.918   2.348   0.895  0.1107 -0.1697  0.5408
 3598TIP3    H132285   2.934   2.412   0.827  1.1375 -0.6997  0.2762
 3598TIP3    H232286   2.902   2.266   0.848 -5.0150  0.4537  0.6026
 3599TIP3   OH232287   6.629   3.781   1.857  0.3781  0.1770  0.1802
 3599TIP3    H132288   6.596   3.740   1.937  1.6913  0.8296  1.1062
 3599TIP3    H232289   6.591   3.869   1.858  1.5777  0.7172  0.9270
 3600TIP3   OH232290   1.812   2.524   5.575  0.5159 -0.2835 -0.3049
 3600TIP3    H132291   1.785   2.596   5.519 -2.1442 -1.9879 -1.4526
 3600TIP3    H232292   1.734   2.502   5.625  1.5205 -1.7659  0.7053
 3601TIP3   OH232293   2.299   3.375   3.541 -0.2963 -0.0857 -0.2877
 3601TIP3    H132294   2.324   3.467   3.552 -0.6918  0.0251 -0.3042
 3601TIP3    H232295   2.378   3.333   3.506  0.3917 -0.0714  1.1513
 3602TIP3   OH232296   4.980   4.915  13.365 -0.5284 -0.7291 -0.3021
 3602TIP3    H132297   5.047   4.876  13.421 -0.7403 -0.0748  0.4243
 3602TIP3    H232298   4.932   4.840  13.330  1.6749 -1.3369 -2.2807
 3603TIP3   OH232299   4.443   0.122   3.446  0.1120 -0.6464 -0.0164
 3603TIP3    H132300   4.412   0.209   3.473  0.4793 -0.1510 -1.1414
 3603TIP3    H232301   4.475   0.134   3.357 -0.7215 -2.1549 -0.5575
 3604TIP3   OH232302   3.964   1.678  17.267  0.0278 -0.1441 -0.1680
 3604TIP3    H132303   4.047   1.682  17.220  1.1337  1.3924  1.7532
 3604TIP3    H232304   3.987   1.636  17.350 -1.4330 -0.9782 -0.1632
 3605TIP3   OH232305   1.118   3.593   3.591  0.2098 -0.1713  0.2259
 3605TIP3    H132306   1.139   3.683   3.617 -1.0233  0.2872 -0.2856
 3605TIP3    H232307   1.200   3.560   3.554  0.5911  0.8585  0.0986
 3606TIP3   OH232308   5.644   0.791  16.894 -0.2284 -0.6183 -0.2740
 3606TIP3    H132309   5.610   0.702  16.884 -2.7738  0.4138 -1.8454
 3606TIP3    H232310   5.684   0.811  16.810  2.1802 -0.8864  0.7215
 3607TIP3   OH232311   5.747   1.058  11.088 -0.0938 -0.2547 -0.2586
 3607TIP3    H132312   5.706   1.144  11.095  1.0879  0.2699  0.4613
 3607TIP3    H232313   5.678   1.002  11.053 -1.1798  0.7625  0.1800
 3608TIP3   OH232314   0.782   5.937   3.611  0.7195  0.2111  0.6854
 3608TIP3    H132315   0.717   5.991   3.656 -3.0356 -2.2351 -1.2638
 3608TIP3    H232316   0.810   5.990   3.536 -1.6418  0.1639 -0.2911
 3609TIP3   OH232317   0.808   0.381  15.395 -0.1267 -0.3750  0.0573
 3609TIP3    H132318   0.772   0.312  15.451 -0.2437 -0.9504 -0.7233
 3609TIP3    H232319   0.859   0.335  15.329 -1.2020  0.1892 -1.2122
 3610TIP3   OH232320   3.780   4.983  17.161  0.5050  0.3064 -0.2434
 3610TIP3    H132321   3.810   4.992  17.251 -0.6301  0.5097  0.1340
 3610TIP3    H232322   3.853   4.941  17.115  1.4518  1.0478  0.5479
 3611TIP3   OH232323   5.840   2.328  17.256 -0.4332  0.1112 -0.1124
 3611TIP3    H132324   5.826   2.293  17.168 -0.6696  1.1362 -0.4956
 3611TIP3    H232325   5.785   2.273  17.313 -0.7121 -0.2005 -0.6771
 3612TIP3   OH232326   3.914   5.000   3.795  0.1860 -0.0985 -0.0749
 3612TIP3    H132327   4.005   5.026   3.808  0.7592 -2.6119  1.6697
 3612TIP3    H232328   3.870   5.025   3.876 -0.2456 -0.5515 -0.1693
 3613TIP3   OH232329   5.261   1.510   4.918 -0.1872  0.1780  0.9588
 3613TIP3    H132330   5.302   1.436   4.963 -0.0670  0.4436  1.2859
 3613TIP3    H232331   5.303   1.512   4.832 -1.1079 -0.9397  0.4479
 3614TIP3   OH232332   6.505   2.415  12.725 -0.3163  0.1516  0.3244
 3614TIP3    H132333   6.540   2.488  12.776 -1.3247  1.1502 -0.3695
 3614TIP3    H232334   6.457   2.457  12.653  2.7469 -1.1280 -2.7285
 3615TIP3   OH232335   1.873   6.546  16.304 -0.0361 -0.0051  0.0224
 3615TIP3    H132336   1.819   6.618  16.274 -0.8258 -0.7011 -0.2817
 3615TIP3    H232337   1.939   6.586  16.361  0.8240  1.1933 -1.7489
 3616TIP3   OH232338   0.449   1.738   2.768  0.3987  0.2223 -0.3226
 3616TIP3    H132339   0.409   1.809   2.718 -0.6454  0.0101  0.1903
 3616TIP3    H232340   0.470   1.778   2.853  0.5113  0.1160 -0.3006
 3617TIP3   OH232341   5.852   3.010   2.632 -0.1974  0.6227 -0.4649
 3617TIP3    H132342   5.833   3.036   2.541  2.8060  1.1967 -1.0360
 3617TIP3    H232343   5.839   3.090   2.683 -0.8384  0.5875 -0.5740
 3618TIP3   OH232344   0.435   2.809   1.559 -0.0417 -0.7630  0.0741
 3618TIP3    H132345   0.455   2.817   1.466 -0.0226  1.1834  0.2076
 3618TIP3    H232346   0.376   2.883   1.577 -0.8256 -1.6747  1.4093
 3619TIP3   OH232347   2.576   1.377   3.165 -0.1664  0.1667  0.2477
 3619TIP3    H132348   2.626   1.297   3.185  1.4730  0.6804 -1.5037
 3619TIP3    H232349   2.563   1.418   3.251  3.2642  0.4312  0.7999
 3620TIP3   OH232350   3.074   2.693   0.868  0.2985 -0.4923  0.0399
 3620TIP3    H132351   3.011   2.648   0.812  1.7094  0.4374 -2.4867
 3620TIP3    H232352   3.159   2.656   0.844  1.0540  0.5606  0.9467
 3621TIP3   OH232353   6.679   2.891  16.546  0.1459 -0.5278  0.2553
 3621TIP3    H132354   6.698   2.828  16.476  1.8764  2.0903 -1.8319
 3621TIP3    H232355   6.748   2.875  16.610  1.4221  0.0533 -0.9098
 3622TIP3   OH232356   3.127   6.413  15.898  0.1042  0.3072  0.2750
 3622TIP3    H132357   3.062   6.481  15.880 -0.4535 -0.6259 -1.5138
 3622TIP3    H232358   3.118   6.394  15.991 -0.1280  2.2467  0.6924
 3623TIP3   OH232359   0.769   1.315   6.228 -0.3888 -0.1873 -0.4274
 3623TIP3    H132360   0.855   1.293   6.193 -1.2758 -1.3097 -2.1101
 3623TIP3    H232361   0.727   1.230   6.243 -1.3629  0.3358 -0.0945
 3624TIP3   OH232362   4.042   0.796  15.250  0.2102 -0.6834  0.5613
 3624TIP3    H132363   4.056   0.795  15.345  0.5455 -0.6377  0.5134
 3624TIP3    H232364   3.948   0.781  15.240  0.3740 -2.0259  0.8631
 3625TIP3   OH232365   3.263   6.262  11.126 -0.2026 -0.5992 -0.1106
 3625TIP3    H132366   3.334   6.306  11.079 -0.3740 -0.2670 -0.0591
 3625TIP3    H232367   3.308   6.200  11.184  0.0620 -0.2041  0.1107
 3626TIP3   OH232368   1.774   3.587  16.369  0.1642 -0.2417  0.1569
 3626TIP3    H132369   1.750   3.642  16.444 -1.7598 -0.2193 -0.4178
 3626TIP3    H232370   1.811   3.649  16.306 -1.2847  0.2996 -0.1863
 3627TIP3   OH232371   1.711   3.504  12.273  0.6174  0.6531  0.1165
 3627TIP3    H132372   1.761   3.433  12.232  2.3586  1.6911  0.3195
 3627TIP3    H232373   1.640   3.522  12.211  0.6300 -0.6830 -0.3279
 3628TIP3   OH232374   6.223   3.546   3.505 -0.6679 -0.0283  0.4274
 3628TIP3    H132375   6.164   3.476   3.535 -1.0983  0.9147  1.8944
 3628TIP3    H232376   6.231   3.532   3.411  0.0789 -2.6767  0.7802
 3629TIP3   OH232377   1.365   4.959   4.130 -0.0023 -0.3098  0.0718
 3629TIP3    H132378   1.422   4.887   4.102 -0.1731  0.7192 -3.4527
 3629TIP3    H232379   1.348   4.942   4.222  2.7790 -2.8269  0.2643
 3630TIP3   OH232380   0.473   1.413   4.591  0.5779 -0.0538 -0.4375
 3630TIP3    H132381   0.550   1.467   4.609  0.1073  0.8308 -1.0233
 3630TIP3    H232382   0.464   1.413   4.496 -0.4734  0.3383 -0.3577
 3631TIP3   OH232383   3.971   0.575   4.356  0.0759  0.0677  0.0552
 3631TIP3    H132384   4.059   0.609   4.337  0.0202 -0.9516 -2.5365
 3631TIP3    H232385   3.974   0.550   4.448  1.0144  4.1383  1.3222
 3632TIP3   OH232386   2.120   4.731   4.562  0.3733  0.1843  0.0441
 3632TIP3    H132387   2.047   4.713   4.622  1.3070 -0.8458  0.9192
 3632TIP3    H232388   2.099   4.682   4.483  0.2418 -0.3574  0.4053
 3633TIP3   OH232389   1.925   2.273   1.409 -0.1580 -0.0856 -0.1939
 3633TIP3    H132390   1.907   2.257   1.502  1.0280  0.6078  0.1828
 3633TIP3    H232391   1.844   2.312   1.376 -0.7527 -0.7550  0.4301
 3634TIP3   OH232392   2.289   1.845   4.785  0.2048 -0.2628 -0.4295
 3634TIP3    H132393   2.323   1.766   4.742  1.0806 -0.9424  1.4339
 3634TIP3    H232394   2.245   1.813   4.864  0.4437  1.0960  0.2888
 3635TIP3   OH232395   4.672   4.746  16.556  0.2356 -0.2720  0.4179
 3635TIP3    H132396   4.668   4.783  16.468  0.2186 -1.7573 -0.2167
 3635TIP3    H232397   4.657   4.822  16.613  0.0590  0.6837 -0.8377
 3636TIP3   OH232398   3.014   6.380   4.002 -0.7403  0.5326  0.1840
 3636TIP3    H132399   3.066   6.433   3.942  0.6198 -1.6968 -0.7368
 3636TIP3    H232400   3.069   6.371   4.080 -1.5081  1.4762  0.8565
 3637TIP3   OH232401   1.499   3.865  12.172  0.4689  0.5558  0.1497
 3637TIP3    H132402   1.504   3.771  12.190  0.7274  0.4924 -0.2492
 3637TIP3    H232403   1.424   3.895  12.223 -0.2770 -0.0589 -0.5606
 3638TIP3   OH232404   6.552   4.414   2.942 -0.0761  0.5287 -0.0823
 3638TIP3    H132405   6.470   4.391   2.985  1.3115 -1.4875  1.6816
 3638TIP3    H232406   6.570   4.341   2.883  0.6226  0.7950 -0.2075
 3639TIP3   OH232407   1.319   0.540  17.256  0.2727 -0.3582 -0.1675
 3639TIP3    H132408   1.371   0.459  17.253  1.6199  0.4677 -0.4625
 3639TIP3    H232409   1.355   0.589  17.330  2.2150  1.6108 -2.2066
 3640TIP3   OH232410   1.874   2.030  15.620  0.1310 -0.0418 -0.0683
 3640TIP3    H132411   1.954   1.979  15.629 -0.2276 -0.3738  1.7185
 3640TIP3    H232412   1.852   2.056  15.710 -2.5347 -1.1660 -0.3002
 3641TIP3   OH232413   1.750   0.369  16.605  0.2926  0.5738  0.0940
 3641TIP3    H132414   1.704   0.415  16.535  1.2129  1.6393  0.1474
 3641TIP3    H232415   1.696   0.380  16.683 -0.2827  0.1671 -0.2421
 3642TIP3   OH232416   4.955   4.639   3.000  0.1855 -0.2443  0.4138
 3642TIP3    H132417   4.865   4.664   3.023  0.7461  0.4422  2.0282
 3642TIP3    H232418   5.009   4.707   3.039  1.4330 -0.8354 -0.2481
 3643TIP3   OH232419   3.262   4.900  14.869  0.1030  0.3892  0.2402
 3643TIP3    H132420   3.174   4.880  14.835  0.3899  0.6035 -0.6728
 3643TIP3    H232421   3.248   4.918  14.962 -0.7102 -0.3145  0.2747
 3644TIP3   OH232422   5.954   2.377   1.108 -0.4380  0.1242  0.2273
 3644TIP3    H132423   5.885   2.351   1.169 -0.5048 -0.5902 -0.1375
 3644TIP3    H232424   5.910   2.430   1.041 -0.6885 -0.5292 -0.1361
 3645TIP3   OH232425   6.319   3.387  15.526  0.6648  0.2432  0.3582
 3645TIP3    H132426   6.339   3.478  15.544  0.3582  0.8792 -2.1672
 3645TIP3    H232427   6.401   3.350  15.493  0.4164  0.0473 -0.0603
 3646TIP3   OH232428   3.862   4.265   2.990  0.4321  0.1383 -0.2446
 3646TIP3    H132429   3.794   4.222   2.940 -0.2085  1.3721 -0.4827
 3646TIP3    H232430   3.936   4.272   2.930  0.7838 -1.1705  0.0041
 3647TIP3   OH232431   1.020   2.303   4.767  0.3176 -0.4722 -0.1180
 3647TIP3    H132432   1.008   2.398   4.762  1.8429 -0.1652  1.4791
 3647TIP3    H232433   0.941   2.271   4.811 -0.1257  0.0568 -0.5161
 3648TIP3   OH232434   3.723   5.324  10.510  0.0040 -0.2683  0.2148
 3648TIP3    H132435   3.631   5.348  10.498  0.0804  0.2884  0.7040
 3648TIP3    H232436   3.769   5.366  10.437 -0.3215 -1.8640 -0.9699
 3649TIP3   OH232437   3.401   0.440   0.989 -0.0357 -0.4413  0.1677
 3649TIP3    H132438   3.398   0.515   1.049 -2.6012  0.7630 -1.2577
 3649TIP3    H232439   3.481   0.453   0.938 -0.4561  1.4315 -0.0964
 3650TIP3   OH232440   1.995   2.836   2.498  0.6531 -0.1938  0.5317
 3650TIP3    H132441   1.933   2.773   2.459  1.1113  0.9627 -2.2593
 3650TIP3    H232442   1.945   2.917   2.505  1.4449  0.3995 -0.5087
 3651TIP3   OH232443   3.939   4.112   1.319 -0.2225 -0.0549 -0.6666
 3651TIP3    H132444   3.988   4.090   1.240 -0.9980 -1.3620 -0.8165
 3651TIP3    H232445   3.874   4.042   1.327 -0.0283 -0.0617  1.2547
 3652TIP3   OH232446   4.301   1.927  15.121 -0.4823  0.3022 -0.5722
 3652TIP3    H132447   4.366   1.893  15.182 -0.2193  1.5474 -0.1153
 3652TIP3    H232448   4.277   2.012  15.157 -0.6184  0.8943 -1.9888
 3653TIP3   OH232449   6.811   6.544   5.710  1.2010 -0.6889 -0.3568
 3653TIP3    H132450   6.838   6.590   5.789  1.0957 -2.5142  0.8219
 3653TIP3    H232451   6.729   6.501   5.735  1.3932 -1.6551 -1.3030
 3654TIP3   OH232452   2.821   4.429  13.645  0.7176  0.1565  0.6605
 3654TIP3    H132453   2.892   4.472  13.598  0.8968 -0.6691  0.1555
 3654TIP3    H232454   2.745   4.486  13.632  1.0354  0.4957  0.3011
 3655TIP3   OH232455   3.121   4.982   4.630  0.1559 -0.0391 -0.2897
 3655TIP3    H132456   3.157   5.068   4.654 -0.4768  1.3542 -3.6615
 3655TIP3    H232457   3.162   4.963   4.545 -0.8698 -2.3848 -0.3086
 3656TIP3   OH232458   0.334   5.639   6.341 -0.0005 -0.2258 -0.2162
 3656TIP3    H132459   0.385   5.716   6.367  0.7135 -0.3299 -1.2539
 3656TIP3    H232460   0.243   5.664   6.358  0.2000  0.9498 -0.7642
 3657TIP3   OH232461   3.103   2.349  11.037  0.4113 -0.0507  0.0180
 3657TIP3    H132462   3.104   2.358  10.942  0.7301 -1.8849 -0.2060
 3657TIP3    H232463   3.091   2.438  11.071 -1.5309  0.4408 -1.7529
 3658TIP3   OH232464   2.220   1.308   3.213 -0.8525  0.0264  0.1781
 3658TIP3    H132465   2.193   1.286   3.125  0.0774 -2.0417  0.3418
 3658TIP3    H232466   2.204   1.402   3.221 -0.3560  0.3925 -2.3914
 3659TIP3   OH232467   4.278   2.559  16.252 -0.3176 -0.4055  0.4595
 3659TIP3    H132468   4.268   2.466  16.270  0.8874 -0.5971  0.2692
 3659TIP3    H232469   4.194   2.587  16.218 -1.3185 -0.9818  2.3110
 3660TIP3   OH232470   3.293   3.659  13.073  0.5054  0.5204 -0.5987
 3660TIP3    H132471   3.364   3.684  13.131  1.1829 -0.3717 -1.0138
 3660TIP3    H232472   3.268   3.740  13.029  2.1461  0.6347 -1.3883
 3661TIP3   OH232473   6.236   0.112   1.650 -0.2834 -0.3436  0.1231
 3661TIP3    H132474   6.187   0.034   1.674 -0.8215  0.3018  1.2138
 3661TIP3    H232475   6.324   0.081   1.630 -0.5462 -1.2477  0.3507
 3662TIP3   OH232476   5.828   1.202  16.686  0.1656 -0.0124  0.2302
 3662TIP3    H132477   5.891   1.255  16.734  0.2136 -0.2170  0.3946
 3662TIP3    H232478   5.804   1.255  16.611  1.2162 -0.2978 -0.3322
 3663TIP3   OH232479   2.862   5.870   3.197  0.6945 -0.3667  0.0305
 3663TIP3    H132480   2.904   5.834   3.119  1.1834  2.8043 -1.3338
 3663TIP3    H232481   2.922   5.937   3.227 -0.1606 -0.5766  2.3608
 3664TIP3   OH232482   1.296   4.990   2.326  0.2090 -0.6797  0.4990
 3664TIP3    H132483   1.351   5.029   2.395 -0.3372 -0.6688  0.9397
 3664TIP3    H232484   1.216   5.043   2.328  0.9841  0.7179 -1.6093
 3665TIP3   OH232485   5.040   6.072   1.669 -0.1135  0.2364 -0.4514
 3665TIP3    H132486   5.076   5.984   1.678  0.6439  0.5037 -0.8128
 3665TIP3    H232487   4.984   6.067   1.591  0.2555  0.1790 -0.7153
 3666TIP3   OH232488   1.105   0.145   1.037 -0.0237  0.2190 -0.1488
 3666TIP3    H132489   1.057   0.186   1.108 -0.5053 -1.8018  0.7668
 3666TIP3    H232490   1.060   0.174   0.958 -0.7538  0.8992  0.4954
 3667TIP3   OH232491   0.574   2.936   3.393  0.5834  0.3430  0.0663
 3667TIP3    H132492   0.566   2.897   3.306 -0.8303  0.2761  0.2130
 3667TIP3    H232493   0.657   2.984   3.389  1.2856 -0.8721 -0.8168
 3668TIP3   OH232494   0.694   0.647   6.036  0.0941  0.7622  0.1147
 3668TIP3    H132495   0.782   0.639   6.072  1.6191 -0.6711 -3.4054
 3668TIP3    H232496   0.693   0.733   5.995 -0.4004  1.0386  0.6986
 3669TIP3   OH232497   3.902   6.197  12.816  0.0819 -0.3146  0.3550
 3669TIP3    H132498   3.893   6.214  12.910  0.4632 -0.1413  0.3635
 3669TIP3    H232499   3.996   6.205  12.799  0.2617 -2.1390  0.2923
 3670TIP3   OH232500   6.407   3.703  14.417 -0.5648 -0.3111  0.7940
 3670TIP3    H132501   6.393   3.616  14.379 -0.2168  0.5841 -1.5252
 3670TIP3    H232502   6.500   3.720  14.405 -0.6954  0.5211  0.9360
 3671TIP3   OH232503   0.138   1.915  11.429 -0.1623 -0.3667 -0.1023
 3671TIP3    H132504   0.048   1.927  11.398 -0.6290 -0.7721  1.0473
 3671TIP3    H232505   0.165   2.001  11.459 -0.5071 -0.4289  0.4007
 3672TIP3   OH232506   6.601   6.223   4.853 -0.3623  0.1122 -0.2023
 3672TIP3    H132507   6.612   6.132   4.826 -1.0380 -0.0684  0.1088
 3672TIP3    H232508   6.518   6.249   4.814 -0.3925  0.4528  0.0897
 3673TIP3   OH232509   1.381   5.578  14.901 -0.6036  0.0944 -0.4456
 3673TIP3    H132510   1.441   5.631  14.849 -0.9747  0.8302 -0.1430
 3673TIP3    H232511   1.371   5.497  14.852 -0.2672  0.4322 -1.0783
 3674TIP3   OH232512   6.041   4.581   3.868  0.4322  0.4242 -0.3211
 3674TIP3    H132513   6.111   4.527   3.832 -0.8694 -1.2673 -0.4234
 3674TIP3    H232514   5.980   4.519   3.907 -0.4879  1.9208  0.7479
 3675TIP3   OH232515   4.507   5.469   1.649  0.0185 -0.3677 -0.7802
 3675TIP3    H132516   4.545   5.448   1.564  2.4194 -1.0319  0.3702
 3675TIP3    H232517   4.567   5.533   1.687 -1.0838  0.0214  0.3675
 3676TIP3   OH232518   1.083   2.038   4.990  0.4220  0.3157  0.2933
 3676TIP3    H132519   0.988   2.047   4.981  0.4166 -0.5561 -0.6658
 3676TIP3    H232520   1.097   1.945   5.002  1.1867  0.4160  0.1820
 3677TIP3   OH232521   1.502   4.239  12.798  0.1557  0.0390 -0.7896
 3677TIP3    H132522   1.511   4.161  12.853 -0.4786  0.8764  0.5863
 3677TIP3    H232523   1.432   4.217  12.737 -1.0741  0.0058  0.5643
 3678TIP3   OH232524   1.593   2.892  16.582 -0.1361 -0.2189  0.6599
 3678TIP3    H132525   1.639   2.946  16.517  0.8940 -1.5587  0.2255
 3678TIP3    H232526   1.603   2.802  16.550  0.7507 -0.9719  2.8732
 3679TIP3   OH232527   6.092   5.606   1.595 -0.4046  0.4089 -0.1459
 3679TIP3    H132528   6.088   5.675   1.529 -0.2955  1.5650  1.0111
 3679TIP3    H232529   6.011   5.615   1.644 -0.5544 -0.5405 -0.2093
 3680TIP3   OH232530   4.677   2.792  15.847 -0.3543 -0.0999  0.2858
 3680TIP3    H132531   4.715   2.853  15.911 -1.8263  2.3573 -1.0276
 3680TIP3    H232532   4.743   2.787  15.778  0.0842 -0.6071  0.7338
 3681TIP3   OH232533   4.587   2.402  14.437 -0.6430  0.0466  0.8856
 3681TIP3    H132534   4.551   2.313  14.432 -1.0047  0.2573 -1.5176
 3681TIP3    H232535   4.590   2.431  14.346  3.0494  1.1015  1.2120
 3682TIP3   OH232536   4.804   5.915   4.452  0.0630 -0.3003 -0.5973
 3682TIP3    H132537   4.876   5.906   4.390 -0.3239 -1.2317 -0.9231
 3682TIP3    H232538   4.745   5.843   4.431 -0.5669 -0.0277  0.1972
 3683TIP3   OH232539   0.385   5.237   2.993  0.2890  0.5578 -0.3998
 3683TIP3    H132540   0.338   5.247   3.076  1.4362  2.3447  0.0785
 3683TIP3    H232541   0.434   5.155   3.004 -1.5814 -0.6266 -0.3935
 3684TIP3   OH232542   2.431   5.629  10.527 -0.1968 -0.7290  0.1911
 3684TIP3    H132543   2.456   5.714  10.564  0.3448 -1.1915  0.9410
 3684TIP3    H232544   2.488   5.618  10.451  0.5605 -0.9294  0.7776
 3685TIP3   OH232545   0.029   1.894   2.219 -0.5947 -0.0191 -0.3663
 3685TIP3    H132546  -0.036   1.965   2.225 -0.1627  0.2399  3.1562
 3685TIP3    H232547   0.029   1.854   2.305  2.3845 -1.4490 -0.8972
 3686TIP3   OH232548   2.704   0.622   4.878  0.1295 -0.0510 -0.0311
 3686TIP3    H132549   2.638   0.559   4.907  1.4321 -1.6860 -0.4715
 3686TIP3    H232550   2.692   0.628   4.783  0.1724  0.1615 -0.0237
 3687TIP3   OH232551   0.924   3.981  12.320  0.6742 -0.1333  0.3954
 3687TIP3    H132552   1.001   3.975  12.263  0.7231  0.9782  0.3165
 3687TIP3    H232553   0.882   4.063  12.293 -0.1985 -0.4229  0.8602
 3688TIP3   OH232554   4.183   1.169  15.181  0.4659  0.1432 -0.3751
 3688TIP3    H132555   4.258   1.114  15.157  0.3792 -0.2760  0.2923
 3688TIP3    H232556   4.128   1.112  15.235 -0.5400  0.3144 -1.1795
 3689TIP3   OH232557   5.595   0.096   2.454 -1.0134  0.0505 -0.3197
 3689TIP3    H132558   5.662   0.149   2.411 -0.2269 -0.9557 -0.3816
 3689TIP3    H232559   5.524   0.157   2.473  0.5967  1.5601  1.2961
 3690TIP3   OH232560   5.605   4.657  13.911 -0.5125  0.0955 -0.3126
 3690TIP3    H132561   5.518   4.676  13.877  0.1855  1.2354 -1.5736
 3690TIP3    H232562   5.661   4.654  13.833  0.6279 -0.3668  0.4929
 3691TIP3   OH232563   2.065   5.725  16.322 -0.1184  0.3208 -0.3865
 3691TIP3    H132564   2.031   5.636  16.320 -0.5409  0.4033 -3.6697
 3691TIP3    H232565   2.154   5.718  16.288 -0.5613  1.1820 -1.8688
 3692TIP3   OH232566   5.493   5.340  13.197  0.0489  0.0914 -0.3217
 3692TIP3    H132567   5.489   5.421  13.145  1.2205 -0.0293 -0.6310
 3692TIP3    H232568   5.575   5.299  13.171 -1.5369 -2.3617 -1.8110
 3693TIP3   OH232569   0.664   3.951   0.966  0.2479 -0.3155 -0.3416
 3693TIP3    H132570   0.643   3.888   1.035  0.5309  1.2710  1.2667
 3693TIP3    H232571   0.598   3.935   0.899 -0.6380 -1.2770  0.7040
 3694TIP3   OH232572   1.540   4.458   2.845  0.2022 -0.4505  0.1111
 3694TIP3    H132573   1.600   4.383   2.836 -1.0175 -1.5374  0.7361
 3694TIP3    H232574   1.457   4.419   2.873 -1.0635  0.9188 -1.5463
 3695TIP3   OH232575   1.010   0.964  13.105  0.0801  0.1361 -0.3848
 3695TIP3    H132576   1.034   1.055  13.121 -0.1285 -0.1088  1.5921
 3695TIP3    H232577   0.926   0.953  13.149  0.6397 -1.2848  0.4054
 3696TIP3   OH232578   0.181   3.392   4.425  0.5642 -0.2396 -0.1496
 3696TIP3    H132579   0.185   3.313   4.372 -2.2899 -0.5489 -0.0801
 3696TIP3    H232580   0.215   3.366   4.511  3.8040 -0.1257 -1.2884
 3697TIP3   OH232581   3.065   1.081  12.961  0.5639 -0.0289 -0.4099
 3697TIP3    H132582   2.994   1.134  12.995 -0.1390 -0.8976 -0.4953
 3697TIP3    H232583   3.025   1.027  12.893  0.7623 -2.1786  1.0623
 3698TIP3   OH232584   5.619   5.629  15.182 -0.1183 -0.3929  0.5211
 3698TIP3    H132585   5.653   5.607  15.095  1.0128 -0.8192  1.0467
 3698TIP3    H232586   5.544   5.572  15.194 -0.2339 -0.3903 -0.1423
 3699TIP3   OH232587   3.146   5.243   5.008  0.2657  0.3419 -0.2753
 3699TIP3    H132588   3.182   5.210   4.926  0.8693 -0.0946  0.1560
 3699TIP3    H232589   3.208   5.312   5.035  1.4298 -1.1382  1.0152
 3700TIP3   OH232590   5.789   2.904   0.498  0.2758 -0.0626 -0.3009
 3700TIP3    H132591   5.821   2.950   0.575  0.3066  1.4330 -1.1654
 3700TIP3    H232592   5.865   2.855   0.465  0.5835  0.2504 -0.0578
 3701TIP3   OH232593   1.674   2.238   2.919 -0.1083  0.2574 -0.2209
 3701TIP3    H132594   1.701   2.146   2.927  0.6245  0.3366 -1.5701
 3701TIP3    H232595   1.599   2.236   2.860 -1.5526  0.3281  1.5041
 3702TIP3   OH232596   0.854   4.598   4.509  0.4901 -0.5347 -0.8423
 3702TIP3    H132597   0.891   4.520   4.466  0.4003 -0.3998 -1.1727
 3702TIP3    H232598   0.821   4.651   4.436 -1.8139 -1.3700 -0.5043
 3703TIP3   OH232599   1.148   4.057  11.815  0.0372 -0.5311 -0.1913
 3703TIP3    H132600   1.067   4.006  11.815 -1.0133  1.0601  0.6173
 3703TIP3    H232601   1.178   4.053  11.724 -0.8464 -1.3218 -0.4625
 3704TIP3   OH232602   0.661   3.533   2.964 -1.1182 -0.2799  0.0488
 3704TIP3    H132603   0.750   3.543   2.930 -1.2395  0.9912  0.0466
 3704TIP3    H232604   0.649   3.438   2.973  0.3546 -0.4533  0.4048
 3705TIP3   OH232605   4.853   5.488  10.521 -0.2810  0.4265 -0.2132
 3705TIP3    H132606   4.801   5.493  10.440  0.4887  1.1200 -0.6806
 3705TIP3    H232607   4.823   5.408  10.564  1.1448 -1.4712 -2.4916
 3706TIP3   OH232608   0.153   4.711   0.465  0.1762 -0.2880 -0.2007
 3706TIP3    H132609   0.120   4.789   0.511 -0.4572 -0.2627 -0.6898
 3706TIP3    H232610   0.225   4.744   0.412  0.0493 -0.0666 -0.2400
 3707TIP3   OH232611   6.446   3.761   3.530  0.1602 -1.2172 -0.2084
 3707TIP3    H132612   6.482   3.827   3.470  0.6284 -0.3707  0.9735
 3707TIP3    H232613   6.355   3.788   3.543  0.9116  0.6263  2.0491
 3708TIP3   OH232614   1.687   5.772  12.064  0.2991 -0.3314  0.1719
 3708TIP3    H132615   1.739   5.787  11.984  0.2908 -2.2290 -0.2357
 3708TIP3    H232616   1.735   5.818  12.132  1.5096 -0.4599 -0.5573
 3709TIP3   OH232617   2.104   2.523   6.598 -0.1321  0.2196 -0.5000
 3709TIP3    H132618   2.097   2.431   6.572  1.7649 -0.4715  1.1196
 3709TIP3    H232619   2.070   2.525   6.688  0.3806  0.9728 -0.3085
 3710TIP3   OH232620   0.247   5.515  17.059 -0.3782  0.1821 -0.1583
 3710TIP3    H132621   0.291   5.445  17.010 -1.3405 -0.5032 -0.0667
 3710TIP3    H232622   0.318   5.575  17.082  0.5540 -0.9781  0.1313
 3711TIP3   OH232623   2.358   5.704   5.956 -0.2404 -0.1378  0.1929
 3711TIP3    H132624   2.283   5.763   5.958 -0.3145 -0.2310  0.1254
 3711TIP3    H232625   2.343   5.647   5.880  1.4813  1.9381 -1.8654
 3712TIP3   OH232626   2.026   3.467  13.250 -0.6521 -0.7467 -0.1208
 3712TIP3    H132627   2.097   3.407  13.274 -0.8138 -0.3512  1.4637
 3712TIP3    H232628   1.946   3.422  13.278 -0.8416 -0.2000  0.2366
 3713TIP3   OH232629   0.686   1.203   3.974  0.1614  0.5715 -0.8530
 3713TIP3    H132630   0.677   1.166   3.886  3.3501 -0.4266 -0.8876
 3713TIP3    H232631   0.603   1.182   4.017 -0.6398 -0.8687 -2.9371
 3714TIP3   OH232632   5.899   5.076   4.641  0.0234  0.8248  0.7950
 3714TIP3    H132633   5.866   5.161   4.611 -0.1282  0.7408  0.7231
 3714TIP3    H232634   5.990   5.093   4.664 -0.2469  1.2070  1.6314
 3715TIP3   OH232635   6.329   1.764  11.064 -0.3166  0.3371  0.0429
 3715TIP3    H132636   6.263   1.706  11.026  0.3472  0.9214 -2.1132
 3715TIP3    H232637   6.335   1.838  11.003  2.0164  0.5273  0.4074
 3716TIP3   OH232638   1.864   1.879   2.651  0.0420 -0.5291 -0.2865
 3716TIP3    H132639   1.857   1.877   2.556 -0.8918  2.2338 -0.3580
 3716TIP3    H232640   1.958   1.893   2.668 -0.1409  1.9612 -0.9805
 3717TIP3   OH232641   3.891   4.615  14.470 -0.2737 -0.4774 -0.5109
 3717TIP3    H132642   3.822   4.578  14.526 -0.5827 -0.5323 -0.9220
 3717TIP3    H232643   3.973   4.580  14.506 -0.6077 -2.4738 -1.5387
 3718TIP3   OH232644   4.437   4.050   5.116  0.7879  0.5249  0.2272
 3718TIP3    H132645   4.531   4.031   5.107  0.7813 -0.4987  1.8963
 3718TIP3    H232646   4.434   4.127   5.172  0.6154  0.2304  0.6215
 3719TIP3   OH232647   3.934   5.296   1.954 -0.0365  0.5391 -0.1186
 3719TIP3    H132648   3.981   5.213   1.965  0.4138  0.8464  0.3236
 3719TIP3    H232649   3.996   5.363   1.983 -0.3175  1.0537 -0.6715
 3720TIP3   OH232650   6.436   6.778   4.423 -0.2513 -0.4804  0.1611
 3720TIP3    H132651   6.483   6.719   4.363  1.0224  0.9631 -0.3235
 3720TIP3    H232652   6.482   6.770   4.506  1.1254  1.1242 -0.3792
 3721TIP3   OH232653   4.136   0.531  14.824  0.0160  0.0103  0.2638
 3721TIP3    H132654   4.173   0.615  14.798  0.7252  0.1779  1.7167
 3721TIP3    H232655   4.165   0.519  14.914  0.2200 -1.9634 -0.0274
 3722TIP3   OH232656   4.169   5.328   0.619 -0.0915  0.5912  0.1474
 3722TIP3    H132657   4.264   5.322   0.608  0.1806  0.3057  2.1432
 3722TIP3    H232658   4.133   5.257   0.566  0.7271  1.2091 -1.2749
 3723TIP3   OH232659   0.762   1.338  14.724 -0.1724  0.1140  0.5339
 3723TIP3    H132660   0.804   1.273  14.668  2.3862  1.4643  0.7535
 3723TIP3    H232661   0.806   1.331  14.809  1.1324  2.8966  0.2177
 3724TIP3   OH232662   6.142   2.298  16.904  0.0413  0.6530  0.3728
 3724TIP3    H132663   6.186   2.367  16.853  0.9587 -0.7561 -0.8167
 3724TIP3    H232664   6.061   2.282  16.856 -0.2796  1.0543  0.7794
 3725TIP3   OH232665   3.039   0.002  14.210 -0.3294  0.3360  0.4785
 3725TIP3    H132666   3.086   0.085  14.199  0.1532 -0.0813 -0.8837
 3725TIP3    H232667   2.952   0.027  14.242  0.0486  1.3004  0.7792
 3726TIP3   OH232668   3.052   2.956   0.288  0.2530  0.5348  0.2369
 3726TIP3    H132669   3.102   2.978   0.367 -1.3314 -0.6817  1.6782
 3726TIP3    H232670   2.996   3.032   0.273 -0.0737  0.4244  0.8540
 3727TIP3   OH232671   4.624   3.497  12.954 -0.6712 -0.5376  0.1267
 3727TIP3    H132672   4.680   3.497  13.032  0.4957 -2.2886 -0.6383
 3727TIP3    H232673   4.538   3.471  12.986 -0.6570  0.4972  1.0710
 3728TIP3   OH232674   4.977   4.795  12.066  0.4481  0.6270  0.3174
 3728TIP3    H132675   5.046   4.789  12.000  0.7999 -0.4116  0.7467
 3728TIP3    H232676   5.020   4.836  12.142  0.2537  1.1084  0.1716
 3729TIP3   OH232677   1.277   6.050   0.358 -0.2791 -0.3709 -0.6895
 3729TIP3    H132678   1.302   6.141   0.342 -1.7034 -0.0874 -1.4630
 3729TIP3    H232679   1.360   6.002   0.359  0.3798  0.6969 -1.8653
 3730TIP3   OH232680   5.598   4.441   0.747 -0.5975 -0.4247  0.7885
 3730TIP3    H132681   5.634   4.446   0.658  1.8568  1.2771  1.7665
 3730TIP3    H232682   5.504   4.426   0.734 -0.3133 -0.2715 -2.0809
 3731TIP3   OH232683   1.527   3.828   3.180 -0.4002  0.0503 -0.0906
 3731TIP3    H132684   1.586   3.903   3.187  0.4124 -0.6930  1.4291
 3731TIP3    H232685   1.577   3.761   3.134 -0.9943  0.2729 -1.1061
 3732TIP3   OH232686   1.211   6.245   5.533  0.1879 -0.4285 -0.3462
 3732TIP3    H132687   1.228   6.167   5.587 -0.0488 -1.9632 -2.3872
 3732TIP3    H232688   1.294   6.294   5.536 -0.0835  0.0003  2.0440
 3733TIP3   OH232689   4.357   1.292   2.350 -0.2623 -0.3769 -0.0669
 3733TIP3    H132690   4.262   1.282   2.343 -0.1195 -2.2725  0.2913
 3733TIP3    H232691   4.369   1.381   2.386 -1.9071 -0.2734  0.3049
 3734TIP3   OH232692   2.753   3.338  12.431 -0.0449 -0.2274 -0.5757
 3734TIP3    H132693   2.751   3.425  12.471 -0.3092  0.2959 -1.7007
 3734TIP3    H232694   2.764   3.278  12.505  0.2617  0.7649  0.2031
 3735TIP3   OH232695   4.393   5.270  14.874  0.5437  0.4067 -0.4889
 3735TIP3    H132696   4.310   5.233  14.843  0.2464  0.4908  0.1865
 3735TIP3    H232697   4.429   5.204  14.933  0.4923  0.7662 -0.0483
 3736TIP3   OH232698   0.259   3.579   2.344  0.1292  0.2384  0.3681
 3736TIP3    H132699   0.181   3.633   2.333 -0.0990  0.0131  0.8259
 3736TIP3    H232700   0.283   3.552   2.256 -0.3573  0.2445  0.2336
 3737TIP3   OH232701   6.109   2.219  17.230 -0.1198 -0.1655  0.4946
 3737TIP3    H132702   6.108   2.253  17.140  2.3989 -0.4822  0.2954
 3737TIP3    H232703   6.031   2.258  17.270 -0.4287  1.2945 -1.3599
 3738TIP3   OH232704   3.996   0.327   0.165 -0.1312 -0.3479 -0.3971
 3738TIP3    H132705   3.965   0.282   0.243  2.0270  0.8430  1.2706
 3738TIP3    H232706   3.960   0.415   0.173 -0.7253 -0.5055 -1.2947
 3739TIP3   OH232707   2.531   5.368  14.381  0.1773 -0.6293  0.5615
 3739TIP3    H132708   2.610   5.322  14.409 -0.5447 -1.9631  0.4603
 3739TIP3    H232709   2.563   5.453  14.350  1.5330 -1.0246  0.8035
 3740TIP3   OH232710   6.084   3.045   3.131  0.1095 -0.7510 -0.4022
 3740TIP3    H132711   6.114   3.107   3.198  0.4517  0.0202 -1.2477
 3740TIP3    H232712   5.990   3.063   3.122 -0.1481 -1.5298  0.5467
 3741TIP3   OH232713   4.825   0.203  15.174  0.3358 -0.7712 -0.0390
 3741TIP3    H132714   4.744   0.170  15.211  0.6350 -1.5147 -0.0239
 3741TIP3    H232715   4.870   0.125  15.140  0.3381 -0.1950 -1.4484
 3742TIP3   OH232716   2.714   4.643   2.009 -0.6564 -0.6089  0.4142
 3742TIP3    H132717   2.699   4.722   2.061  0.1367 -0.2962  0.1793
 3742TIP3    H232718   2.773   4.671   1.939 -0.4526 -1.3827  0.2672
 3743TIP3   OH232719   4.286   4.628  12.527  0.5881 -0.1580 -0.1000
 3743TIP3    H132720   4.379   4.605  12.522  0.2995 -1.2400 -0.7575
 3743TIP3    H232721   4.286   4.722  12.548  1.8149 -0.3151  0.7100
 3744TIP3   OH232722   4.789   4.261   2.814  0.0360  0.5291  0.1245
 3744TIP3    H132723   4.861   4.204   2.786  0.0792 -1.5564  3.8400
 3744TIP3    H232724   4.824   4.350   2.804  2.2155 -0.3097 -0.4056
 3745TIP3   OH232725   2.723   2.665  13.227  0.1529 -0.5870 -0.2578
 3745TIP3    H132726   2.664   2.645  13.154 -2.1540 -1.6370  1.7595
 3745TIP3    H232727   2.771   2.743  13.198 -0.6335 -0.9682 -2.8623
 3746TIP3   OH232728   1.026   1.489   1.001 -0.5074  0.1824  0.3250
 3746TIP3    H132729   1.027   1.400   0.964  2.0162  0.5728 -0.7463
 3746TIP3    H232730   1.003   1.476   1.093  0.0540 -1.6376  0.2611
 3747TIP3   OH232731   2.604   0.159  16.398 -0.1402 -0.1988 -0.1237
 3747TIP3    H132732   2.677   0.135  16.456 -1.4898  1.5046  2.4422
 3747TIP3    H232733   2.613   0.254  16.387 -0.8434 -0.2717 -1.4636
 3748TIP3   OH232734   6.349   1.990   3.188  0.0871  0.0852  0.4153
 3748TIP3    H132735   6.392   1.928   3.129 -0.3583  2.1131 -2.2265
 3748TIP3    H232736   6.392   2.074   3.170 -1.7154  1.2391  1.2226
 3749TIP3   OH232737   5.495   4.096   0.870 -0.6071 -0.1128 -0.3976
 3749TIP3    H132738   5.512   4.023   0.930 -0.6303 -0.7995 -1.2087
 3749TIP3    H232739   5.579   4.113   0.828 -0.9541 -0.7398 -1.3689
 3750TIP3   OH232740   4.410   3.178   5.059  0.4675 -0.4025  0.3459
 3750TIP3    H132741   4.390   3.229   5.137  1.0764 -0.9745  0.8851
 3750TIP3    H232742   4.389   3.236   4.986  2.6597  1.2274  0.9434
 3751TIP3   OH232743   5.027   3.677   0.361  0.4497  0.0158  0.3412
 3751TIP3    H132744   4.951   3.657   0.415 -0.5418 -1.2833 -1.4092
 3751TIP3    H232745   5.100   3.632   0.403 -0.1156 -0.2307  1.0709
 3752TIP3   OH232746   2.492   6.102   4.520  0.1332 -0.7842 -0.5501
 3752TIP3    H132747   2.576   6.072   4.555 -0.6081 -1.5816  0.6038
 3752TIP3    H232748   2.489   6.195   4.543 -0.3280 -1.2759  1.6212
 3753TIP3   OH232749   6.422   0.870  14.648  0.2868  0.0935 -0.0760
 3753TIP3    H132750   6.495   0.896  14.704  0.7721 -3.2018  0.9919
 3753TIP3    H232751   6.345   0.873  14.705  0.7775 -3.2384  0.9912
 3754TIP3   OH232752   4.405   1.790  16.599 -0.1217 -0.1947 -0.3714
 3754TIP3    H132753   4.481   1.848  16.608  1.3708 -2.3028  2.0160
 3754TIP3    H232754   4.331   1.842  16.632  0.6481  1.2296 -0.8139
 3755TIP3   OH232755   0.200   1.186   1.775 -0.1347 -0.1753 -0.5290
 3755TIP3    H132756   0.153   1.256   1.819  0.3215  0.0167 -0.3369
 3755TIP3    H232757   0.293   1.207   1.788  0.1317 -2.2828  2.0034
 3756TIP3   OH232758   2.514   2.760   7.015  0.5644  0.1500  0.6211
 3756TIP3    H132759   2.499   2.854   7.002  0.1246 -0.1819 -1.6881
 3756TIP3    H232760   2.600   2.743   6.977  0.6715 -0.3831  1.0813
 3757TIP3   OH232761   6.532   5.729   4.885 -0.0470  0.5851 -0.1266
 3757TIP3    H132762   6.610   5.783   4.875  0.2145 -0.0980 -2.4271
 3757TIP3    H232763   6.499   5.718   4.796 -0.6424 -2.1828  0.3371
 3758TIP3   OH232764   1.716   5.903   6.300 -0.2421 -0.3395  0.4405
 3758TIP3    H132765   1.710   5.975   6.363 -1.5355  0.4773 -0.5471
 3758TIP3    H232766   1.674   5.829   6.343 -1.7407  0.4034  0.3104
 3759TIP3   OH232767   3.503   6.336  16.349 -0.2464  0.1366 -0.0161
 3759TIP3    H132768   3.482   6.399  16.418 -0.7064  1.6896 -1.5108
 3759TIP3    H232769   3.529   6.389  16.274  0.4740 -1.5059 -0.9952
 3760TIP3   OH232770   1.214   0.208   4.238  0.4394 -0.5760  0.5031
 3760TIP3    H132771   1.303   0.233   4.216 -0.5716  1.2091 -1.9357
 3760TIP3    H232772   1.205   0.231   4.331  2.2539 -0.0183  0.5695
 3761TIP3   OH232773   1.052   1.049   0.553 -0.5441 -0.3484 -0.3713
 3761TIP3    H132774   1.013   1.120   0.605 -0.0180 -0.5731  0.3545
 3761TIP3    H232775   1.048   0.973   0.611 -2.4033 -1.3040 -1.6447
 3762TIP3   OH232776   6.344   5.251   3.581  0.8512 -0.1274 -0.0907
 3762TIP3    H132777   6.277   5.194   3.544  1.3219 -1.5216  1.0797
 3762TIP3    H232778   6.399   5.275   3.507 -2.0178  2.8282 -1.5398
 3763TIP3   OH232779   3.322   4.926   6.156 -0.6834 -0.3086 -0.3019
 3763TIP3    H132780   3.404   4.903   6.114 -1.2286 -2.1194 -0.4558
 3763TIP3    H232781   3.324   4.878   6.240 -0.7096  1.2443  0.6221
 3764TIP3   OH232782   2.948   2.912  14.649 -0.4940  0.5753  0.3440
 3764TIP3    H132783   2.894   2.930  14.726 -1.5573  2.4775 -0.7532
 3764TIP3    H232784   2.887   2.870  14.587 -0.5619  2.0635 -0.6358
 3765TIP3   OH232785   1.257   2.758  16.151  0.2251 -0.1700  0.0553
 3765TIP3    H132786   1.259   2.771  16.246 -1.6610  0.3308  0.0609
 3765TIP3    H232787   1.213   2.674  16.139 -1.5818  0.7683 -0.3749
 3766TIP3   OH232788   3.214   3.213  13.158  0.0013  0.1221  0.2626
 3766TIP3    H132789   3.228   3.131  13.205  0.6686 -0.0448 -0.2124
 3766TIP3    H232790   3.131   3.201  13.113 -1.1743  0.6591  2.1586
 3767TIP3   OH232791   5.288   1.573   1.011 -0.3355  0.5832  0.3746
 3767TIP3    H132792   5.330   1.544   0.930  0.3295 -0.3033  0.9991
 3767TIP3    H232793   5.197   1.590   0.987  0.1312  1.5067 -0.7986
 3768TIP3   OH232794   2.158   1.184   2.976  0.5765  0.0941  0.0916
 3768TIP3    H132795   2.177   1.090   2.977 -1.3664 -0.4066  3.2757
 3768TIP3    H232796   2.063   1.189   2.967  0.6445  1.7823 -0.0446
 3769TIP3   OH232797   2.309   5.087  14.963 -0.6396 -0.0117 -0.4847
 3769TIP3    H132798   2.337   5.146  14.893 -2.0459  0.0672 -1.0136
 3769TIP3    H232799   2.219   5.064  14.940 -1.0086 -0.2775  1.1056
 3770TIP3   OH232800   4.619   4.593  12.161 -0.4996  0.1367 -0.0863
 3770TIP3    H132801   4.673   4.637  12.095  0.3749 -0.0597  0.4941
 3770TIP3    H232802   4.628   4.499  12.140 -0.3282  0.0832  0.2291
 3771TIP3   OH232803   0.337   3.608  17.266 -0.0237  0.4523  0.0977
 3771TIP3    H132804   0.404   3.566  17.320 -0.6831 -0.1248  0.4855
 3771TIP3    H232805   0.310   3.540  17.204  0.1151  0.8423 -0.3886
 3772TIP3   OH232806   1.575   0.751  13.296  0.2778  0.3166 -0.4082
 3772TIP3    H132807   1.551   0.711  13.213  1.3485 -0.8332 -0.1936
 3772TIP3    H232808   1.491   0.775  13.336 -0.4313 -1.6723 -0.5765
 3773TIP3   OH232809   1.439   5.699   5.104 -0.4167  0.0348  0.2079
 3773TIP3    H132810   1.469   5.789   5.089  1.8360 -0.5191  1.0913
 3773TIP3    H232811   1.471   5.677   5.191  0.6490 -2.2356 -0.6800
 3774TIP3   OH232812   2.301   3.571  15.395 -0.2403 -0.1597 -0.4151
 3774TIP3    H132813   2.317   3.613  15.310  0.0099 -1.2904 -0.9510
 3774TIP3    H232814   2.255   3.637  15.446  1.8523  1.4755 -0.5218
 3775TIP3   OH232815   4.788   1.789  11.885 -0.1873  0.4635 -0.1835
 3775TIP3    H132816   4.760   1.844  11.812 -2.4407 -1.4561 -0.8748
 3775TIP3    H232817   4.859   1.736  11.850  1.3284  2.1336  0.2069
 3776TIP3   OH232818   4.789   3.659   2.198 -0.0952 -0.5224  0.4716
 3776TIP3    H132819   4.736   3.580   2.189 -1.4480  0.3490  0.5029
 3776TIP3    H232820   4.771   3.691   2.286 -0.8553  0.6827 -0.0890
 3777TIP3   OH232821   0.060   2.694   5.774 -0.4419 -0.1811 -0.2920
 3777TIP3    H132822   0.032   2.768   5.721  0.9956  0.7709  0.2163
 3777TIP3    H232823   0.146   2.671   5.740 -1.2079 -2.2067 -0.9963
 3778TIP3   OH232824   3.962   6.225   1.777 -0.5758  0.0522 -0.1063
 3778TIP3    H132825   4.000   6.188   1.857 -0.9076 -0.0572  0.0032
 3778TIP3    H232826   3.943   6.316   1.799 -0.4955  0.0718 -0.1187
 3779TIP3   OH232827   0.665   0.260  14.007 -0.3087 -0.1642 -0.0975
 3779TIP3    H132828   0.578   0.289  13.980  0.5300  0.0485 -2.9114
 3779TIP3    H232829   0.663   0.165  13.999 -0.8631 -0.3814  1.9853
 3780TIP3   OH232830   6.605   0.916   4.062 -0.2592 -0.2259  0.4237
 3780TIP3    H132831   6.567   0.885   4.144 -0.4631 -0.1259  0.3646
 3780TIP3    H232832   6.641   0.837   4.022  0.2403 -0.2067  0.8207
 3781TIP3   OH232833   6.470   4.115   6.471 -0.2622 -0.2441 -0.4577
 3781TIP3    H132834   6.384   4.091   6.435  0.4574 -0.5109 -2.0869
 3781TIP3    H232835   6.457   4.204   6.505 -1.0176 -0.0251 -1.2775
 3782TIP3   OH232836   6.482   0.688   5.936  0.2240  0.2457  0.1319
 3782TIP3    H132837   6.567   0.706   5.976  1.7117  0.4518 -2.8521
 3782TIP3    H232838   6.491   0.602   5.896 -1.1617  0.0591  0.1624
 3783TIP3   OH232839   2.903   2.921   3.264 -0.9601 -0.3247  0.2252
 3783TIP3    H132840   2.875   2.849   3.209  0.2694 -0.5388 -0.1537
 3783TIP3    H232841   2.966   2.970   3.210 -0.1786 -0.2005  1.2118
 3784TIP3   OH232842   1.149   4.613  14.399 -0.0599  0.0222  0.2643
 3784TIP3    H132843   1.108   4.546  14.345 -0.1248 -0.0754  0.4334
 3784TIP3    H232844   1.184   4.677  14.336 -1.8914  0.9586  0.1208
 3785TIP3   OH232845   1.678   3.355  15.568 -0.6199 -0.1825  0.1019
 3785TIP3    H132846   1.630   3.434  15.591 -0.1153 -0.3010  1.6682
 3785TIP3    H232847   1.624   3.283  15.602 -0.7048 -0.4798 -0.6371
 3786TIP3   OH232848   4.427   1.774   5.408  0.0081  0.1875 -0.1356
 3786TIP3    H132849   4.509   1.824   5.409  1.0203 -1.3892  0.4280
 3786TIP3    H232850   4.454   1.685   5.431 -1.5822 -0.8394 -1.9903
 3787TIP3   OH232851   1.098   2.779   6.262  0.3715  0.0143 -0.1974
 3787TIP3    H132852   1.101   2.742   6.350  1.1778  0.0292 -0.2064
 3787TIP3    H232853   1.061   2.866   6.274  0.8194  0.1590  0.1927
 3788TIP3   OH232854   4.646   3.629   3.407  0.0012  0.9180  0.5468
 3788TIP3    H132855   4.588   3.577   3.463 -0.4474  1.1877  0.3414
 3788TIP3    H232856   4.651   3.579   3.326  1.4316  0.0345  1.1509
 3789TIP3   OH232857   5.627   2.200  13.117 -0.2380 -0.0841 -0.2004
 3789TIP3    H132858   5.549   2.167  13.161 -0.3004  1.1505  0.6660
 3789TIP3    H232859   5.632   2.292  13.143  0.5664  0.3006 -1.5985
 3790TIP3   OH232860   0.730   4.580  14.267 -0.3913 -0.1270 -0.4727
 3790TIP3    H132861   0.809   4.559  14.218  0.4301  3.3909 -0.9224
 3790TIP3    H232862   0.761   4.604  14.354 -0.9846  0.7305 -0.4776
 3791TIP3   OH232863   2.576   0.696   2.324 -0.2048 -0.0943 -0.1335
 3791TIP3    H132864   2.635   0.720   2.394 -0.4620 -1.5329  0.6196
 3791TIP3    H232865   2.522   0.626   2.361 -2.1475  0.9240 -0.8992
 3792TIP3   OH232866   3.481   3.334   4.605 -0.0064  0.2156  0.0597
 3792TIP3    H132867   3.460   3.349   4.697 -0.9220 -0.9304  0.0547
 3792TIP3    H232868   3.531   3.252   4.604  1.5855  1.1320 -0.3066
 3793TIP3   OH232869   1.494   0.004  16.253 -0.0484 -0.2880 -0.4073
 3793TIP3    H132870   1.467   0.064  16.322 -0.2468 -1.0564  0.1933
 3793TIP3    H232871   1.492   0.057  16.173  1.2511  0.9157  0.3192
 3794TIP3   OH232872   3.226   3.923   1.222  0.2631  0.1440  0.1308
 3794TIP3    H132873   3.227   3.893   1.313 -0.0871  0.6101  0.2901
 3794TIP3    H232874   3.214   3.843   1.171 -0.3729 -0.0317  0.5395
 3795TIP3   OH232875   3.926   4.768   6.417 -0.2529 -0.0976  0.0536
 3795TIP3    H132876   3.836   4.773   6.449  0.1646  3.2969  1.0958
 3795TIP3    H232877   3.966   4.698   6.469 -0.8881  2.0166  3.7388
 3796TIP3   OH232878   4.371   0.996   1.972 -0.2638  0.3497 -0.6770
 3796TIP3    H132879   4.333   0.909   1.964 -0.5728  0.5265 -1.2017
 3796TIP3    H232880   4.455   0.982   2.016 -1.1033 -0.0069  0.8926
 3797TIP3   OH232881   1.526   0.947  15.506  0.1818  0.0423 -0.2307
 3797TIP3    H132882   1.577   0.996  15.442  0.7450 -0.7604 -0.4000
 3797TIP3    H232883   1.568   0.861  15.511 -0.3478 -0.1833  0.6081
 3798TIP3   OH232884   6.798   0.996   1.751  0.0932  0.1515  0.8476
 3798TIP3    H132885   6.883   1.039   1.761  0.6949 -0.9403  0.5220
 3798TIP3    H232886   6.773   0.973   1.841  1.9253 -2.8408  0.7038
 3799TIP3   OH232887   2.846   1.569  12.678  0.6120 -0.4418  0.0115
 3799TIP3    H132888   2.812   1.655  12.702  1.6696  0.5642 -1.8702
 3799TIP3    H232889   2.771   1.510  12.685 -1.5271  1.5595 -3.4249
 3800TIP3   OH232890   4.730   3.539  15.773  0.2745  0.0378  0.5574
 3800TIP3    H132891   4.699   3.461  15.726 -0.2813  0.5750  0.0281
 3800TIP3    H232892   4.795   3.504  15.835 -1.5229 -1.1505  1.8524
 3801TIP3   OH232893   4.336   5.907  11.956 -0.4818 -0.1597  0.3294
 3801TIP3    H132894   4.407   5.913  11.893 -2.2760 -2.1913 -2.1220
 3801TIP3    H232895   4.314   5.998  11.977  0.0805  0.6098 -2.1740
 3802TIP3   OH232896   0.117   3.148   5.431 -0.8876  0.2227  0.0370
 3802TIP3    H132897   0.109   3.231   5.477  0.5638  0.0412  0.6642
 3802TIP3    H232898   0.156   3.088   5.494 -1.5368 -0.8422 -0.5295
 3803TIP3   OH232899   6.343   3.317   0.487 -0.3316 -0.2585 -0.2715
 3803TIP3    H132900   6.253   3.295   0.463 -0.3005 -0.8739  0.1559
 3803TIP3    H232901   6.346   3.413   0.485 -1.2418 -0.1964  0.5641
 3804TIP3   OH232902   2.569   0.134   5.578 -0.3763 -0.1741 -0.2348
 3804TIP3    H132903   2.586   0.074   5.650 -1.3036 -0.0357  0.1198
 3804TIP3    H232904   2.522   0.081   5.513  0.8729 -0.4207 -0.9584
 3805TIP3   OH232905   5.263   4.473  14.761  0.2552  0.0394  0.5901
 3805TIP3    H132906   5.351   4.507  14.781  0.3485  0.7483 -0.8691
 3805TIP3    H232907   5.221   4.544  14.711 -0.8532 -0.6163  0.5654
 3806TIP3   OH232908   6.165   5.468   5.557  0.0431  0.3162  0.2295
 3806TIP3    H132909   6.082   5.472   5.510  0.1025  1.3456  0.1966
 3806TIP3    H232910   6.141   5.462   5.649 -0.0711  0.4715  0.2099
 3807TIP3   OH232911   2.257   0.815   1.049 -0.1718  0.0639 -0.0339
 3807TIP3    H132912   2.239   0.749   0.983 -0.6300 -0.6454  0.7864
 3807TIP3    H232913   2.331   0.780   1.100 -0.7367 -0.0598  0.7178
 3808TIP3   OH232914   4.489   6.217  13.850  0.1771  0.9932 -0.6729
 3808TIP3    H132915   4.417   6.223  13.787 -0.5487  1.9535  0.2124
 3808TIP3    H232916   4.461   6.150  13.913 -0.8675  2.6691  0.7460
 3809TIP3   OH232917   1.146   1.752   3.526 -0.2619 -0.3905 -0.0355
 3809TIP3    H132918   1.141   1.685   3.594  0.4493  1.7535  2.2806
 3809TIP3    H232919   1.237   1.751   3.498  0.0778  0.4593  0.9809
 3810TIP3   OH232920   4.362   6.673  16.318 -0.2195 -0.3653 -0.2286
 3810TIP3    H132921   4.371   6.604  16.252  1.3234 -0.6652  0.2379
 3810TIP3    H232922   4.451   6.709  16.326 -0.6395  0.4780  0.8053
 3811TIP3   OH232923   3.969   0.937   0.138 -0.2191 -0.1100  0.0291
 3811TIP3    H132924   3.938   0.951   0.049 -3.3265  1.4168  1.2065
 3811TIP3    H232925   4.010   1.020   0.163 -1.1033  0.1602  0.6261
 3812TIP3   OH232926   0.276   2.532   3.185  0.0067  0.2695 -0.1983
 3812TIP3    H132927   0.225   2.535   3.266 -2.0333 -0.8788 -1.3538
 3812TIP3    H232928   0.349   2.473   3.205  1.2415  2.2712  1.6072
 3813TIP3   OH232929   3.229   0.407  10.805  0.4072  0.4599  1.0188
 3813TIP3    H132930   3.220   0.361  10.722  3.2087  0.0111  0.8739
 3813TIP3    H232931   3.188   0.492  10.790 -1.5047 -0.5610  0.0887
 3814TIP3   OH232932   1.767   6.293  12.693  0.2319 -0.2445  0.9329
 3814TIP3    H132933   1.788   6.261  12.781  0.8988 -0.1760  0.8008
 3814TIP3    H232934   1.733   6.381  12.708 -2.0468 -1.1229  1.3412
 3815TIP3   OH232935   3.715   4.898  14.957 -0.2996  0.0937  0.3393
 3815TIP3    H132936   3.663   4.845  15.017  1.0916 -0.5657  1.0117
 3815TIP3    H232937   3.782   4.839  14.924 -0.8275  0.5463 -1.6384
 3816TIP3   OH232938   4.935   5.800   4.064 -0.0861 -0.1342 -0.1107
 3816TIP3    H132939   4.879   5.736   4.020 -1.1589  2.2543 -2.5280
 3816TIP3    H232940   4.884   5.881   4.063  1.9612  1.2751  1.0203
 3817TIP3   OH232941   2.960   3.558   1.565 -0.5941  0.1101 -0.4520
 3817TIP3    H132942   2.868   3.543   1.546 -0.7854  1.1427 -0.4039
 3817TIP3    H232943   3.004   3.479   1.535 -1.3904 -0.0289 -1.2832
 3818TIP3   OH232944   5.628   0.722  12.492  0.0495 -0.5133  0.0205
 3818TIP3    H132945   5.674   0.719  12.409  0.8054  1.2172  0.3302
 3818TIP3    H232946   5.643   0.811  12.525 -2.0038 -0.4539  0.9924
 3819TIP3   OH232947   3.355   5.165  14.187  0.2395 -0.6468  0.6683
 3819TIP3    H132948   3.273   5.130  14.223  0.4994 -1.6614  0.3181
 3819TIP3    H232949   3.398   5.089  14.148  0.7153  0.1318 -0.3616
 3820TIP3   OH232950   5.188   6.649  12.364 -0.3379 -0.4029  0.2033
 3820TIP3    H132951   5.114   6.672  12.420 -2.3963 -0.0626 -2.4623
 3820TIP3    H232952   5.148   6.606  12.288  2.3213 -1.1410 -0.8903
 3821TIP3   OH232953   2.784   4.757  12.951 -0.0413  0.2167  0.0524
 3821TIP3    H132954   2.721   4.828  12.939  0.8582  0.7925 -1.6499
 3821TIP3    H232955   2.749   4.685  12.897  1.3122  0.9619 -1.9233
 3822TIP3   OH232956   2.037   3.428  16.946 -0.0205  0.1870 -0.2783
 3822TIP3    H132957   1.960   3.479  16.972 -0.4955 -1.2711  1.3608
 3822TIP3    H232958   2.100   3.444  17.017 -0.3491 -1.8167  0.5118
 3823TIP3   OH232959   4.373   0.273  14.673 -0.4806  0.5173 -0.3493
 3823TIP3    H132960   4.300   0.279  14.612 -0.6648 -1.9959 -0.4790
 3823TIP3    H232961   4.421   0.355  14.661 -1.0160  0.5243 -3.1975
 3824TIP3   OH232962   1.878   5.112   2.335  0.3308 -0.1509  0.2705
 3824TIP3    H132963   1.862   5.020   2.355  0.1345 -0.6006 -1.7657
 3824TIP3    H232964   1.969   5.115   2.304  0.3728  0.3615  0.4303
 3825TIP3   OH232965   6.612   1.833   0.932 -0.4319 -0.5123 -0.0262
 3825TIP3    H132966   6.532   1.784   0.914 -0.4716 -0.1370 -0.9165
 3825TIP3    H232967   6.620   1.894   0.859 -0.5105  1.0082  1.1650
 3826TIP3   OH232968   6.042   6.047  15.377 -0.5014 -0.5627 -0.2906
 3826TIP3    H132969   6.073   6.132  15.410  0.3072 -1.2544  0.7825
 3826TIP3    H232970   6.055   5.987  15.450  0.2163 -1.8977 -1.4832
 3827TIP3   OH232971   2.411   1.463  12.638 -0.6592  0.1012 -0.3505
 3827TIP3    H132972   2.346   1.441  12.571 -0.4440  1.6147 -1.1055
 3827TIP3    H232973   2.476   1.516  12.591  0.7583 -0.7906  0.5441
 3828TIP3   OH232974   2.777   1.115   3.698  0.2123 -0.1781 -0.4005
 3828TIP3    H132975   2.695   1.139   3.654  0.9421 -0.7787 -2.2086
 3828TIP3    H232976   2.755   1.036   3.748 -1.0150  1.3754  1.6760
 3829TIP3   OH232977   5.050   1.793   2.791  0.0671 -0.8031 -0.5683
 3829TIP3    H132978   5.099   1.846   2.728  0.8309 -1.9161 -0.9397
 3829TIP3    H232979   4.972   1.845   2.811  0.9596  0.6080 -0.6404
 3830TIP3   OH232980   6.229   1.780  11.548  0.0331 -0.6680 -0.1350
 3830TIP3    H132981   6.255   1.815  11.463  0.1322 -0.8186 -0.1655
 3830TIP3    H232982   6.308   1.741  11.584  0.4314  0.8587  0.7605
 3831TIP3   OH232983   5.321   4.343  16.339  0.2364 -1.0600  0.3678
 3831TIP3    H132984   5.380   4.400  16.390  0.4316  0.2386 -1.2194
 3831TIP3    H232985   5.378   4.302  16.274 -0.4841 -0.1960 -0.8504
 3832TIP3   OH232986   4.077   1.910  12.090  0.5656 -0.8114 -0.2981
 3832TIP3    H132987   4.065   1.846  12.160  0.4321 -0.1751  0.2693
 3832TIP3    H232988   4.003   1.969  12.098  1.5315  0.3704  0.2271
 3833TIP3   OH232989   0.096   2.328  15.831 -0.6481  0.0831 -0.7407
 3833TIP3    H132990   0.018   2.275  15.845 -0.9923  0.4189 -1.3566
 3833TIP3    H232991   0.146   2.281  15.764  0.1543 -0.6216  0.3086
 3834TIP3   OH232992   2.021   5.510  12.986 -0.2261  0.0561  0.1962
 3834TIP3    H132993   2.063   5.446  12.928  0.3851  1.2957 -0.7784
 3834TIP3    H232994   2.087   5.529  13.053 -0.3127 -0.1144  0.3336
 3835TIP3   OH232995   1.051   4.716  13.816  0.0203 -0.1460 -0.4518
 3835TIP3    H132996   0.993   4.739  13.889  1.2825  2.1287 -0.0644
 3835TIP3    H232997   1.079   4.627  13.835 -1.2921 -0.3545  0.7259
 3836TIP3   OH232998   0.060   0.823  12.018  0.6136  0.2598  0.5316
 3836TIP3    H132999   0.047   0.903  11.967  0.0797  0.9202  1.6630
 3836TIP3    H233000   0.105   0.764  11.958  0.0126  0.9983 -0.6978
 3837TIP3   OH233001   2.022   4.825  11.029  0.0328 -0.4149  0.4096
 3837TIP3    H133002   2.005   4.919  11.019  0.4756 -0.4789 -1.3089
 3837TIP3    H233003   2.032   4.793  10.940  2.2313 -1.6534  1.0094
 3838TIP3   OH233004   0.325   1.920   5.181  0.0645 -0.0251 -0.4890
 3838TIP3    H133005   0.318   1.855   5.250 -1.1985  1.0896  0.4713
 3838TIP3    H233006   0.380   1.989   5.218  0.5163 -0.0417 -1.1097
 3839TIP3   OH233007   0.956   1.490   2.763  0.2232  0.2300 -0.2221
 3839TIP3    H133008   0.939   1.571   2.810  3.4199  0.6337  0.4909
 3839TIP3    H233009   0.924   1.420   2.820 -1.2881  0.8813 -0.2249
 3840TIP3   OH233010   0.247   3.685  12.444 -0.0393  0.0843 -0.0585
 3840TIP3    H133011   0.200   3.713  12.366 -2.0134  0.6188  1.2373
 3840TIP3    H233012   0.330   3.734  12.442  0.2491 -0.4129 -2.0930
 3841TIP3   OH233013   4.731   3.467   5.419 -0.0057  0.1454  0.2224
 3841TIP3    H133014   4.685   3.530   5.474  0.4893 -0.1789  1.0244
 3841TIP3    H233015   4.819   3.505   5.408  0.2323 -0.3017  0.5478
 3842TIP3   OH233016   0.984   2.645  14.607 -0.0379  0.1670  0.1125
 3842TIP3    H133017   0.931   2.623  14.530 -0.7090  0.2451  0.5364
 3842TIP3    H233018   0.936   2.716  14.649  0.9530  0.9479 -0.0413
 3843TIP3   OH233019   2.593   5.998   0.360 -0.3317 -0.1010  0.3879
 3843TIP3    H133020   2.631   5.916   0.392 -0.8028  0.3110  2.1054
 3843TIP3    H233021   2.512   6.008   0.411 -0.7003  1.0376 -0.3807
 3844TIP3   OH233022   3.817   0.487   6.503  0.2151  0.3028 -0.8150
 3844TIP3    H133023   3.839   0.396   6.484 -0.7842  0.1938 -1.5563
 3844TIP3    H233024   3.750   0.509   6.438 -0.2915  1.2473  0.0061
 3845TIP3   OH233025   4.957   1.724  15.651  0.3660 -0.4574 -0.1181
 3845TIP3    H133026   4.957   1.647  15.595 -1.0703 -0.6727  0.1328
 3845TIP3    H233027   4.868   1.729  15.684  0.5794  1.0124  0.2974
 3846TIP3   OH233028   2.586   2.940  11.316 -0.3511  0.2950 -0.0840
 3846TIP3    H133029   2.506   2.893  11.341 -0.8149  0.8563 -0.4801
 3846TIP3    H233030   2.619   2.892  11.240 -0.1477 -0.1170  0.2666
 3847TIP3   OH233031   3.008   0.335   0.605 -0.3362 -0.2018  0.3126
 3847TIP3    H133032   3.018   0.380   0.689 -2.6774 -0.7158  0.9378
 3847TIP3    H233033   2.923   0.363   0.573 -0.6594 -2.0715 -0.5976
 3848TIP3   OH233034   1.436   3.550   3.673 -0.3784  1.1283 -0.2232
 3848TIP3    H133035   1.509   3.610   3.664  0.5838  0.0229 -0.0327
 3848TIP3    H233036   1.393   3.552   3.588 -0.5873  2.3468 -0.1038
 3849TIP3   OH233037   1.291   5.935  13.119  0.0236 -0.3310  0.0816
 3849TIP3    H133038   1.339   5.902  13.195  0.8413  1.1781  0.2746
 3849TIP3    H233039   1.249   6.015  13.151 -1.4295 -0.8433 -0.4913
 3850TIP3   OH233040   6.773   1.560  13.614  0.1654  0.3755  0.0258
 3850TIP3    H133041   6.710   1.493  13.640 -1.1214  1.5090 -0.0254
 3850TIP3    H233042   6.828   1.573  13.690  0.9068 -1.2234 -0.1992
 3851TIP3   OH233043   4.927   2.361  16.268 -0.2509  0.2656  0.0636
 3851TIP3    H133044   4.836   2.344  16.289 -1.0033  1.7978 -1.6928
 3851TIP3    H233045   4.961   2.277  16.237 -1.1917 -0.1952  0.2630
 3852TIP3   OH233046   0.721   5.050  14.622  0.3531  0.2054 -0.3083
 3852TIP3    H133047   0.674   5.024  14.543  1.0673 -0.3053 -0.5719
 3852TIP3    H233048   0.783   5.117  14.593 -1.7908  2.6740  0.4409
 3853TIP3   OH233049   5.309   6.549  15.728  0.2620  0.0120  0.4359
 3853TIP3    H133050   5.233   6.564  15.672 -0.0421 -0.2233  0.7725
 3853TIP3    H233051   5.348   6.636  15.740  0.1326  0.1114  0.1383
 3854TIP3   OH233052   0.535   1.671  14.337  0.0743  0.4319  0.7385
 3854TIP3    H133053   0.561   1.755  14.373  1.0283  0.3539  0.2545
 3854TIP3    H233054   0.536   1.611  14.412 -1.2250  0.9512  1.2156
 3855TIP3   OH233055   2.487   2.988  12.708  0.4488  0.2439  0.5789
 3855TIP3    H133056   2.457   2.918  12.650  2.5621 -0.7391  0.5773
 3855TIP3    H233057   2.451   2.965  12.794  0.1628 -0.2205  0.3371
 3856TIP3   OH233058   4.934   4.120  14.359 -0.3309  0.4058  0.0724
 3856TIP3    H133059   4.958   4.200  14.408 -0.2012 -0.1447  0.9310
 3856TIP3    H233060   5.007   4.107  14.298  0.5362 -0.0312  1.1623
 3857TIP3   OH233061   1.556   1.337  17.011  0.1086  0.0672 -0.1747
 3857TIP3    H133062   1.606   1.403  16.964 -1.2387  0.6092 -0.9097
 3857TIP3    H233063   1.588   1.253  16.977 -1.1741  0.4413 -2.5433
 3858TIP3   OH233064   1.175   1.251   4.131  0.5768 -0.1374  0.3724
 3858TIP3    H133065   1.086   1.286   4.127  1.0718  1.1461 -2.1937
 3858TIP3    H233066   1.164   1.156   4.126 -0.6613  0.0267 -0.5986
 3859TIP3   OH233067   2.080   0.095  14.255  0.5115 -0.1303 -0.1479
 3859TIP3    H133068   2.141   0.021  14.248  0.4439 -0.4787  2.1308
 3859TIP3    H233069   2.000   0.056  14.291 -0.2076  0.7277 -0.7879
 3860TIP3   OH233070   6.684   5.803   4.321 -0.2398 -0.5174 -0.0947
 3860TIP3    H133071   6.636   5.770   4.245 -0.2454 -1.5170  0.3176
 3860TIP3    H233072   6.677   5.898   4.315 -2.1704 -0.6211 -0.1045
 3861TIP3   OH233073   4.092   4.960   5.002  0.3306  0.0910 -0.6033
 3861TIP3    H133074   4.128   5.030   5.056  1.3024  0.3654 -1.5778
 3861TIP3    H233075   4.000   4.984   4.991  0.3409  0.5195  0.1426
 3862TIP3   OH233076   5.761   3.623  14.473  0.3510  0.2200  0.3529
 3862TIP3    H133077   5.814   3.663  14.404  1.5828 -0.5688  0.8327
 3862TIP3    H233078   5.673   3.618  14.434  0.4398  2.0975 -0.2249
 3863TIP3   OH233079   5.759   4.366   0.106 -0.2097  0.1950 -0.0203
 3863TIP3    H133080   5.779   4.275   0.084  1.0086  0.1881  0.9557
 3863TIP3    H233081   5.707   4.361   0.186 -1.0155  0.3329 -0.5299
 3864TIP3   OH233082   0.940   3.414  13.880  0.6634  0.2991 -0.4561
 3864TIP3    H133083   0.937   3.507  13.858  0.3373  0.2800 -0.4904
 3864TIP3    H233084   0.862   3.399  13.933  1.3670  0.3142  0.6016
 3865TIP3   OH233085   6.245   4.277   1.347 -0.0514  0.2315  0.5430
 3865TIP3    H133086   6.327   4.230   1.362  0.0018 -0.6628 -1.9494
 3865TIP3    H233087   6.270   4.369   1.339  0.6005  0.0520  0.4759
 3866TIP3   OH233088   4.201   3.761   1.093 -0.1542  0.1208  0.2077
 3866TIP3    H133089   4.272   3.758   1.028 -1.1307  1.4821 -0.9872
 3866TIP3    H233090   4.200   3.673   1.131 -0.2625 -1.1262 -2.4436
 3867TIP3   OH233091   4.275   2.137   0.480 -0.1684  0.7641 -0.2251
 3867TIP3    H133092   4.212   2.065   0.479 -0.5337  1.0767 -1.3261
 3867TIP3    H233093   4.344   2.108   0.539 -0.6546 -0.1829 -0.1057
 3868TIP3   OH233094   1.697   1.954   0.525  0.2302 -0.5757 -0.4269
 3868TIP3    H133095   1.672   1.869   0.490 -1.1806 -0.3188 -0.0761
 3868TIP3    H233096   1.743   1.933   0.607 -0.7549 -0.9865  0.0380
 3869TIP3   OH233097   0.734   6.671  16.628  0.0840 -0.3170 -0.1600
 3869TIP3    H133098   0.679   6.621  16.568 -0.5716  1.1555 -0.8361
 3869TIP3    H233099   0.750   6.754  16.582  0.3332  0.4776  1.3157
 3870TIP3   OH233100   2.564   4.560  15.451  0.0174  0.2006  0.6081
 3870TIP3    H133101   2.506   4.582  15.378 -1.0894 -0.4365  1.2619
 3870TIP3    H233102   2.562   4.637  15.508 -0.5727  0.0006  0.8628
 3871TIP3   OH233103   0.802   0.722   1.050  0.2130  0.5245 -0.2367
 3871TIP3    H133104   0.856   0.796   1.022 -0.7356  0.7985 -1.4523
 3871TIP3    H233105   0.806   0.660   0.977  1.0399 -0.6693  0.7861
 3872TIP3   OH233106   2.822   4.896   6.191 -0.7065 -0.0552 -0.4845
 3872TIP3    H133107   2.746   4.947   6.218 -1.8092 -2.0016  0.2461
 3872TIP3    H233108   2.874   4.885   6.271 -0.2339  0.2938 -0.7365
 3873TIP3   OH233109   4.905   2.035   5.971  0.0465  0.3036 -0.3727
 3873TIP3    H133110   4.966   2.068   6.037 -1.0065 -0.6034  1.1078
 3873TIP3    H233111   4.922   2.089   5.894  1.2088  1.5057  0.6754
 3874TIP3   OH233112   5.934   1.129   4.864  0.3625  0.1838  0.4294
 3874TIP3    H133113   5.866   1.194   4.842 -1.0295 -1.3421  0.0271
 3874TIP3    H233114   5.893   1.073   4.930  1.4148 -0.4779  0.5402
 3875TIP3   OH233115   4.090   1.829  13.214 -0.5780  0.5546 -0.0283
 3875TIP3    H133116   4.035   1.751  13.205 -0.4936  0.4414  0.4057
 3875TIP3    H233117   4.178   1.800  13.190 -0.2496  0.1178  1.5595
 3876TIP3   OH233118   5.452   5.956   6.001 -0.6932 -0.4636  0.3549
 3876TIP3    H133119   5.488   6.017   6.064 -1.5006  0.2554  0.1416
 3876TIP3    H233120   5.481   5.870   6.031  0.4644  0.0170  0.6449
 3877TIP3   OH233121   4.540   5.381  13.709  0.3655 -0.3911 -0.0163
 3877TIP3    H133122   4.454   5.403  13.745  1.4306  0.2611  2.3027
 3877TIP3    H233123   4.537   5.286  13.697 -0.3598 -0.5216  1.0234
 3878TIP3   OH233124   1.248   0.522  15.878  0.0500 -0.6313  0.0098
 3878TIP3    H133125   1.344   0.532  15.874  0.2956 -2.3912  0.8531
 3878TIP3    H233126   1.219   0.597  15.930  1.1273 -0.7782  0.8707
 3879TIP3   OH233127   1.526   2.838  12.516 -0.3527  0.2127  0.0183
 3879TIP3    H133128   1.581   2.832  12.594 -1.3739  0.4554  0.7837
 3879TIP3    H233129   1.570   2.783  12.451  1.0691  0.8270  0.4165
 3880TIP3   OH233130   1.163   4.613  16.619  0.2918  0.0282  0.2312
 3880TIP3    H133131   1.074   4.585  16.599  0.4750 -0.4550  0.0863
 3880TIP3    H233132   1.152   4.683  16.684 -0.3039  1.4795 -1.3505
 3881TIP3   OH233133   5.496   4.265  16.821  0.1924 -0.1027 -0.1999
 3881TIP3    H133134   5.403   4.248  16.837  0.4296 -0.3282  1.0080
 3881TIP3    H233135   5.506   4.359  16.833  0.5010 -0.3576  1.8414
 3882TIP3   OH233136   0.881   5.186  13.039 -0.4810  0.2220  0.5224
 3882TIP3    H133137   0.878   5.281  13.023 -0.6449  0.3555  1.2660
 3882TIP3    H233138   0.821   5.149  12.975  0.4777  0.4914 -0.5671
 3883TIP3   OH233139   6.214   4.315  14.993  0.6112  0.0745 -0.5495
 3883TIP3    H133140   6.289   4.256  14.984  1.2214  0.7640 -0.0369
 3883TIP3    H233141   6.177   4.319  14.904 -0.7613 -2.7340 -0.2347
 3884TIP3   OH233142   4.765   2.949   1.267  0.3350 -0.6733  0.0114
 3884TIP3    H133143   4.718   3.021   1.309  1.9131  0.8078 -0.6655
 3884TIP3    H233144   4.755   2.966   1.173 -0.6481 -2.2780 -0.2050
 3885TIP3   OH233145   5.950   1.504   3.126  0.2264  0.3794  0.2381
 3885TIP3    H133146   5.920   1.588   3.162  0.5102  0.7477 -0.3639
 3885TIP3    H233147   5.905   1.497   3.041  2.7581  1.5911 -1.3329
 3886TIP3   OH233148   6.584   3.685   1.547  0.2909 -0.3544 -0.3806
 3886TIP3    H133149   6.661   3.642   1.585  0.0963  0.2942  0.7924
 3886TIP3    H233150   6.510   3.653   1.599  0.3799  3.1252  2.2472
 3887TIP3   OH233151   1.536   3.702  12.492 -0.4851  0.0653 -0.0273
 3887TIP3    H133152   1.501   3.642  12.426 -0.8247 -3.0324  2.7348
 3887TIP3    H233153   1.463   3.761  12.512 -2.0400 -2.0562  0.9111
 3888TIP3   OH233154   3.515   1.837  11.300 -0.0551  0.2501  0.0611
 3888TIP3    H133155   3.463   1.801  11.228 -2.2004  0.3695  1.4520
 3888TIP3    H233156   3.553   1.761  11.343  0.6920  0.1330 -0.7955
 3889TIP3   OH233157   2.424   0.914   2.188  0.3041  0.0492 -0.5852
 3889TIP3    H133158   2.444   0.857   2.261 -1.0581  1.7392  1.2433
 3889TIP3    H233159   2.507   0.928   2.143  1.0779 -1.4087  0.3590
 3890TIP3   OH233160   2.160   2.517   6.127 -0.6664  0.1555  0.0431
 3890TIP3    H133161   2.218   2.471   6.187 -1.0576  1.1477  1.2232
 3890TIP3    H233162   2.075   2.516   6.170 -1.4860 -0.9261 -1.4720
 3891TIP3   OH233163   2.065   0.533   3.332 -0.3624  0.2605  0.8405
 3891TIP3    H133164   2.103   0.479   3.401  0.9128  0.9094  0.6718
 3891TIP3    H233165   2.049   0.473   3.259  1.9894  0.2198  0.2785
 3892TIP3   OH233166   3.118   0.655   2.852  0.0466  0.2760  0.3978
 3892TIP3    H133167   3.049   0.648   2.917 -0.9249  1.2389 -0.4844
 3892TIP3    H233168   3.168   0.574   2.860 -3.9299 -2.7656 -2.0630
 3893TIP3   OH233169   2.339   2.265   3.975 -0.3260  0.0697 -0.2219
 3893TIP3    H133170   2.352   2.190   4.033  1.1182 -0.1225 -0.7343
 3893TIP3    H233171   2.339   2.228   3.887 -0.6231  0.5520 -0.4281
 3894TIP3   OH233172   1.573   0.099  11.710  0.0730 -0.2620  0.2801
 3894TIP3    H133173   1.589   0.026  11.651  3.2794  0.1542  0.4875
 3894TIP3    H233174   1.548   0.058  11.793 -1.2148 -0.9374 -0.3971
 3895TIP3   OH233175   2.326   2.007   3.371  0.4638 -0.0239 -0.0289
 3895TIP3    H133176   2.343   1.970   3.457 -0.7652 -2.0979 -0.6031
 3895TIP3    H233177   2.230   2.007   3.364  0.4621  2.1085 -0.6064
 3896TIP3   OH233178   0.522   5.153   1.931 -0.1876  0.4160 -0.1797
 3896TIP3    H133179   0.565   5.184   2.010 -0.9226  1.5866 -0.2057
 3896TIP3    H233180   0.440   5.202   1.928 -0.6738 -0.4117 -1.0916
 3897TIP3   OH233181   6.637   6.597  14.852  0.2523 -0.1799 -0.7161
 3897TIP3    H133182   6.645   6.501  14.854 -0.6718 -0.2787  1.5572
 3897TIP3    H233183   6.670   6.625  14.938 -0.1750  1.4668 -1.0658
 3898TIP3   OH233184   4.922   1.892   4.961 -0.1248 -0.2563 -0.8005
 3898TIP3    H133185   4.952   1.801   4.964  0.2279 -0.2821 -3.0983
 3898TIP3    H233186   4.998   1.943   4.989 -0.1127 -0.6325 -0.1360
 3899TIP3   OH233187   0.632   2.535  13.829  0.3754  0.5629 -0.2110
 3899TIP3    H133188   0.616   2.493  13.744  0.2779 -0.2082  0.1847
 3899TIP3    H233189   0.646   2.627  13.807  0.4316  0.3603 -1.0758
 3900TIP3   OH233190   3.860   3.931   0.373  0.1460 -0.1305  0.2242
 3900TIP3    H133191   3.768   3.924   0.398  0.1912 -0.5064  0.2965
 3900TIP3    H233192   3.862   3.900   0.282  0.5953 -2.8183  1.0449
 3901TIP3   OH233193   3.027   4.988  12.083 -0.4849  0.5786 -0.3833
 3901TIP3    H133194   2.933   4.969  12.081 -0.5097  0.7814 -1.2633
 3901TIP3    H233195   3.055   4.984  11.992  0.0740  1.9272 -0.3001
 3902TIP3   OH233196   6.158   0.908   1.013  0.0934 -0.0437 -0.5464
 3902TIP3    H133197   6.199   0.863   0.939  1.6443  2.1768 -1.1533
 3902TIP3    H233198   6.226   0.912   1.080 -0.4388  0.2657 -0.0171
 3903TIP3   OH233199   6.509   2.640   2.177 -0.0670 -0.1249  0.0902
 3903TIP3    H133200   6.540   2.589   2.102  0.1429  0.5805 -0.3054
 3903TIP3    H233201   6.584   2.642   2.237 -0.8365 -2.3832  1.2628
 3904TIP3   OH233202   1.093   0.005   7.140 -0.4302  0.4422  0.0552
 3904TIP3    H133203   1.050   0.090   7.131  1.3104  1.4571  0.8990
 3904TIP3    H233204   1.080  -0.038   7.055  0.1572  2.2740 -1.0015
 3905TIP3   OH233205   4.284   1.696  14.331  0.0293 -0.0230  0.0329
 3905TIP3    H133206   4.349   1.682  14.262 -0.9207 -0.5352 -0.7870
 3905TIP3    H233207   4.242   1.779  14.308  0.2240  0.1876  0.4261
 3906TIP3   OH233208   5.182   4.915  11.097 -0.4818  0.2509 -0.5004
 3906TIP3    H133209   5.135   4.841  11.057 -1.5953  1.0877 -0.8056
 3906TIP3    H233210   5.143   4.992  11.056 -0.1753  1.0577  0.6870
 3907TIP3   OH233211   4.780   2.126   2.076  0.0456 -0.2824  0.1297
 3907TIP3    H133212   4.756   2.137   1.984 -1.4194 -0.4157  0.4742
 3907TIP3    H233213   4.755   2.036   2.096 -0.7775  0.1246  0.9776
 3908TIP3   OH233214   3.442   5.507   1.027  0.0526  0.2704  0.4047
 3908TIP3    H133215   3.453   5.417   1.057  0.3548  0.0791 -0.2654
 3908TIP3    H233216   3.518   5.524   0.971 -1.1750  0.1211 -1.4061
 3909TIP3   OH233217   5.008   6.190  16.964  0.5106  0.3341  0.6632
 3909TIP3    H133218   5.072   6.218  17.030  1.3300 -1.7403  0.8308
 3909TIP3    H233219   5.060   6.144  16.899 -0.5362  0.7729 -0.5072
 3910TIP3   OH233220   5.522   3.008  13.759 -0.5419  0.0232 -0.0691
 3910TIP3    H133221   5.535   3.029  13.667 -0.3947 -0.5597 -0.1852
 3910TIP3    H233222   5.600   3.042  13.803 -1.2600  1.5760  0.0584
 3911TIP3   OH233223   2.054   5.927  15.983  0.1557  0.5577  0.1715
 3911TIP3    H133224   2.123   5.963  16.039 -0.6812  0.5574  1.2381
 3911TIP3    H233225   1.976   5.926  16.038 -0.5770  0.0287 -0.8309
 3912TIP3   OH233226   4.638   5.429   2.730 -0.2375  0.1239  0.0998
 3912TIP3    H133227   4.604   5.479   2.655 -2.7141  1.0192  1.6959
 3912TIP3    H233228   4.724   5.398   2.701 -0.6844  1.2233 -2.7441
 3913TIP3   OH233229   6.482   2.270  16.526 -0.1650 -0.3145  0.5145
 3913TIP3    H133230   6.444   2.331  16.463  2.9014  1.4363  0.1584
 3913TIP3    H233231   6.472   2.314  16.610 -1.1715 -1.0558  0.8000
 3914TIP3   OH233232   5.042   3.916  12.477 -0.0140  0.0553  0.1793
 3914TIP3    H133233   5.015   3.876  12.560  0.6596  1.7705  1.2777
 3914TIP3    H233234   5.136   3.900  12.472 -0.0291  0.0844 -0.1745
 3915TIP3   OH233235   1.348   6.311   0.755 -0.1538 -0.1884  0.0560
 3915TIP3    H133236   1.433   6.351   0.771  0.4986 -1.7598  0.8307
 3915TIP3    H233237   1.292   6.344   0.825  0.1908 -0.1118  0.2988
 3916TIP3   OH233238   5.815   4.299   2.982  0.1740  0.0444  0.0101
 3916TIP3    H133239   5.772   4.358   2.920  1.0991 -1.1140 -1.8167
 3916TIP3    H233240   5.744   4.246   3.019 -0.1837 -1.0337 -2.0732
 3917TIP3   OH233241   1.036   1.539  14.016  0.6365  0.1723 -0.2899
 3917TIP3    H133242   1.074   1.557  13.930 -0.4694  0.6732 -0.6961
 3917TIP3    H233243   1.008   1.625  14.048 -1.6968 -0.3269 -0.7929
 3918TIP3   OH233244   3.197   4.287  11.185  0.3807  0.5799 -0.6787
 3918TIP3    H133245   3.206   4.239  11.103 -0.1486 -0.1354 -0.3326
 3918TIP3    H233246   3.168   4.374  11.159 -2.0696 -0.2895 -1.1797
 3919TIP3   OH233247   2.026   3.039   3.823 -0.4584 -0.4479  0.2709
 3919TIP3    H133248   1.941   3.081   3.838 -0.1383  0.0085  0.8615
 3919TIP3    H233249   2.082   3.074   3.892 -0.2997 -2.2316  1.0982
 3920TIP3   OH233250   5.700   5.315   4.716 -0.2633 -0.2812  0.9182
 3920TIP3    H133251   5.738   5.330   4.802 -0.3598  2.0968  0.5954
 3920TIP3    H233252   5.663   5.399   4.690  2.8766  0.1890 -3.0061
 3921TIP3   OH233253   5.046   0.490  13.700 -0.3887 -0.3792 -0.3944
 3921TIP3    H133254   4.984   0.435  13.652 -0.9928  0.5413 -0.6988
 3921TIP3    H233255   5.004   0.575  13.704  0.5544  0.0805  0.0278
 3922TIP3   OH233256   3.176   2.568   3.531 -0.0380  0.3377 -0.4102
 3922TIP3    H133257   3.127   2.633   3.481 -1.1148 -1.0666 -1.2506
 3922TIP3    H233258   3.262   2.565   3.489 -0.0464  1.0379 -0.4951
 3923TIP3   OH233259   1.955   2.663  12.891  0.2683  0.1354  0.3883
 3923TIP3    H133260   2.029   2.616  12.854  1.2898  1.5982  0.4835
 3923TIP3    H233261   1.992   2.746  12.921 -1.3080  0.6672  0.9557
 3924TIP3   OH233262   4.633   4.497   3.645 -0.1409  0.1651 -0.4625
 3924TIP3    H133263   4.614   4.442   3.721 -0.7663 -0.3012 -0.9464
 3924TIP3    H233264   4.699   4.447   3.596  0.8862  0.8459  0.1758
 3925TIP3   OH233265   3.485   4.385  15.960 -0.3140  0.1176 -0.3531
 3925TIP3    H133266   3.471   4.386  15.865 -1.3547  0.0862 -0.2170
 3925TIP3    H233267   3.397   4.394  15.997 -0.1591 -1.7647  0.6134
 3926TIP3   OH233268   6.621   6.174  11.082  0.1319 -0.0598  0.2446
 3926TIP3    H133269   6.608   6.155  10.989  2.0696  0.8593 -0.2690
 3926TIP3    H233270   6.666   6.258  11.083  0.7225 -0.3617  1.9930
 3927TIP3   OH233271   5.643   4.184  12.317  0.0392  0.1623 -0.1314
 3927TIP3    H133272   5.623   4.094  12.344  0.0873 -0.2977 -1.5714
 3927TIP3    H233273   5.726   4.204  12.361  0.6300 -0.9288 -0.7023
 3928TIP3   OH233274   5.582   4.103   4.831 -0.2284  0.5021  0.2773
 3928TIP3    H133275   5.561   4.193   4.809  1.9606  0.9267 -0.3163
 3928TIP3    H233276   5.500   4.055   4.817 -1.5609  2.4259  1.0287
 3929TIP3   OH233277   4.300   0.008  10.362 -0.5312 -0.2041  0.1259
 3929TIP3    H133278   4.380  -0.043  10.371 -1.0587 -1.1418 -0.3804
 3929TIP3    H233279   4.308   0.077  10.429  1.6783  1.0730 -1.3210
 3930TIP3   OH233280   2.665   1.540   4.547 -0.6221  0.1860 -0.3565
 3930TIP3    H133281   2.575   1.511   4.531 -0.3247 -0.1326 -1.4562
 3930TIP3    H233282   2.696   1.482   4.617 -1.1205  0.0153 -0.2661
 3931TIP3   OH233283   6.475   5.091  14.738 -0.0568 -0.9072 -0.2912
 3931TIP3    H133284   6.397   5.068  14.789  0.1411  0.1517  0.5099
 3931TIP3    H233285   6.444   5.151  14.671 -0.2154 -1.8439 -1.0746
 3932TIP3   OH233286   5.818   6.109   1.813 -0.0414 -0.0383  0.2640
 3932TIP3    H133287   5.811   6.088   1.906 -0.3333 -1.1738 -0.0022
 3932TIP3    H233288   5.882   6.181   1.810 -1.2087  1.1145  1.4696
 3933TIP3   OH233289   3.904   5.475   4.684 -0.0767 -0.5987  0.1074
 3933TIP3    H133290   3.986   5.508   4.647  0.3734 -0.2943  1.3228
 3933TIP3    H233291   3.922   5.382   4.701  0.0052 -0.5388  0.3469
 3934TIP3   OH233292   3.690   0.288   3.754 -0.0255  0.0849  0.1672
 3934TIP3    H133293   3.783   0.270   3.766 -0.4757 -1.3634  1.9424
 3934TIP3    H233294   3.679   0.294   3.659  2.0885  1.7423 -0.0547
 3935TIP3   OH233295   0.477   5.859   6.330 -0.7841  0.0441  0.5645
 3935TIP3    H133296   0.427   5.929   6.372 -0.8309  0.4064 -0.0799
 3935TIP3    H233297   0.568   5.889   6.333 -0.9152  0.5897 -0.5699
 3936TIP3   OH233298   1.113   1.616   4.200  0.0358  0.3140  0.1817
 3936TIP3    H133299   1.160   1.541   4.165 -0.0774  0.3450 -0.0436
 3936TIP3    H233300   1.103   1.598   4.293 -1.0659 -0.5348 -0.0784
 3937TIP3   OH233301   5.327   0.920   0.427  0.8467 -0.1671  0.3108
 3937TIP3    H133302   5.244   0.886   0.394  1.1501  0.7830 -1.5333
 3937TIP3    H233303   5.302   0.980   0.497 -0.1976  1.4337 -1.3468
 3938TIP3   OH233304   4.149   0.433  16.639  0.4558  0.1975 -0.1368
 3938TIP3    H133305   4.142   0.339  16.624 -2.0810  0.2999 -0.0492
 3938TIP3    H233306   4.079   0.453  16.701  1.3790  2.0510  0.3840
 3939TIP3   OH233307   6.529   6.362  13.345  0.0037  0.0226  0.5608
 3939TIP3    H133308   6.532   6.267  13.330  0.1105 -0.0356  0.9469
 3939TIP3    H233309   6.467   6.394  13.279 -0.7600 -0.4335  1.0330
 3940TIP3   OH233310   3.960   6.123   0.109 -0.3649 -0.4988  0.2972
 3940TIP3    H133311   4.045   6.082   0.128 -0.5752 -1.0282  0.1169
 3940TIP3    H233312   3.981   6.216   0.098  0.2699 -0.6881 -0.2103
 3941TIP3   OH233313   4.248   0.834   3.710 -0.0235  0.1238 -0.5629
 3941TIP3    H133314   4.175   0.888   3.739 -0.6939 -0.7261 -0.6207
 3941TIP3    H233315   4.299   0.818   3.788 -1.2894 -1.3553  0.0174
 3942TIP3   OH233316   2.330   4.832   0.508  0.3218 -0.2305 -0.0557
 3942TIP3    H133317   2.288   4.825   0.594 -0.4110  0.6718 -0.3240
 3942TIP3    H233318   2.282   4.901   0.464  1.0874 -0.2720 -0.9772
 3943TIP3   OH233319   0.277   6.046  14.799 -0.4673 -0.2023 -0.3691
 3943TIP3    H133320   0.296   6.061  14.706  0.4553 -0.6490 -0.2649
 3943TIP3    H233321   0.340   5.978  14.825 -3.1797 -2.9684 -0.3869
 3944TIP3   OH233322   2.628   1.410   3.911 -0.1487 -0.3982 -0.1149
 3944TIP3    H133323   2.666   1.325   3.891  0.8493  0.4043 -1.8741
 3944TIP3    H233324   2.701   1.472   3.899 -0.5996  0.6491  1.9821
 3945TIP3   OH233325   3.782   5.643   2.528  0.2143  0.2826 -0.5054
 3945TIP3    H133326   3.731   5.590   2.466 -2.7279  2.0338  0.2093
 3945TIP3    H233327   3.799   5.584   2.601 -0.9653 -0.3659 -0.7186
 3946TIP3   OH233328   6.692   0.288  15.747 -0.9268 -0.4906 -0.0500
 3946TIP3    H133329   6.767   0.250  15.793 -0.0077 -1.0486 -1.8976
 3946TIP3    H233330   6.645   0.338  15.814  0.3018 -1.2914  1.4665
 3947TIP3   OH233331   0.617   4.812   2.758 -0.3135  0.1913 -0.5218
 3947TIP3    H133332   0.534   4.783   2.718 -1.0502  2.3825 -0.6878
 3947TIP3    H233333   0.636   4.896   2.716  2.3010 -0.4877 -0.8556
 3948TIP3   OH233334   3.280   3.988  16.441  0.0149 -0.1387  0.3617
 3948TIP3    H133335   3.200   3.953  16.403 -0.9765  1.4559  0.8513
 3948TIP3    H233336   3.335   4.010  16.366 -0.4132 -0.3611 -0.0197
 3949TIP3   OH233337   5.576   5.147  12.498 -1.0656 -0.2952  0.2843
 3949TIP3    H133338   5.609   5.072  12.448 -0.7601 -0.4464  0.7102
 3949TIP3    H233339   5.549   5.210  12.431 -0.5057 -0.4296 -0.0743
 3950TIP3   OH233340   2.694   4.559  14.242 -0.2781  0.0236  0.2538
 3950TIP3    H133341   2.608   4.531  14.275  0.3105  0.7509  2.5843
 3950TIP3    H233342   2.686   4.654  14.232  0.1098  0.0372  0.0685
 3951TIP3   OH233343   1.139   4.386  16.860 -0.2648  0.3842  0.9953
 3951TIP3    H133344   1.080   4.426  16.796 -1.2699  0.2566  1.8157
 3951TIP3    H233345   1.184   4.461  16.901 -0.4943  0.5341  0.9732
 3952TIP3   OH233346   6.810   4.642   2.721  0.0100 -0.1107 -0.5073
 3952TIP3    H133347   6.725   4.609   2.692  0.3106  0.0215 -1.5975
 3952TIP3    H233348   6.797   4.663   2.813 -1.4552  0.9300 -0.9061
 3953TIP3   OH233349   0.827   6.711   1.393 -0.8847  0.0640 -0.3079
 3953TIP3    H133350   0.899   6.772   1.376  0.7746 -1.6903  0.0736
 3953TIP3    H233351   0.771   6.756   1.456 -0.1863  1.4972 -0.6636
 3954TIP3   OH233352   2.775   0.371   0.787 -0.0735 -0.0521 -0.2307
 3954TIP3    H133353   2.777   0.438   0.719  0.4735  0.0776 -0.0948
 3954TIP3    H233354   2.802   0.418   0.867 -0.2404 -0.3076 -0.0213
 3955TIP3   OH233355   4.215   1.376   5.735  0.2336  0.1396 -0.4788
 3955TIP3    H133356   4.305   1.392   5.705  0.8952 -0.0032  1.2598
 3955TIP3    H233357   4.202   1.441   5.805 -0.7153 -0.3894 -0.1529
 3956TIP3   OH233358   5.344   5.683  14.196 -0.3831  0.8723  0.3161
 3956TIP3    H133359   5.420   5.741  14.205  0.3392  0.2524 -1.3718
 3956TIP3    H233360   5.272   5.741  14.172  0.1428  1.1800 -0.5515
 3957TIP3   OH233361   4.666   4.800   2.522  0.4338 -0.3829 -0.3559
 3957TIP3    H133362   4.706   4.775   2.439 -0.0816  0.7975 -0.9842
 3957TIP3    H233363   4.666   4.719   2.574  2.4916 -0.6936 -0.7777
 3958TIP3   OH233364   0.544   6.701  14.926 -0.4262 -0.3032 -0.8074
 3958TIP3    H133365   0.465   6.666  14.885 -2.3691  0.7841  1.7713
 3958TIP3    H233366   0.570   6.635  14.990 -2.6149  1.5385  2.2505
 3959TIP3   OH233367   1.977   3.130   0.001  0.2233  0.5393  0.1084
 3959TIP3    H133368   1.985   3.167  -0.087  0.1573 -0.4247 -0.3085
 3959TIP3    H233369   1.900   3.074  -0.003  0.6093 -0.0373  0.5953
 3960TIP3   OH233370   3.947   6.139  11.942  0.3336  0.0710  0.1229
 3960TIP3    H133371   4.005   6.142  11.866 -1.9721  0.6836 -1.7336
 3960TIP3    H233372   3.977   6.210  11.998  1.2771  0.4786 -0.8691
 3961TIP3   OH233373   2.523   1.776  12.089 -0.1459  0.2673  0.1355
 3961TIP3    H133374   2.596   1.754  12.147  1.2302 -1.0724 -1.9468
 3961TIP3    H233375   2.454   1.807  12.147  1.9142  1.1654  2.2386
 3962TIP3   OH233376   1.979   3.944   2.790 -0.3749  0.0668 -0.0734
 3962TIP3    H133377   1.902   3.963   2.736 -1.0174 -0.0847  0.7643
 3962TIP3    H233378   1.954   3.867   2.841  0.3646 -0.0265  0.1586
 3963TIP3   OH233379   0.607   3.240   3.527 -0.6824 -0.6184 -0.2389
 3963TIP3    H133380   0.611   3.217   3.434 -2.8320 -0.1696 -0.4955
 3963TIP3    H233381   0.587   3.334   3.527 -0.8095 -0.6397  0.6689
 3964TIP3   OH233382   1.899   2.800  16.668 -0.7636 -0.5065 -0.7124
 3964TIP3    H133383   1.867   2.747  16.741  0.8500  0.1573  0.5536
 3964TIP3    H233384   1.843   2.776  16.594 -0.7170 -3.2543  0.0355
 3965TIP3   OH233385   4.517   2.163  13.522 -0.1826 -0.2743 -0.2004
 3965TIP3    H133386   4.522   2.089  13.462 -0.5566  0.2137 -0.8502
 3965TIP3    H233387   4.606   2.199  13.523 -0.0732 -0.5421 -0.1176
 3966TIP3   OH233388   5.470   5.391   4.094 -0.6113 -0.0236 -0.1109
 3966TIP3    H133389   5.437   5.392   4.004 -0.4255  2.2391 -0.2099
 3966TIP3    H233390   5.492   5.482   4.113  1.3794 -0.7506  1.5095
 3967TIP3   OH233391   1.371   3.436   1.376  0.6554 -0.4049  0.0669
 3967TIP3    H133392   1.364   3.433   1.280 -1.2847 -2.0461  0.1902
 3967TIP3    H233393   1.303   3.376   1.406  0.4708  0.9401  2.5258
 3968TIP3   OH233394   2.614   5.849  17.047  0.0527 -0.5977  0.5206
 3968TIP3    H133395   2.560   5.770  17.056  1.6138 -1.9703 -1.2751
 3968TIP3    H233396   2.677   5.843  17.118 -1.0317  0.1031  1.5717
 3969TIP3   OH233397   1.390   6.717  11.166 -0.5827  0.0213  0.0869
 3969TIP3    H133398   1.448   6.707  11.090 -1.3226 -0.2098 -0.4472
 3969TIP3    H233399   1.348   6.802  11.152 -1.3935 -0.4256 -0.2285
 3970TIP3   OH233400   1.626   0.519  11.466 -0.5282  0.4309 -0.3006
 3970TIP3    H133401   1.546   0.504  11.416 -0.2955  3.2224 -1.7161
 3970TIP3    H233402   1.657   0.432  11.488 -4.6102 -0.8213  1.5463
 3971TIP3   OH233403   4.587   6.517  17.235 -0.1265 -0.2048 -0.5497
 3971TIP3    H133404   4.546   6.585  17.289  0.9809 -0.4440  0.6435
 3971TIP3    H233405   4.561   6.435  17.277  0.2871 -0.4226 -0.7181
 3972TIP3   OH233406   5.391   5.508   5.766  0.4986  0.4085 -1.0602
 3972TIP3    H133407   5.325   5.455   5.721  1.3266 -0.5189 -1.2356
 3972TIP3    H233408   5.346   5.589   5.789 -0.5998 -0.0675 -1.4643
 3973TIP3   OH233409   2.749   5.529  13.535 -0.2632  0.5725  0.2792
 3973TIP3    H133410   2.662   5.540  13.573 -1.0552 -0.5734 -1.0674
 3973TIP3    H233411   2.771   5.437  13.552  2.4595  1.6894  3.9834
 3974TIP3   OH233412   4.432   2.097   3.170 -0.4436  0.3252 -0.0500
 3974TIP3    H133413   4.404   2.014   3.132  1.0154  0.0977 -0.6937
 3974TIP3    H233414   4.516   2.078   3.212  0.1882  1.5662 -0.6743
 3975TIP3   OH233415   0.652   3.922   4.750  0.2213  0.0291  0.6569
 3975TIP3    H133416   0.623   3.898   4.663 -0.1874  0.3912  0.6948
 3975TIP3    H233417   0.613   4.007   4.767  1.7591  0.8165  0.4770
 3976TIP3   OH233418   6.235   0.557   0.129 -0.0625 -0.8239 -0.1354
 3976TIP3    H133419   6.151   0.600   0.111 -0.2638 -1.2532 -0.2295
 3976TIP3    H233420   6.221   0.466   0.105  0.0512 -1.1564  0.9744
 3977TIP3   OH233421   0.933   6.532   6.300 -0.3424 -0.1630  0.7031
 3977TIP3    H133422   0.887   6.580   6.368 -0.4977 -0.6272  0.9259
 3977TIP3    H233423   0.906   6.441   6.311 -0.6188 -0.1994 -0.1762
 3978TIP3   OH233424   4.630   4.369  11.267 -0.2469 -0.3653 -0.1056
 3978TIP3    H133425   4.638   4.326  11.182  0.2745  1.5615 -1.0996
 3978TIP3    H233426   4.702   4.334  11.319  1.0695  0.3199 -1.3773
 3979TIP3   OH233427   3.831   2.319   4.811  0.3331  0.1148  0.0942
 3979TIP3    H133428   3.736   2.306   4.820  0.1129 -0.3385 -2.1657
 3979TIP3    H233429   3.839   2.400   4.761  1.1044 -0.1018 -0.1413
 3980TIP3   OH233430   0.628   3.446  14.932  0.1587 -0.0186  0.6795
 3980TIP3    H133431   0.632   3.397  14.850 -1.3329 -0.3945  0.7992
 3980TIP3    H233432   0.719   3.462  14.955  0.6184 -0.6819 -0.5875
 3981TIP3   OH233433   4.471   0.345  15.267  0.2362 -0.0383  0.2963
 3981TIP3    H133434   4.510   0.277  15.211 -1.1527  0.3746 -1.2402
 3981TIP3    H233435   4.404   0.299  15.317  0.8681 -0.2289  0.9874
 3982TIP3   OH233436   5.599   2.149   2.453  0.0634  0.0459  0.0653
 3982TIP3    H133437   5.638   2.211   2.515 -0.4338 -0.6299  1.0701
 3982TIP3    H233438   5.650   2.069   2.463 -0.5085 -0.3114  0.1647
 3983TIP3   OH233439   5.972   1.892   5.079  0.0650  0.3785  0.1145
 3983TIP3    H133440   5.906   1.933   5.135 -0.9964  0.2019 -0.9753
 3983TIP3    H233441   5.930   1.814   5.044  0.7823  0.3449 -0.7323
 3984TIP3   OH233442   0.944   3.297   2.896 -0.0459  0.0329 -0.3653
 3984TIP3    H133443   0.905   3.222   2.852 -1.0669  0.2475  0.1394
 3984TIP3    H233444   0.933   3.369   2.834 -1.2643  0.2817  0.1123
 3985TIP3   OH233445   5.812   5.400  11.540 -0.0857  0.0855 -0.0451
 3985TIP3    H133446   5.722   5.396  11.572 -0.1114  1.2712  0.0389
 3985TIP3    H233447   5.862   5.347  11.602 -0.3947  1.0670  1.0771
 3986TIP3   OH233448   6.489   2.216   0.915 -0.3066  0.1063 -0.3200
 3986TIP3    H133449   6.466   2.215   0.822  4.0169  2.5318 -1.6539
 3986TIP3    H233450   6.484   2.308   0.941  1.1364 -0.1563  1.0824
 3987TIP3   OH233451   1.343   5.943  13.429 -0.3038  0.6465 -0.3553
 3987TIP3    H133452   1.263   5.902  13.464  0.2019  0.9052  1.1712
 3987TIP3    H233453   1.413   5.913  13.486  0.3260  2.3515 -0.1552
 3988TIP3   OH233454   3.779   5.301   2.954 -0.7378  0.2431 -0.6926
 3988TIP3    H133455   3.791   5.332   2.864  0.7390 -2.1248 -1.4003
 3988TIP3    H233456   3.845   5.232   2.965 -1.4766 -0.1678  1.9263
 3989TIP3   OH233457   6.066   4.715   2.440 -0.5437 -0.4654  0.2221
 3989TIP3    H133458   6.060   4.811   2.436  0.7917 -0.2731  1.8722
 3989TIP3    H233459   6.107   4.690   2.357 -1.1510  0.3546 -0.3402
 3990TIP3   OH233460   2.565   0.492   1.762  0.3795 -0.4370 -0.0376
 3990TIP3    H133461   2.594   0.487   1.853  1.0181 -0.4422 -0.2419
 3990TIP3    H233462   2.484   0.440   1.760  0.8153 -1.1406  0.3405
 3991TIP3   OH233463   0.887   4.149   6.373 -0.3310  0.5325  0.5153
 3991TIP3    H133464   0.883   4.228   6.320 -1.2053 -0.0371 -0.3133
 3991TIP3    H233465   0.803   4.147   6.419 -0.9970 -0.6748 -0.6611
 3992TIP3   OH233466   1.386   0.035   5.916 -0.1228 -0.2804  0.2183
 3992TIP3    H133467   1.368   0.023   5.822  0.2521 -0.4970  0.1704
 3992TIP3    H233468   1.322  -0.020   5.960  0.2987 -0.9183  0.0539
 3993TIP3   OH233469   6.384   4.573   2.002  0.0182 -0.2069 -0.4953
 3993TIP3    H133470   6.323   4.624   1.949  0.1602 -0.2089 -0.6630
 3993TIP3    H233471   6.467   4.580   1.956  0.8689  2.1821  1.1927
 3994TIP3   OH233472   1.527   4.441   5.894  0.2244 -0.2565 -0.2683
 3994TIP3    H133473   1.439   4.465   5.922  0.8622 -0.4357  2.0677
 3994TIP3    H233474   1.536   4.350   5.920  1.2515 -0.1147 -0.1041
 3995TIP3   OH233475   1.340   6.304  11.847  0.4090 -0.1111  0.2595
 3995TIP3    H133476   1.336   6.209  11.857  0.6865 -0.1693 -0.1614
 3995TIP3    H233477   1.264   6.336  11.895 -0.0183 -0.5854 -0.0887
 3996TIP3   OH233478   5.372   2.979   4.003 -0.4833  0.1844  0.3023
 3996TIP3    H133479   5.410   3.013   4.084  0.9037  0.0114 -0.2488
 3996TIP3    H233480   5.429   2.907   3.978 -1.3408 -0.2621 -0.4333
 3997TIP3   OH233481   6.000   5.460  12.534 -0.0140 -0.0206 -0.0790
 3997TIP3    H133482   5.948   5.390  12.494  0.4338  1.3009 -3.2938
 3997TIP3    H233483   6.089   5.425  12.537 -0.3291 -0.7409  1.4315
 3998TIP3   OH233484   4.245   5.211   4.818  0.0169 -0.7552 -0.0234
 3998TIP3    H133485   4.325   5.172   4.781 -0.2729 -1.4218  0.0347
 3998TIP3    H233486   4.269   5.301   4.837 -0.1416 -0.0408 -2.8639
 3999TIP3   OH233487   5.972   3.120   5.795  0.1194  0.2210 -0.1590
 3999TIP3    H133488   6.024   3.066   5.855 -0.0446  0.4211  0.1670
 3999TIP3    H233489   5.887   3.126   5.837  0.8152  2.7350  1.0428
 4000TIP3   OH233490   4.562   0.787  12.686 -0.1475  0.3540 -0.5493
 4000TIP3    H133491   4.532   0.865  12.732  1.7995  1.1274 -0.4809
 4000TIP3    H233492   4.654   0.806  12.665  0.6046 -2.1952  0.1248
 4001TIP3   OH233493   6.690   4.793  12.609 -0.0051 -0.1224 -0.3896
 4001TIP3    H133494   6.645   4.828  12.686  1.1719  1.6426 -0.4555
 4001TIP3    H233495   6.631   4.726  12.576 -0.5295 -0.9964  2.0610
 4002TIP3   OH233496   3.639   3.703  15.040 -0.3402 -0.0302  0.5095
 4002TIP3    H133497   3.642   3.796  15.064 -0.1699 -0.2110  1.2315
 4002TIP3    H233498   3.686   3.698  14.957 -1.4168  0.7085 -0.1743
 4003TIP3   OH233499   3.039   5.074  12.534 -0.0759  0.2627 -0.5716
 4003TIP3    H133500   3.068   5.163  12.554  0.2871  0.1859 -0.7413
 4003TIP3    H233501   2.956   5.064  12.580  0.2882  0.4100  0.1292
 4004TIP3   OH233502   1.057   5.351  13.642 -0.9111  0.2247  0.2404
 4004TIP3    H133503   1.039   5.258  13.629 -0.0551 -0.2514  2.1178
 4004TIP3    H233504   0.973   5.394  13.625 -1.7259 -1.0595  0.8372
 4005TIP3   OH233505   0.632   0.205   2.268 -0.2022  0.1243 -0.5361
 4005TIP3    H133506   0.701   0.270   2.256 -0.7052  0.7619 -0.0443
 4005TIP3    H233507   0.668   0.143   2.331 -0.0554  0.4213 -0.3270
 4006TIP3   OH233508   1.918   4.021   5.725 -0.6671 -0.1346  0.4008
 4006TIP3    H133509   1.974   4.020   5.802  1.9798 -1.8791 -1.3694
 4006TIP3    H233510   1.915   3.930   5.696 -3.0422  0.1941 -0.6048
 4007TIP3   OH233511   1.747   4.936  14.149  0.6259 -0.0025 -0.0181
 4007TIP3    H133512   1.686   5.007  14.169  0.3668 -0.2030 -0.0900
 4007TIP3    H233513   1.817   4.978  14.099 -0.0826  0.0150 -1.0346
 4008TIP3   OH233514   6.781   2.911   0.425  0.0106 -0.0246 -0.0679
 4008TIP3    H133515   6.874   2.917   0.401 -0.1042  0.3291 -0.4296
 4008TIP3    H233516   6.768   2.984   0.485  0.0381 -0.2576  0.2214
 4009TIP3   OH233517   4.778   1.392   2.141  0.4099  0.2061 -0.3024
 4009TIP3    H133518   4.808   1.474   2.182 -0.4694  0.2185  0.3370
 4009TIP3    H233519   4.821   1.392   2.055  0.6365  1.2090 -0.2092
 4010TIP3   OH233520   1.574   5.392  17.290 -0.0481  0.0951  0.9323
 4010TIP3    H133521   1.541   5.402  17.201  1.4436  3.4329  0.6145
 4010TIP3    H233522   1.639   5.321  17.284  0.1196  0.3489 -0.6783
 4011TIP3   OH233523   2.035   2.457  11.518 -0.0836 -0.0081 -0.7760
 4011TIP3    H133524   2.002   2.546  11.508 -1.7591 -0.3608  1.0520
 4011TIP3    H233525   2.058   2.430  11.429  0.5969  2.2665 -1.3497
 4012TIP3   OH233526   3.586   4.073  13.319 -0.0628 -0.2882 -0.7213
 4012TIP3    H133527   3.582   4.033  13.233 -0.8911 -1.2447 -0.2615
 4012TIP3    H233528   3.513   4.033  13.367  0.9803 -0.5110  0.7349
 4013TIP3   OH233529   3.612   0.472  11.576  0.1847  0.0694 -0.1934
 4013TIP3    H133530   3.557   0.394  11.570  0.9462 -0.4373 -0.7709
 4013TIP3    H233531   3.646   0.484  11.487  1.8969 -0.3007  0.3689
 4014TIP3   OH233532   4.121   1.923  14.253 -0.9955 -0.0219  0.0065
 4014TIP3    H133533   4.058   1.875  14.199 -0.2428 -2.4999  1.1652
 4014TIP3    H233534   4.110   2.015  14.227 -2.1739 -0.8210 -2.7270
 4015TIP3   OH233535   1.179   1.542  12.536  0.7407 -0.0170  0.1564
 4015TIP3    H133536   1.087   1.553  12.514  0.6970 -2.6051 -1.2509
 4015TIP3    H233537   1.184   1.565  12.629 -1.1490  0.8814  0.0809
 4016TIP3   OH233538   1.196   6.426  13.661 -0.5537  0.2064 -0.0594
 4016TIP3    H133539   1.232   6.428  13.749  0.3948 -0.9366 -0.4004
 4016TIP3    H233540   1.271   6.442  13.603 -1.0580  0.3558 -0.6859
 4017TIP3   OH233541   4.995   5.906   3.189  0.0333  0.6231 -0.0413
 4017TIP3    H133542   5.009   5.835   3.126 -0.8541  0.1505  0.2735
 4017TIP3    H233543   4.924   5.958   3.151 -1.9548 -0.8308  1.4773
 4018TIP3   OH233544   5.068   3.624   4.316  0.0630 -0.2954 -0.2188
 4018TIP3    H133545   5.147   3.666   4.285  0.6954 -0.8826  0.5402
 4018TIP3    H233546   5.020   3.693   4.362 -0.3022  0.2730 -1.4213
 4019TIP3   OH233547   4.944   6.431  16.275  0.1013  0.0781 -0.0747
 4019TIP3    H133548   4.980   6.511  16.238  1.9508 -1.1862 -1.1869
 4019TIP3    H233549   4.932   6.373  16.199 -1.1514 -0.7349  0.7030
 4020TIP3   OH233550   5.007   3.192   1.770  0.5113  0.3925 -0.3151
 4020TIP3    H133551   4.942   3.183   1.840 -0.1427 -0.2756 -0.9871
 4020TIP3    H233552   5.004   3.109   1.723  0.1308  1.2045 -1.8020
 4021TIP3   OH233553   4.423   4.385  14.601  0.1366  0.1536 -0.2881
 4021TIP3    H133554   4.352   4.327  14.573 -0.1834 -0.8545  2.4024
 4021TIP3    H233555   4.485   4.328  14.646  1.0900  1.5245  0.2169
 4022TIP3   OH233556   3.775   2.977   3.579  0.3977 -0.3621  0.8316
 4022TIP3    H133557   3.727   2.967   3.661 -1.9939  0.5698 -0.3595
 4022TIP3    H233558   3.816   3.063   3.586 -1.2962  0.5141  0.3788
 4023TIP3   OH233559   4.505   1.538   1.490  0.6930 -0.2610 -0.0465
 4023TIP3    H133560   4.577   1.525   1.552  0.6558  1.5301  0.4381
 4023TIP3    H233561   4.440   1.472   1.514  1.3501 -0.6214  0.7811
 4024TIP3   OH233562   0.404   5.748   5.136 -0.3654 -0.8196 -0.1805
 4024TIP3    H133563   0.487   5.793   5.125 -0.5877  0.0064  1.2719
 4024TIP3    H233564   0.427   5.659   5.163  0.0460 -1.1476 -1.5293
 4025TIP3   OH233565   5.935   0.471  14.547  0.5455 -0.6869 -0.1806
 4025TIP3    H133566   5.850   0.470  14.591  0.8946 -2.6937  0.5410
 4025TIP3    H233567   5.988   0.531  14.599  0.4316 -1.7001  1.1499
 4026TIP3   OH233568   6.586   1.646  15.781  0.0232 -0.0953 -0.3743
 4026TIP3    H133569   6.507   1.604  15.748 -0.4771  0.3454  0.2638
 4026TIP3    H233570   6.655   1.582  15.764 -0.9109 -1.7851  1.7429
 4027TIP3   OH233571   4.035   4.108  13.313  0.4669 -0.0481  0.2287
 4027TIP3    H133572   3.970   4.115  13.242  1.5781 -0.2677 -0.8480
 4027TIP3    H233573   4.071   4.020  13.303  1.0293  0.1212  0.7287
 4028TIP3   OH233574   5.275   6.743  13.668 -0.3422  0.2178  0.0391
 4028TIP3    H133575   5.256   6.651  13.686  0.3461  0.1394  0.3716
 4028TIP3    H233576   5.334   6.742  13.593  0.4547  0.3406  0.6551
 4029TIP3   OH233577   3.220   2.021   1.404 -0.6418  0.2289 -0.0489
 4029TIP3    H133578   3.183   2.090   1.460  1.8888  1.5570  0.1403
 4029TIP3    H233579   3.186   2.041   1.316  0.6353  2.2780 -0.1452
 4030TIP3   OH233580   0.510   1.772   1.512 -0.2597  0.2156 -0.8115
 4030TIP3    H133581   0.455   1.796   1.437 -1.0219  0.2874 -0.2404
 4030TIP3    H233582   0.534   1.681   1.496  1.0346  0.7347 -2.0113
 4031TIP3   OH233583   0.527   5.414  15.055 -0.5433  0.0729 -0.4011
 4031TIP3    H133584   0.604   5.424  14.999  0.3837  0.0736  0.8276
 4031TIP3    H233585   0.521   5.320  15.071 -0.3625  0.1392  0.0779
 4032TIP3   OH233586   6.219   2.468  17.289 -0.3496  0.2934 -0.3176
 4032TIP3    H133587   6.234   2.374  17.278 -0.2979  0.0444  1.5435
 4032TIP3    H233588   6.140   2.473  17.343  1.0913  1.1977  1.8481
 4033TIP3   OH233589   5.516   6.110   5.139  0.5110  0.2833 -0.4937
 4033TIP3    H133590   5.577   6.082   5.071 -0.9199 -1.6830 -1.0803
 4033TIP3    H233591   5.509   6.034   5.198  0.4425  1.3378  0.9117
 4034TIP3   OH233592   0.973   3.307   5.030 -0.1482  0.0691 -0.6840
 4034TIP3    H133593   0.905   3.288   5.095 -0.8016 -0.0789 -1.3874
 4034TIP3    H233594   0.924   3.338   4.953  0.7299  2.4174 -0.3624
 4035TIP3   OH233595   6.280   1.654  12.078  0.2645 -1.0067  0.4287
 4035TIP3    H133596   6.238   1.705  12.147 -1.6065 -1.4793 -0.2924
 4035TIP3    H233597   6.298   1.718  12.009 -0.8209 -1.0641  0.0778
 4036TIP3   OH233598   3.088   6.801   4.347  0.4322 -0.1259 -0.2305
 4036TIP3    H133599   3.178   6.789   4.318 -0.2449 -3.5210 -1.5024
 4036TIP3    H233600   3.035   6.782   4.269 -1.3914 -0.4261  1.0080
 4037TIP3   OH233601   3.269   4.704  13.979  0.0614  0.2919  0.4900
 4037TIP3    H133602   3.293   4.622  13.937 -0.5016  0.8575 -1.0369
 4037TIP3    H233603   3.175   4.711  13.966  0.1916  1.4707 -0.0009
 4038TIP3   OH233604   3.496   6.381   0.804 -0.6312  0.1932  0.0091
 4038TIP3    H133605   3.538   6.416   0.725 -1.2255 -2.1106 -1.4306
 4038TIP3    H233606   3.541   6.424   0.877 -0.3860  2.7630 -1.5444
 4039TIP3   OH233607   4.898   0.639   3.243 -0.0992 -0.1195  0.0665
 4039TIP3    H133608   4.917   0.733   3.243 -0.0459 -0.1228 -0.6679
 4039TIP3    H233609   4.878   0.618   3.334  3.4123 -0.1007  1.0127
 4040TIP3   OH233610   2.957   3.589  15.204 -0.4568 -0.9712 -0.1113
 4040TIP3    H133611   2.983   3.531  15.275  1.4947 -0.9789 -0.7722
 4040TIP3    H233612   2.897   3.536  15.151 -0.4346 -1.6203  0.4991
 4041TIP3   OH233613   4.978   1.437  14.138 -0.2134  0.3088 -0.4097
 4041TIP3    H133614   4.932   1.514  14.106  0.2170  0.9916  0.5881
 4041TIP3    H233615   4.958   1.433  14.231 -0.2581 -0.8058 -0.4556
 4042TIP3   OH233616   4.046   0.013   6.338 -0.3361 -0.3240  0.1680
 4042TIP3    H133617   4.054  -0.054   6.270 -3.0848 -0.5738 -0.0281
 4042TIP3    H233618   3.982  -0.022   6.400  1.2487  0.3948  2.3414
 4043TIP3   OH233619   6.438   6.120   1.165 -0.6228 -0.1320  0.2967
 4043TIP3    H133620   6.438   6.042   1.109 -1.5705 -0.2932  0.5024
 4043TIP3    H233621   6.509   6.175   1.130  1.2764 -1.8438  1.2416
 4044TIP3   OH233622   1.421   2.565  16.853 -0.2029 -0.2457  0.1836
 4044TIP3    H133623   1.385   2.543  16.939  1.7014 -0.9404  0.8544
 4044TIP3    H233624   1.504   2.609  16.871  0.5352 -0.9485 -1.2790
 4045TIP3   OH233625   5.999   5.509  17.255 -0.4606 -0.5183 -0.1681
 4045TIP3    H133626   6.037   5.429  17.290 -0.9009 -0.6813 -0.0536
 4045TIP3    H233627   6.064   5.542  17.193  1.1750  0.7545  2.0757
 4046TIP3   OH233628   1.332   0.514  16.500  0.5345  0.4847  0.6106
 4046TIP3    H133629   1.413   0.546  16.462  0.4433 -1.1800 -1.1273
 4046TIP3    H233630   1.265   0.535  16.436  0.2602 -1.7252  0.0701
 4047TIP3   OH233631   2.324   2.001   1.759 -0.1574  0.0745 -0.0214
 4047TIP3    H133632   2.386   2.068   1.788  0.7361 -0.4484 -0.6719
 4047TIP3    H233633   2.254   2.050   1.716  0.5138  0.6012 -0.5468
 4048TIP3   OH233634   0.910   5.473   2.671  0.3619  0.1782  0.2532
 4048TIP3    H133635   0.959   5.515   2.742  1.0066  1.0683 -0.6979
 4048TIP3    H233636   0.826   5.518   2.669  0.7151  0.8244 -0.1820
 4049TIP3   OH233637   1.147   5.775   1.707 -0.2734  0.6131 -0.1892
 4049TIP3    H133638   1.238   5.780   1.678 -0.3199 -1.6407 -0.9017
 4049TIP3    H233639   1.113   5.695   1.667 -2.3292  0.9431  0.7516
 4050TIP3   OH233640   4.431   4.135   0.428 -0.4725 -0.0018 -0.4990
 4050TIP3    H133641   4.505   4.083   0.398 -0.4327  1.2436 -2.7158
 4050TIP3    H233642   4.354   4.088   0.396 -0.4239  1.4546 -2.9787
 4051TIP3   OH233643   5.908   4.097   2.814 -0.4867  0.3623  0.1262
 4051TIP3    H133644   5.900   4.182   2.857 -2.5791  0.0601  0.4675
 4051TIP3    H233645   5.839   4.098   2.747 -0.3918 -0.9722 -0.0191
 4052TIP3   OH233646   0.902   1.115  15.887  0.0086  0.2284  0.1141
 4052TIP3    H133647   0.824   1.158  15.922 -0.5752 -0.8984  0.2210
 4052TIP3    H233648   0.930   1.171  15.815 -2.4610 -0.6892 -1.6923
 4053TIP3   OH233649   5.682   5.026   3.987 -0.3456  0.0926 -0.3398
 4053TIP3    H133650   5.605   5.006   4.041  0.2858  1.3778  1.0987
 4053TIP3    H233651   5.750   4.967   4.020 -0.1226  0.4617 -0.1393
 4054TIP3   OH233652   6.368   6.055   3.886 -0.5303  0.4361  0.0423
 4054TIP3    H133653   6.366   6.128   3.824  0.3774  0.2180 -0.2673
 4054TIP3    H233654   6.277   6.025   3.891 -0.4467 -0.5445 -2.4125
 4055TIP3   OH233655   4.881   2.059  10.286  0.2644 -0.2220  0.5112
 4055TIP3    H133656   4.937   1.982  10.286 -0.3121 -0.6868 -1.0528
 4055TIP3    H233657   4.793   2.025  10.306  0.0058  0.0125 -0.1961
 4056TIP3   OH233658   6.189   4.985   1.200 -0.5206 -0.6905 -0.1300
 4056TIP3    H133659   6.163   5.077   1.209  0.6393 -0.2143 -1.3316
 4056TIP3    H233660   6.280   4.983   1.232 -0.9808 -1.7188  1.1966
 4057TIP3   OH233661   2.496   1.069  12.911  0.1103 -0.2875 -0.2147
 4057TIP3    H133662   2.420   1.071  12.852  0.6452 -1.0551 -0.9550
 4057TIP3    H233663   2.467   1.117  12.988 -0.9123 -0.0107 -0.7452
 4058TIP3   OH233664   2.493   2.346  11.965 -0.4591 -0.1159 -0.0968
 4058TIP3    H133665   2.469   2.333  12.057  1.2100 -0.9577  0.2645
 4058TIP3    H233666   2.584   2.376  11.969 -0.5366  0.3685 -1.4696
 4059TIP3   OH233667   1.860   6.107  11.534  0.1520  0.6006  0.1721
 4059TIP3    H133668   1.875   6.141  11.445 -1.4048  0.7646 -0.0537
 4059TIP3    H233669   1.768   6.124  11.551  0.2250 -0.2020  1.5095
 4060TIP3   OH233670   4.860   1.318  12.132  0.3169 -0.3196 -0.0047
 4060TIP3    H133671   4.941   1.342  12.178 -0.1019  0.4182  0.3726
 4060TIP3    H233672   4.860   1.373  12.054  0.5272 -0.8479 -0.3876
 4061TIP3   OH233673   4.255   2.132  16.436  0.5073 -0.1702  0.4917
 4061TIP3    H133674   4.241   2.144  16.342  2.6649 -0.9080  0.0170
 4061TIP3    H233675   4.180   2.175  16.477  0.8895  2.6725 -1.4607
 4062TIP3   OH233676   6.677   0.817   1.551  0.1109 -0.6205 -0.2262
 4062TIP3    H133677   6.693   0.734   1.597  2.1434 -0.1528 -0.0041
 4062TIP3    H233678   6.710   0.884   1.610 -1.0444  0.3458 -0.6285
 4063TIP3   OH233679   1.636   2.455  14.312  0.3879 -0.2239 -0.2015
 4063TIP3    H133680   1.723   2.494  14.325  0.9455 -0.6730 -2.1956
 4063TIP3    H233681   1.647   2.363  14.336  0.1043 -0.0074  0.7855
 4064TIP3   OH233682   3.317   3.607  13.859  0.1001 -0.0560  0.9014
 4064TIP3    H133683   3.244   3.622  13.920  0.2032 -2.4697  1.7345
 4064TIP3    H233684   3.393   3.646  13.902 -0.3754  1.0854  0.7622
 4065TIP3   OH233685   4.716   3.722  10.984 -0.5410  0.7582 -0.3825
 4065TIP3    H133686   4.671   3.729  10.899  2.1325  2.4799 -1.8124
 4065TIP3    H233687   4.717   3.812  11.017 -1.0661  0.1823  1.2550
 4066TIP3   OH233688   5.969   6.043   5.355  0.4539 -0.1732  0.0067
 4066TIP3    H133689   6.045   5.995   5.389  1.2616  0.7763 -0.4216
 4066TIP3    H233690   5.926   6.078   5.433 -0.0555 -1.4351  0.3165
 4067TIP3   OH233691   6.315   2.129   1.893  0.1238  0.3961  0.2094
 4067TIP3    H133692   6.232   2.153   1.934  0.3792  1.3346  0.2127
 4067TIP3    H233693   6.312   2.173   1.808  1.1250  1.4633  0.6971
 4068TIP3   OH233694   3.352   1.816  13.912  0.0100  0.2647  0.4954
 4068TIP3    H133695   3.305   1.757  13.971 -1.8907  0.0093 -1.1562
 4068TIP3    H233696   3.405   1.758  13.856 -0.6975  0.2235 -0.1447
 4069TIP3   OH233697   1.219   2.263   5.092 -0.5718 -0.1191  0.3890
 4069TIP3    H133698   1.193   2.178   5.055 -0.4213  0.2982 -0.7147
 4069TIP3    H233699   1.249   2.243   5.180  0.7418 -1.4145 -0.3257
 4070TIP3   OH233700   2.430   1.024   1.158  0.3380 -0.0457 -0.1635
 4070TIP3    H133701   2.500   0.984   1.108 -0.6311 -1.9734 -0.0788
 4070TIP3    H233702   2.350   0.981   1.126 -0.8195  2.0238 -0.2175
 4071TIP3   OH233703   2.181   2.064  14.100  0.1584 -0.3367 -0.7502
 4071TIP3    H133704   2.131   2.117  14.162 -1.7099 -0.6542 -1.8987
 4071TIP3    H233705   2.263   2.044  14.145 -0.6475  0.4067  1.1316
 4072TIP3   OH233706   1.277   1.873   0.696 -0.2505  0.3103 -0.0910
 4072TIP3    H133707   1.307   1.960   0.670  0.7164  0.5016  1.5340
 4072TIP3    H233708   1.226   1.888   0.776  0.6355 -0.6769  0.6960
 4073TIP3   OH233709   1.529   4.820   1.184  0.0973  0.7996 -0.2229
 4073TIP3    H133710   1.612   4.827   1.136  0.2029  1.4037  0.0403
 4073TIP3    H233711   1.467   4.787   1.119  0.4995  0.5054 -0.4671
 4074TIP3   OH233712   0.273   4.738   3.683  0.3047  0.0621 -0.1657
 4074TIP3    H133713   0.278   4.687   3.764 -2.9382  0.1096  0.2126
 4074TIP3    H233714   0.258   4.673   3.615  0.4996  0.2050 -0.3464
 4075TIP3   OH233715   4.399   4.272  12.790 -0.3567 -0.5810 -0.1859
 4075TIP3    H133716   4.465   4.225  12.738  1.0872 -0.5158  1.4805
 4075TIP3    H233717   4.437   4.278  12.877 -1.0936  2.4218  0.0652
 4076TIP3   OH233718   1.243   1.623   5.282  0.3737  0.5117 -0.2555
 4076TIP3    H133719   1.184   1.555   5.313 -1.7571  2.1495 -0.4682
 4076TIP3    H233720   1.299   1.644   5.357 -1.1072  0.7203  0.8189
 4077TIP3   OH233721   0.915   4.846  15.664  0.5059  0.0324  0.3207
 4077TIP3    H133722   1.009   4.853  15.646  0.5790 -0.8403  0.3164
 4077TIP3    H233723   0.910   4.808  15.751  0.1456  0.7045  0.6041
 4078TIP3   OH233724   2.995   3.762  11.451 -0.1999 -0.1401  0.2899
 4078TIP3    H133725   3.064   3.828  11.453 -1.3966  1.3083 -1.7247
 4078TIP3    H233726   2.984   3.736  11.543  0.4336  2.3825  1.1731
 4079TIP3   OH233727   5.611   6.516  12.135 -0.1670  0.1071 -0.0339
 4079TIP3    H133728   5.705   6.529  12.150 -0.3625  1.1767  0.2977
 4079TIP3    H233729   5.573   6.603  12.141 -1.3074 -0.4141  0.6553
 4080TIP3   OH233730   3.785   4.857  15.389  0.0088  0.3109 -0.5069
 4080TIP3    H133731   3.794   4.830  15.480 -1.7679  1.2398 -0.0017
 4080TIP3    H233732   3.796   4.952  15.390 -0.3665  0.3735 -1.1896
 4081TIP3   OH233733   3.848   1.016  13.749 -0.1376  0.1583 -0.2337
 4081TIP3    H133734   3.891   0.998  13.833  1.8379 -1.7382 -1.5742
 4081TIP3    H233735   3.871   0.942  13.693 -2.6565  0.6064 -2.0400
 4082TIP3   OH233736   6.596   4.651   0.542  0.0554  0.0390 -0.2372
 4082TIP3    H133737   6.677   4.602   0.557 -0.9096 -1.3461  0.6274
 4082TIP3    H233738   6.542   4.632   0.618 -1.6862 -0.2780 -1.5071
 4083TIP3   OH233739   1.415   2.705   4.507 -0.5874 -0.0993  0.0725
 4083TIP3    H133740   1.442   2.641   4.441  2.8324  1.1743  0.0169
 4083TIP3    H233741   1.440   2.667   4.591  0.6218  0.7030  0.1059
 4084TIP3   OH233742   1.312   0.810  13.457 -0.5547 -0.5628  0.2743
 4084TIP3    H133743   1.278   0.729  13.418 -1.2754  0.0876 -0.4904
 4084TIP3    H233744   1.290   0.878  13.393  0.1435  0.2274  0.8526
 4085TIP3   OH233745   0.642   3.722   2.217  0.2470  0.0127 -0.0214
 4085TIP3    H133746   0.549   3.745   2.221  0.4840  0.8298  1.5470
 4085TIP3    H233747   0.685   3.790   2.269  1.4163 -1.9699  1.7040
 4086TIP3   OH233748   3.581   4.410  12.359  0.2333 -0.6801  0.2786
 4086TIP3    H133749   3.534   4.473  12.415  0.2551 -0.6975  0.3153
 4086TIP3    H233750   3.666   4.451  12.343  0.0110 -0.4083 -0.2197
 4087TIP3   OH233751   4.692   0.283   1.148  0.2595 -0.0802 -0.1309
 4087TIP3    H133752   4.783   0.257   1.166  0.7076  1.9045  0.7006
 4087TIP3    H233753   4.667   0.337   1.223 -2.2617 -1.9580  0.5562
 4088TIP3   OH233754   6.077   0.193  13.803 -0.0763 -0.2582  0.2715
 4088TIP3    H133755   6.167   0.177  13.776 -1.2864 -1.0186 -3.9834
 4088TIP3    H233756   6.046   0.108  13.834  0.2270 -0.3288  0.3895
 4089TIP3   OH233757   2.711   4.402   4.503 -0.2082  0.2339 -0.5356
 4089TIP3    H133758   2.802   4.411   4.473 -0.1817  0.7602 -0.3104
 4089TIP3    H233759   2.675   4.490   4.496 -0.7534 -0.0064 -0.7790
 4090TIP3   OH233760   0.462   6.697   2.946 -0.0121 -0.3805  0.1643
 4090TIP3    H133761   0.418   6.650   2.875  1.2579 -0.3491 -0.6861
 4090TIP3    H233762   0.553   6.667   2.941 -0.0275 -0.9385  2.2678
 4091TIP3   OH233763   1.025   1.032  15.378  0.7021  0.1070  0.7497
 4091TIP3    H133764   1.024   0.947  15.422 -0.3901 -0.6300 -0.6191
 4091TIP3    H233765   0.939   1.070  15.396 -0.3457 -0.8290 -1.7652
 4092TIP3   OH233766   5.588   6.121   4.489  0.0704  0.1739 -0.5677
 4092TIP3    H133767   5.574   6.041   4.539 -0.3055  1.1226  0.9270
 4092TIP3    H233768   5.681   6.142   4.503 -0.1911  0.8128  0.3962
 4093TIP3   OH233769   0.842   5.623  13.769 -0.2089  0.1163  0.5236
 4093TIP3    H133770   0.760   5.575  13.756  0.0337 -0.0350 -0.5429
 4093TIP3    H233771   0.885   5.621  13.683  1.1334 -0.1952  1.1802
 4094TIP3   OH233772   1.366   4.842   3.868 -0.1465  0.0335 -0.3475
 4094TIP3    H133773   1.416   4.825   3.788  0.1735  1.7930 -0.5546
 4094TIP3    H233774   1.428   4.823   3.939  0.6163  1.4823 -0.5927
 4095TIP3   OH233775   0.881   5.855   3.840  0.0450 -0.4621  0.1194
 4095TIP3    H133776   0.809   5.792   3.851  1.6681 -2.4670 -0.1453
 4095TIP3    H233777   0.869   5.888   3.750 -2.9016  2.5118  1.3785
 4096TIP3   OH233778   2.876   6.490  15.082 -0.6912 -0.0180 -0.3345
 4096TIP3    H133779   2.809   6.546  15.042 -0.7341  0.5774  0.5324
 4096TIP3    H233780   2.946   6.550  15.105  0.0911 -0.6226 -1.1110
 4097TIP3   OH233781   3.123   2.127   0.118 -0.0967  0.4082  0.8629
 4097TIP3    H133782   3.208   2.084   0.133  0.2622  1.2978  1.5121
 4097TIP3    H233783   3.060   2.072   0.165 -0.0957 -0.9244 -0.6038
 4098TIP3   OH233784   5.690   4.506   3.739 -0.3085 -0.1976 -0.4390
 4098TIP3    H133785   5.609   4.468   3.773  0.0234  0.3533  1.0267
 4098TIP3    H233786   5.758   4.477   3.799  0.2022  1.3551 -0.2094
 4099TIP3   OH233787   4.020   1.591   4.013 -0.0738  0.2554 -0.8653
 4099TIP3    H133788   3.988   1.605   3.924 -0.1337 -2.1949 -1.2991
 4099TIP3    H233789   3.968   1.517   4.045  0.9665  0.1580  0.6728
 4100TIP3   OH233790   0.044   0.270   2.305  0.5905 -0.1616 -0.0643
 4100TIP3    H133791   0.090   0.264   2.389 -0.5592 -0.0809  0.5780
 4100TIP3    H233792   0.030   0.364   2.291  0.2559 -0.2116 -0.0635
 4101TIP3   OH233793   4.085   2.420   5.618  0.0615 -0.0829 -0.5251
 4101TIP3    H133794   4.078   2.340   5.671 -1.9987 -0.8091 -1.7810
 4101TIP3    H233795   4.016   2.477   5.651 -0.2562  0.0585 -1.4159
 4102TIP3   OH233796   2.834   2.914  11.906 -0.1499 -0.4745 -0.2831
 4102TIP3    H133797   2.886   2.980  11.861  0.2326 -0.6945 -0.1733
 4102TIP3    H233798   2.758   2.961  11.939  0.4728  0.0690  0.4306
 4103TIP3   OH233799   1.362   2.768   3.225 -0.5901  0.6931  0.2625
 4103TIP3    H133800   1.288   2.748   3.282 -0.0506 -1.2566  0.3383
 4103TIP3    H233801   1.427   2.701   3.246  1.1063  2.1630 -0.0009
 4104TIP3   OH233802   4.083   0.936  15.753  0.3054 -0.0769  0.4947
 4104TIP3    H133803   4.029   0.961  15.828  0.0840  0.0337  0.3026
 4104TIP3    H233804   4.102   0.843  15.766 -0.4313 -0.2695  0.2653
 4105TIP3   OH233805   2.252   0.103  10.561 -0.2108  0.5359 -0.3808
 4105TIP3    H133806   2.282   0.041  10.495 -0.1891  0.0807  0.0528
 4105TIP3    H233807   2.157   0.105  10.550 -0.1967  0.5491 -0.5012
 4106TIP3   OH233808   3.485   5.933   1.595  0.1936 -0.1562  0.3083
 4106TIP3    H133809   3.540   5.970   1.664 -0.2690  1.6409 -0.2315
 4106TIP3    H233810   3.520   5.970   1.514  2.0731 -3.8376 -0.7706
 4107TIP3   OH233811   0.878   0.581   3.188  0.0909  0.1939 -0.7986
 4107TIP3    H133812   0.930   0.595   3.267 -0.1061 -0.8845 -0.4552
 4107TIP3    H233813   0.847   0.491   3.196  1.1080 -0.3795 -2.7093
 4108TIP3   OH233814   0.295   3.666   3.452 -0.5138  0.9916  0.0718
 4108TIP3    H133815   0.354   3.722   3.503 -2.3286  1.9376  1.2584
 4108TIP3    H233816   0.295   3.706   3.364  2.6504 -0.6627 -0.8130
 4109TIP3   OH233817   1.935   5.707   3.254 -0.6048 -0.0525  0.3100
 4109TIP3    H133818   2.009   5.711   3.314 -0.1865 -1.8043 -0.0187
 4109TIP3    H233819   1.874   5.646   3.295 -0.7657 -0.4922 -0.5619
 4110TIP3   OH233820   1.993   5.562  17.253 -0.1552  0.5045  0.2566
 4110TIP3    H133821   1.963   5.520  17.173 -1.2818  0.3728  0.7194
 4110TIP3    H233822   1.955   5.650  17.250 -0.0391  0.5686  0.5510
 4111TIP3   OH233823   1.079   0.350  16.832  0.0003 -0.4135 -0.3996
 4111TIP3    H133824   1.021   0.305  16.894 -0.5438 -1.3376 -1.5404
 4111TIP3    H233825   1.116   0.280  16.778 -0.3014  0.4366 -1.7555
 4112TIP3   OH233826   2.203   4.487   2.414  1.1203  0.0290 -0.3912
 4112TIP3    H133827   2.134   4.440   2.367  1.2202  1.9117 -2.6123
 4112TIP3    H233828   2.258   4.418   2.452 -0.6240 -1.5421 -0.5553
 4113TIP3   OH233829   1.060   5.804   5.064 -0.4953  0.3787 -0.2791
 4113TIP3    H133830   1.001   5.873   5.094  0.2768  1.2230 -0.6514
 4113TIP3    H233831   1.003   5.728   5.050 -1.4352  1.0679 -0.2928
 4114TIP3   OH233832   1.290   5.310   0.574  0.3417 -0.4758  0.0183
 4114TIP3    H133833   1.202   5.329   0.542  0.7557 -0.6465 -1.3088
 4114TIP3    H233834   1.283   5.315   0.669 -1.0220 -0.1723 -0.0757
 4115TIP3   OH233835   5.307   6.033   0.002  0.7069  0.3919  0.0009
 4115TIP3    H133836   5.222   6.077  -0.005 -2.0190 -4.3032 -0.8698
 4115TIP3    H233837   5.335   6.021  -0.089  0.3681 -1.2559  0.0934
 4116TIP3   OH233838   0.347   3.916  15.795 -0.2056 -0.2858  0.2570
 4116TIP3    H133839   0.388   3.988  15.745 -1.1316  0.8525  1.0877
 4116TIP3    H233840   0.306   3.861  15.728 -0.2127  0.4296 -0.3433
 4117TIP3   OH233841   4.322   4.992  11.939 -0.3669 -0.2655  0.3088
 4117TIP3    H133842   4.347   4.906  11.973  0.1064  0.6470  2.4183
 4117TIP3    H233843   4.395   5.049  11.964 -1.1233  0.9442 -0.1921
 4118TIP3   OH233844   6.093   0.389   3.853 -0.1078 -0.1633  0.1324
 4118TIP3    H133845   6.035   0.393   3.929 -1.1219 -0.0363 -0.6338
 4118TIP3    H233846   6.121   0.480   3.841 -0.6007 -0.0448 -0.1374
 4119TIP3   OH233847   4.077   5.536  16.868 -0.0710 -0.6051 -0.9077
 4119TIP3    H133848   4.066   5.563  16.777 -0.3296 -0.1053 -0.7379
 4119TIP3    H233849   4.016   5.463  16.879 -0.2013 -0.5242 -1.0777
 4120TIP3   OH233850   2.109   3.708   2.453  0.4387  0.4510 -0.5198
 4120TIP3    H133851   2.191   3.745   2.485 -0.1860  1.4470 -0.0392
 4120TIP3    H233852   2.119   3.706   2.358  0.4152  2.0661 -0.5761
 4121TIP3   OH233853   4.617   3.755   3.068  0.4373 -0.1217  0.1500
 4121TIP3    H133854   4.622   3.745   2.973  0.7386 -1.2969  0.2673
 4121TIP3    H233855   4.603   3.666   3.101 -2.1617  0.5565  1.0836
 4122TIP3   OH233856   2.953   0.735  16.628 -0.0902  0.4181 -0.1611
 4122TIP3    H133857   2.860   0.750  16.643 -0.5599 -1.3835 -0.9322
 4122TIP3    H233858   2.984   0.815  16.586 -1.4948  0.7358 -0.6466
 4123TIP3   OH233859   4.228   1.814   3.320 -0.5220  0.5524 -0.1309
 4123TIP3    H133860   4.261   1.844   3.405  0.6388  1.2280 -0.8027
 4123TIP3    H233861   4.144   1.859   3.310  0.0654  1.6929 -0.0374
 4124TIP3   OH233862   0.322   6.639   2.731  0.6950 -0.4291 -0.2569
 4124TIP3    H133863   0.320   6.733   2.714 -0.2332 -0.3783  0.0751
 4124TIP3    H233864   0.304   6.599   2.647 -0.6892 -0.2544 -0.0651
 4125TIP3   OH233865   0.433   2.504  14.588  0.0380 -0.2446  0.4252
 4125TIP3    H133866   0.411   2.568  14.655  0.4048 -1.2591  1.5385
 4125TIP3    H233867   0.443   2.422  14.635  1.0677 -0.8362 -0.7656
 4126TIP3   OH233868   5.949   6.462   4.523  0.1405 -0.4151  0.0071
 4126TIP3    H133869   6.033   6.486   4.486 -0.1018 -0.5488 -0.6338
 4126TIP3    H233870   5.913   6.544   4.557  1.4178 -0.6613  2.1546
 4127TIP3   OH233871   6.021   5.643   6.134 -0.7420 -0.1001 -0.2834
 4127TIP3    H133872   6.038   5.626   6.227  0.5892  0.6764 -0.3606
 4127TIP3    H233873   5.958   5.575   6.109 -0.3811 -0.9290  0.9487
 4128TIP3   OH233874   4.112   5.221   3.574 -0.2302 -0.3048 -0.1930
 4128TIP3    H133875   4.054   5.257   3.641 -1.5261 -1.5894 -0.5902
 4128TIP3    H233876   4.078   5.133   3.557  3.4406 -2.3064  1.5738
 4129TIP3   OH233877   3.220   0.966  12.528 -0.5086  0.4034 -0.0509
 4129TIP3    H133878   3.170   0.913  12.590  1.1054 -1.9211 -0.6057
 4129TIP3    H233879   3.255   1.038  12.580 -0.2996 -0.7493  1.4665
 4130TIP3   OH233880   5.284   6.405   0.816 -0.2683  0.5350 -0.1899
 4130TIP3    H133881   5.340   6.435   0.744  1.7545 -2.1693  0.0712
 4130TIP3    H233882   5.341   6.347   0.867 -2.8704 -1.0846  1.0847
 4131TIP3   OH233883   2.658   4.380   5.031  0.5791 -0.5512  0.3802
 4131TIP3    H133884   2.738   4.388   4.979 -0.3003  2.3786 -0.7286
 4131TIP3    H233885   2.589   4.364   4.968 -0.4731  2.8499  0.4309
 4132TIP3   OH233886   0.854   4.238  11.264 -0.0203 -0.7028 -0.3842
 4132TIP3    H133887   0.782   4.223  11.325  2.6486 -0.3014  3.2762
 4132TIP3    H233888   0.860   4.334  11.257 -1.2769 -0.7134 -2.8063
 4133TIP3   OH233889   4.591   1.288   4.416  0.1065 -0.7086 -0.2503
 4133TIP3    H133890   4.587   1.221   4.347 -2.3846 -0.6530 -0.2553
 4133TIP3    H233891   4.605   1.370   4.369 -1.0915 -0.7321 -0.6936
 4134TIP3   OH233892   2.263   5.323   5.238  0.6357 -0.6045  0.1330
 4134TIP3    H133893   2.260   5.351   5.330  1.2918  0.3037 -0.1012
 4134TIP3    H233894   2.287   5.403   5.190 -1.5701 -0.5595 -1.0522
 4135TIP3   OH233895   6.534   3.368  14.031  0.6890  0.0268  0.4093
 4135TIP3    H133896   6.533   3.451  13.984 -1.2542 -0.5947 -0.7388
 4135TIP3    H233897   6.622   3.333  14.016  1.1165  1.2768 -0.1336
 4136TIP3   OH233898   4.448   2.897   3.983  0.6138  0.8240 -0.0096
 4136TIP3    H133899   4.400   2.975   4.010  0.1917  0.2829  0.8655
 4136TIP3    H233900   4.539   2.918   4.001  0.7837  1.9864 -1.9951
 4137TIP3   OH233901   1.970   0.437  13.745  0.0907 -0.0097  0.3095
 4137TIP3    H133902   1.946   0.448  13.653  0.5649 -0.5723  0.1081
 4137TIP3    H233903   2.057   0.476  13.752 -0.1992  0.5832  0.6636
 4138TIP3   OH233904   2.201   0.470   0.379 -0.0576 -0.1507 -0.5595
 4138TIP3    H133905   2.108   0.478   0.401 -0.4092 -0.9627 -1.6684
 4138TIP3    H233906   2.244   0.453   0.462 -0.8309  0.7026  0.0390
 4139TIP3   OH233907   3.384   1.438  16.336 -0.1176 -0.3270 -0.4606
 4139TIP3    H133908   3.334   1.513  16.368  1.0132  0.3964 -0.3537
 4139TIP3    H233909   3.342   1.416  16.253 -0.8438  0.0234 -0.1997
 4140TIP3   OH233910   3.528   0.279  12.213 -0.1881 -0.2766  0.2935
 4140TIP3    H133911   3.548   0.323  12.130  1.0066 -0.9329  0.2100
 4140TIP3    H233912   3.612   0.277  12.260 -0.8871  0.2953  1.6352
 4141TIP3   OH233913   6.537   1.308  15.184 -0.8517 -0.0879  0.0467
 4141TIP3    H133914   6.567   1.229  15.229 -0.3307  0.3171  0.4309
 4141TIP3    H233915   6.488   1.356  15.250 -0.3830  0.3460  0.0813
 4142TIP3   OH233916   1.208   4.400   4.790 -0.2603  0.2054 -0.6376
 4142TIP3    H133917   1.125   4.394   4.837  0.5546 -2.7138  0.6160
 4142TIP3    H233918   1.275   4.396   4.858  0.9386 -1.1007 -1.8331
 4143TIP3   OH233919   5.719   4.094  16.199 -0.0215 -0.1455 -0.0396
 4143TIP3    H133920   5.648   4.158  16.202 -0.8705 -1.1016  2.3971
 4143TIP3    H233921   5.681   4.018  16.155 -0.6131 -0.7251  1.4266
 4144TIP3   OH233922   5.671   1.793   1.315  0.7480 -0.3934 -0.5079
 4144TIP3    H133923   5.583   1.773   1.281 -0.3573  0.8630  1.4042
 4144TIP3    H233924   5.671   1.757   1.404  1.1891  1.8199  0.4630
 4145TIP3   OH233925   0.422   2.334  11.154  0.3040  0.4751  0.3981
 4145TIP3    H133926   0.335   2.299  11.173 -0.2188  0.6302 -1.5132
 4145TIP3    H233927   0.480   2.259  11.164 -0.3446 -0.1480 -0.3373
 4146TIP3   OH233928   3.246   4.212   2.003  0.5946  0.4222 -0.0842
 4146TIP3    H133929   3.236   4.145   2.071 -1.5135  1.4548  0.7067
 4146TIP3    H233930   3.341   4.218   1.990  0.9172 -1.7814  0.7212
 4147TIP3   OH233931   4.553   2.676  16.633  0.0175  0.5860 -0.4596
 4147TIP3    H133932   4.501   2.727  16.695 -0.8643  0.9498 -1.4643
 4147TIP3    H233933   4.494   2.662  16.558  0.2962 -1.6824 -0.3392
 4148TIP3   OH233934   4.231   3.476  16.284 -0.1657 -0.1621 -0.0841
 4148TIP3    H133935   4.276   3.427  16.215  0.5064  0.5141 -0.1322
 4148TIP3    H233936   4.251   3.426  16.364  0.2275 -0.1671 -0.1802
 4149TIP3   OH233937   3.542   5.316   5.319 -0.2987  0.1546 -0.2050
 4149TIP3    H133938   3.605   5.342   5.386 -0.6958 -0.2538  0.3384
 4149TIP3    H233939   3.569   5.364   5.240 -1.0478  2.2831  0.7509
 4150TIP3   OH233940   1.049   5.852   2.492 -0.0136  0.2663  0.5568
 4150TIP3    H133941   1.051   5.780   2.429  0.4296 -0.9329  1.8945
 4150TIP3    H233942   0.976   5.832   2.550 -0.3207  1.2721  0.5483
 4151TIP3   OH233943   3.791   2.283  12.552  0.7766  0.3703 -0.2132
 4151TIP3    H133944   3.862   2.272  12.489  1.7537  1.3900  0.6826
 4151TIP3    H233945   3.830   2.264  12.637 -0.0947  0.6386  0.2646
 4152TIP3   OH233946   4.195   0.610  15.461 -0.3649  0.5176  0.1242
 4152TIP3    H133947   4.167   0.562  15.383  0.2406 -2.1079  1.4054
 4152TIP3    H233948   4.114   0.647  15.497 -1.3306 -1.7478  0.4352
 4153TIP3   OH233949   0.920   5.145   1.096 -0.8404  0.1838 -0.4393
 4153TIP3    H133950   0.836   5.105   1.116  0.1898 -1.0353  1.8267
 4153TIP3    H233951   0.945   5.108   1.012 -2.2021  0.0012 -0.7829
 4154TIP3   OH233952   5.122   4.389  11.665  0.7997  0.9764 -0.4656
 4154TIP3    H133953   5.156   4.393  11.576 -1.0724 -1.8990 -1.4424
 4154TIP3    H233954   5.155   4.306  11.699 -1.0429  0.5094  0.3251
 4155TIP3   OH233955   5.861   1.060  11.418 -0.1144 -0.5517  0.8444
 4155TIP3    H133956   5.953   1.054  11.444  0.0596 -1.2619  0.0883
 4155TIP3    H233957   5.829   1.137  11.465  1.4649  1.1728 -0.7245
 4156TIP3   OH233958   1.501   2.981  17.289  0.1850 -0.0261 -0.2411
 4156TIP3    H133959   1.445   2.903  17.293  0.4607 -0.2936 -1.2979
 4156TIP3    H233960   1.440   3.054  17.279 -0.0050 -0.2617 -0.8255
 4157TIP3   OH233961   1.885   4.724   4.791 -0.4657 -0.3153  0.8430
 4157TIP3    H133962   1.806   4.696   4.836 -0.3741  1.3709  2.1440
 4157TIP3    H233963   1.956   4.702   4.852 -0.2475  1.0959  1.1232
 4158TIP3   OH233964   0.275   4.580   1.709 -0.3346 -0.4755 -0.6438
 4158TIP3    H133965   0.189   4.621   1.717 -0.2995 -0.1729 -1.7107
 4158TIP3    H233966   0.267   4.497   1.756 -1.3500 -0.6639 -1.1252
 4159TIP3   OH233967   6.674   2.408  11.769 -0.7667 -0.1951  0.4218
 4159TIP3    H133968   6.751   2.461  11.745 -1.2746 -0.3260 -1.6314
 4159TIP3    H233969   6.622   2.467  11.824 -0.4451  0.8334 -0.3309
 4160TIP3   OH233970   0.475   6.509  13.143 -0.1982 -0.4769  0.0980
 4160TIP3    H133971   0.411   6.538  13.078  1.5074  0.5132 -1.2245
 4160TIP3    H233972   0.440   6.427  13.177 -2.8438  0.6943  0.4688
 4161TIP3   OH233973   1.693   2.164   5.564  0.1960  0.2315  0.9988
 4161TIP3    H133974   1.641   2.129   5.637 -2.6725 -0.2260 -1.0803
 4161TIP3    H233975   1.700   2.258   5.583 -3.6234  0.8104  0.2758
 4162TIP3   OH233976   4.506   2.227  12.638  0.3823 -0.4605 -0.1831
 4162TIP3    H133977   4.581   2.253  12.691  0.9272 -2.2877  0.0391
 4162TIP3    H233978   4.544   2.191  12.558 -0.2927 -0.6511 -0.4257
 4163TIP3   OH233979   3.198   1.007   3.484 -0.7126 -0.2598  0.4618
 4163TIP3    H133980   3.126   0.957   3.523 -1.5905  0.5274 -0.1041
 4163TIP3    H233981   3.270   0.945   3.477 -1.3612 -1.0857  0.9614
 4164TIP3   OH233982   1.520   2.102   0.196 -0.5745 -0.2095  0.4490
 4164TIP3    H133983   1.578   2.141   0.261  1.1610  0.1498 -1.2402
 4164TIP3    H233984   1.449   2.166   0.187  0.0774  0.5700  0.7113
 4165TIP3   OH233985   4.046   0.668   1.643 -0.5247 -0.0177 -0.4896
 4165TIP3    H133986   3.991   0.594   1.616 -0.7922  1.1316 -3.4537
 4165TIP3    H233987   4.030   0.735   1.576  1.9129  1.6419  0.4662
 4166TIP3   OH233988   0.411   1.018   5.082  0.0972  0.3229 -0.5536
 4166TIP3    H133989   0.321   1.005   5.054  0.4191 -2.1018 -0.6534
 4166TIP3    H233990   0.462   1.020   5.001  0.1030  2.4435 -0.5459
 4167TIP3   OH233991   3.679   2.170  12.136  0.0973 -0.2194 -0.7120
 4167TIP3    H133992   3.728   2.103  12.184  1.9748  0.8349 -1.0475
 4167TIP3    H233993   3.666   2.240  12.199 -1.7995 -0.7966 -0.3847
 4168TIP3   OH233994   0.875   4.034  14.846  0.1156 -0.4819 -0.7274
 4168TIP3    H133995   0.796   4.075  14.812  0.6565  0.8386 -0.4853
 4168TIP3    H233996   0.937   4.036  14.773  0.2394 -0.6100 -0.6271
 4169TIP3   OH233997   5.372   3.437  13.510 -0.1532  0.2706 -0.1455
 4169TIP3    H133998   5.460   3.400  13.515 -0.6642 -1.2268 -1.3331
 4169TIP3    H233999   5.325   3.397  13.583 -0.3697 -0.5170 -0.7009
 4170TIP3   OH234000   4.861   3.468   0.494 -0.1768 -0.0091 -0.3567
 4170TIP3    H134001   4.927   3.407   0.463 -0.7571 -1.1022  0.4652
 4170TIP3    H234002   4.797   3.473   0.423  1.2949  1.9379 -1.6306
 4171TIP3   OH234003   5.851   5.616  12.722  0.1613  0.3253  0.1726
 4171TIP3    H134004   5.913   5.585  12.656  0.4080 -2.0062  1.3953
 4171TIP3    H234005   5.774   5.559  12.711 -1.2174  2.2053 -0.3537
 4172TIP3   OH234006   2.606   3.562  11.016 -0.8451  0.1080  0.0285
 4172TIP3    H134007   2.593   3.622  11.090 -1.0198  2.8846 -2.0990
 4172TIP3    H234008   2.548   3.594  10.948  0.5069 -1.3060 -1.9139
 4173TIP3   OH234009   4.962   5.775  13.019 -0.1697 -0.5094  0.3632
 4173TIP3    H134010   4.960   5.870  13.006 -0.3831 -0.4995  0.4756
 4173TIP3    H234011   4.911   5.739  12.946  0.7193 -0.5958 -0.2297
 4174TIP3   OH234012   1.684   6.148   0.146  0.0290 -0.3653  0.9180
 4174TIP3    H134013   1.601   6.195   0.138  0.1118 -0.2218  0.8978
 4174TIP3    H234014   1.707   6.156   0.238  1.5657  2.2701  0.4362
 4175TIP3   OH234015   0.263   1.875  13.475  0.1242 -0.2777 -0.0288
 4175TIP3    H134016   0.245   1.832  13.391  2.0081  1.2785 -1.3487
 4175TIP3    H234017   0.223   1.962  13.467  3.1806  1.2182 -0.8919
 4176TIP3   OH234018   6.238   3.478  13.586  0.3645 -0.4714  0.1833
 4176TIP3    H134019   6.189   3.523  13.655  0.2654  1.4264 -1.0596
 4176TIP3    H234020   6.302   3.543  13.556  1.2127 -1.6724 -0.7151
 4177TIP3   OH234021   1.994   5.674  12.565 -0.4435 -0.3334  0.8743
 4177TIP3    H134022   2.057   5.734  12.523 -1.2431 -0.0209  0.0739
 4177TIP3    H234023   1.939   5.731  12.618 -0.8375 -0.4250  0.5729
 4178TIP3   OH234024   5.277   2.768  11.626  0.0330  0.1493  0.2239
 4178TIP3    H134025   5.218   2.826  11.674 -1.2144  0.1301 -1.2314
 4178TIP3    H234026   5.310   2.821  11.554  2.0074  0.2229  1.1177
 4179TIP3   OH234027   1.066   3.971  16.682  0.1443  0.0414 -0.3945
 4179TIP3    H134028   1.105   3.947  16.598 -1.4613 -0.2047 -1.1012
 4179TIP3    H234029   1.132   4.027  16.724  1.0832 -0.0555 -1.6847
 4180TIP3   OH234030   3.949   0.995   5.150 -0.0724  0.0040  0.1287
 4180TIP3    H134031   3.861   1.034   5.154  0.2975  0.8708  0.0099
 4180TIP3    H234032   3.969   0.973   5.241  0.0258  0.8166  0.3127
 4181TIP3   OH234033   2.632   4.928   1.732 -0.1530  0.3573  0.1397
 4181TIP3    H134034   2.547   4.895   1.758  0.2262 -0.8817 -0.1303
 4181TIP3    H234035   2.693   4.858   1.753  0.8313  1.2759  0.4653
 4182TIP3   OH234036   4.257   0.306   4.445 -0.2126 -0.1723 -0.0555
 4182TIP3    H134037   4.256   0.332   4.537  0.4298 -0.2642 -0.0156
 4182TIP3    H234038   4.338   0.254   4.436  1.3115  2.2546 -1.3174
 4183TIP3   OH234039   5.784   0.319   2.708 -0.5038  0.2282 -0.5613
 4183TIP3    H134040   5.801   0.413   2.716  0.3524 -0.0214  0.8399
 4183TIP3    H234041   5.694   0.308   2.739 -1.4385  0.8324 -2.8180
 4184TIP3   OH234042   1.803   0.926   1.934 -0.6104  0.4955 -0.0646
 4184TIP3    H134043   1.795   0.846   1.882 -0.1158  1.7764 -2.2153
 4184TIP3    H234044   1.733   0.919   1.999 -0.6863 -1.5866 -0.3057
 4185TIP3   OH234045   3.761   3.730   1.543  0.3500 -0.2405 -0.0109
 4185TIP3    H134046   3.709   3.666   1.494  0.2690 -1.9723  2.1638
 4185TIP3    H234047   3.712   3.812   1.537 -1.9351 -1.4649  0.7874
 4186TIP3   OH234048   0.013   5.183   1.328  0.1068 -0.1087  0.5758
 4186TIP3    H134049   0.040   5.132   1.405 -1.4304  0.0100  1.2204
 4186TIP3    H234050  -0.070   5.223   1.354  0.8070  2.0151 -0.2301
 4187TIP3   OH234051   0.921   0.729  16.942  0.2440  0.4724 -0.1554
 4187TIP3    H134052   0.864   0.668  16.896  1.5548  0.9056 -2.4998
 4187TIP3    H234053   0.996   0.676  16.970  0.8804  0.7326 -1.2702
 4188TIP3   OH234054   6.510   4.636   4.045 -0.4123 -0.0519  0.1649
 4188TIP3    H134055   6.455   4.625   4.123  0.3632 -0.1132  0.7068
 4188TIP3    H234056   6.521   4.548   4.011  3.0170 -0.7539  2.6030
 4189TIP3   OH234057   0.975   1.833   1.432  0.2458  0.1183 -0.1964
 4189TIP3    H134058   0.891   1.864   1.397  0.0950 -1.3130 -1.2136
 4189TIP3    H234059   1.041   1.889   1.391 -0.0534 -0.4570 -1.5304
 4190TIP3   OH234060   5.378   2.938  14.057 -0.6723  0.1496  0.0078
 4190TIP3    H134061   5.292   2.911  14.024 -0.5969 -0.1105  0.0150
 4190TIP3    H234062   5.405   3.010  14.000 -0.7309 -0.0152 -0.2305
 4191TIP3   OH234063   6.739   1.927  11.653  0.6860 -0.3249 -0.3284
 4191TIP3    H134064   6.646   1.927  11.675  0.5918 -0.7470 -0.7101
 4191TIP3    H234065   6.742   1.940  11.558  1.0093 -0.4048 -0.3313
 4192TIP3   OH234066   4.641   2.166   2.423  0.6593  0.0372 -0.8817
 4192TIP3    H134067   4.717   2.108   2.434  1.1229  0.9175  0.8549
 4192TIP3    H234068   4.568   2.106   2.408  0.8194 -1.2170  2.4551
 4193TIP3   OH234069   4.862   1.984   1.407 -0.0250 -0.1856 -0.1213
 4193TIP3    H134070   4.770   1.979   1.379  0.1346 -2.3163 -0.3775
 4193TIP3    H234071   4.909   2.010   1.328 -0.0964 -1.9299 -0.7765
 4194TIP3   OH234072   5.927   2.813   3.362  0.2282  0.0650  0.4154
 4194TIP3    H134073   5.878   2.735   3.335  1.2000 -0.8732  1.2575
 4194TIP3    H234074   5.894   2.883   3.306  0.6970 -1.3555 -1.7474
 4195TIP3   OH234075   2.779   6.186  16.549 -0.1964  0.9296 -0.1733
 4195TIP3    H134076   2.757   6.230  16.632  0.3051  0.3157  0.2913
 4195TIP3    H234077   2.702   6.201  16.494 -0.0742  2.3227 -0.0030
 4196TIP3   OH234078   2.070   5.382  12.094 -0.1308  0.0180  0.3331
 4196TIP3    H134079   1.993   5.351  12.048  0.6424 -0.6029 -0.5805
 4196TIP3    H234080   2.037   5.448  12.155 -1.4310 -0.5788  0.3014
 4197TIP3   OH234081   5.306   0.977   3.251  0.1426  0.2872  0.0100
 4197TIP3    H134082   5.268   1.008   3.169 -1.1443  1.0197  0.8484
 4197TIP3    H234083   5.301   1.053   3.310 -0.2467 -0.6131  1.1752
 4198TIP3   OH234084   6.234   4.496  12.768  0.0260  0.8044 -0.4150
 4198TIP3    H134085   6.155   4.530  12.726  0.4822  0.8369 -1.2591
 4198TIP3    H234086   6.249   4.412  12.726  0.6310  0.9494 -0.5011
 4199TIP3   OH234087   4.596   4.567   4.443 -0.5279 -0.7796 -0.6849
 4199TIP3    H134088   4.664   4.624   4.479 -0.2103 -2.1581  0.9858
 4199TIP3    H234089   4.642   4.487   4.418 -1.6644 -2.3397  1.8681
 4200TIP3   OH234090   3.747   2.512  12.173  0.3477  0.0257 -0.6433
 4200TIP3    H134091   3.838   2.513  12.205  1.3823  1.6360 -3.2578
 4200TIP3    H234092   3.698   2.558  12.241  2.2663  2.6268 -0.8316
 4201TIP3   OH234093   2.415   0.535  15.378  0.3968 -0.4602 -0.6676
 4201TIP3    H134094   2.391   0.602  15.441  1.2293  0.0995 -0.9346
 4201TIP3    H234095   2.508   0.551  15.358  0.0316 -0.2810 -2.4346
 4202TIP3   OH234096   4.629   0.808  17.189  0.3095 -0.3534  0.7128
 4202TIP3    H134097   4.561   0.752  17.151 -0.7991  1.3193  0.1074
 4202TIP3    H234098   4.645   0.771  17.275  0.5238 -2.3176 -0.1194
 4203TIP3   OH234099   0.055   5.917  15.933 -0.2772  0.3417  0.0831
 4203TIP3    H134100   0.080   5.869  15.854 -0.6812  2.1383 -1.2221
 4203TIP3    H234101   0.132   5.911  15.990  1.3097  1.5688 -1.7584
 4204TIP3   OH234102   3.056   4.901   2.454 -0.3618 -0.4145  0.2201
 4204TIP3    H134103   3.141   4.870   2.486  0.8083  1.6308 -0.7323
 4204TIP3    H234104   3.040   4.850   2.374  0.4961 -0.1147 -0.1561
 4205TIP3   OH234105   0.045   3.611   3.764  0.2094 -0.2286 -0.1906
 4205TIP3    H134106   0.052   3.621   3.669  0.7307 -1.8259 -0.3409
 4205TIP3    H234107  -0.023   3.545   3.777  0.4840 -0.3841  0.5272
 4206TIP3   OH234108   5.344   6.596  14.426  0.3576  1.0182 -0.3309
 4206TIP3    H134109   5.309   6.576  14.340 -0.1534 -2.2821  0.5116
 4206TIP3    H234110   5.430   6.636  14.409  0.1217  0.7605 -2.3359
 4207TIP3   OH234111   6.107   0.761  11.540  0.6362  0.0595  0.0926
 4207TIP3    H134112   6.091   0.853  11.560  1.0044 -0.0253  0.8189
 4207TIP3    H234113   6.108   0.718  11.625  1.2424 -0.4922 -0.1843
 4208TIP3   OH234114   0.383   3.806   2.137 -1.0553  0.1553 -0.2116
 4208TIP3    H134115   0.353   3.750   2.065  0.0498  0.3483 -0.8424
 4208TIP3    H234116   0.412   3.887   2.095  2.3911 -0.7769  0.0099
 4209TIP3   OH234117   6.160   2.314   4.297 -0.2131  0.7031 -0.1431
 4209TIP3    H134118   6.194   2.362   4.372 -1.0481  0.1062  0.6359
 4209TIP3    H234119   6.234   2.262   4.266 -0.3019 -0.3734  1.3563
 4210TIP3   OH234120   3.311   6.008   5.799 -0.4169  0.4337 -0.2818
 4210TIP3    H134121   3.395   5.997   5.845 -0.6573 -0.9888 -0.1210
 4210TIP3    H234122   3.334   6.049   5.716  0.1983  1.7761  0.5185
 4211TIP3   OH234123   6.618   6.330   1.070 -0.4314  0.0459  0.5277
 4211TIP3    H134124   6.713   6.328   1.082 -0.4399 -3.3003  1.0403
 4211TIP3    H234125   6.605   6.360   0.980  1.1622 -0.2773  0.1725
 4212TIP3   OH234126   3.119   2.916  14.990  0.5635  0.6574 -0.3035
 4212TIP3    H134127   3.192   2.857  14.974  0.1762  0.3658 -1.0068
 4212TIP3    H234128   3.111   2.967  14.909 -0.6669 -0.0247 -0.6290
 4213TIP3   OH234129   3.370   2.597   0.196 -1.2424  0.0771 -0.0177
 4213TIP3    H134130   3.298   2.544   0.230 -1.9922 -0.2601 -2.0050
 4213TIP3    H234131   3.331   2.683   0.179 -0.2562  1.0713  2.2966
 4214TIP3   OH234132   0.380   3.472   5.425  0.5603 -0.4922 -0.1318
 4214TIP3    H134133   0.425   3.426   5.495  1.1423 -1.6389 -1.2207
 4214TIP3    H234134   0.291   3.438   5.427  0.3483  0.0952  0.5745
 4215TIP3   OH234135   2.445   3.549  11.410 -0.4370 -0.1092  0.0611
 4215TIP3    H134136   2.448   3.520  11.319 -1.8790  0.6154 -0.2319
 4215TIP3    H234137   2.498   3.629  11.412  0.0876 -0.4443  0.0082
 4216TIP3   OH234138   4.426   5.747   1.810  0.1278  0.2106 -0.1293
 4216TIP3    H134139   4.379   5.664   1.814  1.4983 -0.7151 -1.9765
 4216TIP3    H234140   4.464   5.757   1.897 -0.8629 -0.5682  0.4218
 4217TIP3   OH234141   2.303   0.969  14.075  0.0814 -0.4758  0.0967
 4217TIP3    H134142   2.211   0.969  14.103  0.2013  0.7940  0.5639
 4217TIP3    H234143   2.302   1.020  13.994  0.0195 -2.5784 -1.3077
 4218TIP3   OH234144   1.444   4.476  12.952  0.3575 -0.2842 -0.4057
 4218TIP3    H134145   1.469   4.392  12.913 -0.6452 -0.7705 -0.0209
 4218TIP3    H234146   1.383   4.452  13.022 -1.4896  0.9049 -1.5656
 4219TIP3   OH234147   3.040   5.338   0.818 -0.0013 -0.5131 -0.3442
 4219TIP3    H134148   3.078   5.272   0.876 -0.7630  0.8055  1.7923
 4219TIP3    H234149   2.982   5.290   0.760  1.1896 -1.9540 -0.3993
 4220TIP3   OH234150   0.452   0.137  12.576 -0.6548  0.0228 -1.0416
 4220TIP3    H134151   0.487   0.136  12.487  0.3375  0.4522 -0.6723
 4220TIP3    H234152   0.443   0.230  12.597  1.9674  0.0687  0.3565
 4221TIP3   OH234153   0.067   1.655  11.319 -0.0558 -0.4840  0.0114
 4221TIP3    H134154   0.147   1.702  11.297  0.2136 -0.7214  0.4587
 4221TIP3    H234155   0.017   1.652  11.238  0.3170 -0.1885 -0.2284
 4222TIP3   OH234156   2.601   2.237  11.721  0.6027  0.3735 -0.5624
 4222TIP3    H134157   2.583   2.330  11.736  0.6061  0.2400  0.3005
 4222TIP3    H234158   2.581   2.223  11.628 -0.4415  0.9906 -0.4388
 4223TIP3   OH234159   6.443   3.680   3.895 -0.2794 -0.0751  0.4156
 4223TIP3    H134160   6.431   3.613   3.829 -0.9501  2.1039 -1.8330
 4223TIP3    H234161   6.363   3.678   3.947  0.3003 -1.8790  1.3081
 4224TIP3   OH234162   4.947   1.978  12.199  0.4088  0.1549  0.2193
 4224TIP3    H134163   4.896   2.059  12.209 -1.2091 -0.8716  0.6694
 4224TIP3    H234164   4.972   1.954  12.288  0.8079  0.1023  0.0952
 4225TIP3   OH234165   6.210   3.006   0.395  0.0805 -0.1163  0.7130
 4225TIP3    H134166   6.163   2.976   0.472  0.1655  1.7278  1.5365
 4225TIP3    H234167   6.142   3.023   0.330 -0.1573 -0.0895  0.9682
 4226TIP3   OH234168   4.124   4.238   2.334 -0.0084 -0.2627 -0.1240
 4226TIP3    H134169   4.214   4.208   2.326  0.1925  0.6326 -1.7577
 4226TIP3    H234170   4.131   4.332   2.347 -0.6940 -0.4355  1.8419
 4227TIP3   OH234171   1.320   5.456  12.132  0.6146  0.4902 -0.2202
 4227TIP3    H134172   1.379   5.516  12.085 -0.2630  1.6275  0.0710
 4227TIP3    H234173   1.251   5.513  12.166 -1.1800 -0.9257 -1.3391
 4228TIP3   OH234174   2.598   4.958   0.705  0.8178  0.3769 -0.3595
 4228TIP3    H134175   2.593   5.051   0.684  1.6449  0.3747 -0.5799
 4228TIP3    H234176   2.513   4.939   0.745  1.0042  1.4602  0.6312
 4229TIP3   OH234177   2.984   3.819   0.539 -0.0955  0.2165 -1.0140
 4229TIP3    H134178   2.981   3.765   0.618  3.5357 -0.4210 -1.1388
 4229TIP3    H234179   3.013   3.905   0.571  0.4638  0.2180 -1.5147
 4230TIP3   OH234180   4.722   0.593  11.078  0.0958  0.5824 -0.0038
 4230TIP3    H134181   4.780   0.663  11.051 -0.4252  0.6019 -1.1442
 4230TIP3    H234182   4.758   0.514  11.037 -0.5690  0.5707 -0.5910
 4231TIP3   OH234183   3.110   6.027  11.909  0.0771  0.2759  0.0680
 4231TIP3    H134184   3.201   6.023  11.878 -0.1148 -0.7045 -0.4202
 4231TIP3    H234185   3.063   6.071  11.838  0.0789  0.2622  0.0582
 4232TIP3   OH234186   5.155   3.499  11.291  0.3771  0.2767  0.0612
 4232TIP3    H134187   5.158   3.524  11.199 -0.1758  2.3767  0.5550
 4232TIP3    H234188   5.085   3.434  11.296 -1.7473  2.3311 -0.6179
 4233TIP3   OH234189   4.542   3.804  12.269 -0.0204  0.0296  0.5223
 4233TIP3    H134190   4.482   3.777  12.339 -1.4333  0.3941 -0.4892
 4233TIP3    H234191   4.617   3.841  12.314 -0.6340 -0.2769  1.8525
 4234TIP3   OH234192   0.922   0.736   6.230  0.0383 -0.1895  0.1513
 4234TIP3    H134193   0.920   0.691   6.315 -0.9829 -1.9334 -0.7530
 4234TIP3    H234194   0.862   0.810   6.240  1.4519  0.8408  1.5406
 4235TIP3   OH234195   6.728   1.098  14.076 -0.5350  0.4056  0.0088
 4235TIP3    H134196   6.672   1.087  14.153  0.8018 -0.0473  0.9604
 4235TIP3    H234197   6.785   1.172  14.099 -0.5756  0.7049 -0.8375
 4236TIP3   OH234198   4.845   2.375  13.731 -0.5265 -0.0432 -0.2111
 4236TIP3    H134199   4.858   2.282  13.712 -1.8649 -0.0968 -0.9740
 4236TIP3    H234200   4.750   2.386  13.735 -0.4744  0.5615  3.6979
 4237TIP3   OH234201   1.875   3.561  13.802  0.1650  0.3181 -0.1608
 4237TIP3    H134202   1.906   3.505  13.874  0.9275  0.0443 -0.7004
 4237TIP3    H234203   1.939   3.549  13.733  0.0200  1.4343 -0.4957
 4238TIP3   OH234204   1.369   0.981  13.920 -0.4694 -0.0280  0.0381
 4238TIP3    H134205   1.342   0.989  14.012  1.6146  1.0855  0.6119
 4238TIP3    H234206   1.348   0.890  13.897  0.5910 -0.9023  2.2092
 4239TIP3   OH234207   0.742   2.264   4.806  0.3403 -0.6419 -0.2837
 4239TIP3    H134208   0.738   2.360   4.800  2.2748 -0.4899  0.0765
 4239TIP3    H234209   0.652   2.237   4.824 -0.0279  1.2108  0.9397
 4240TIP3   OH234210   4.287   1.002   1.596  0.5900  0.1623 -0.0599
 4240TIP3    H134211   4.326   1.042   1.673 -1.2517 -0.8106  1.4561
 4240TIP3    H234212   4.289   1.072   1.530  2.2378  1.0030  0.8116
 4241TIP3   OH234213   2.791   5.187   0.956  0.2736 -0.1940  0.1274
 4241TIP3    H134214   2.831   5.220   1.036 -0.4616  0.2323  0.3314
 4241TIP3    H234215   2.703   5.160   0.983  1.2726 -3.8126  0.3532
 4242TIP3   OH234216   5.425   3.563  11.269 -0.1550  0.2513  0.1585
 4242TIP3    H134217   5.452   3.643  11.316  0.9509 -1.2629  2.2629
 4242TIP3    H234218   5.336   3.546  11.301  0.5295 -0.6768  1.6976
 4243TIP3   OH234219   4.037   0.178  12.502 -0.2089 -0.0175  0.2875
 4243TIP3    H134220   3.995   0.212  12.423 -0.6382  0.3962  0.6881
 4243TIP3    H234221   4.051   0.255  12.556  0.7971 -0.1962  0.2906
 4244TIP3   OH234222   6.247   1.381  12.118  0.6837 -0.0099  0.4248
 4244TIP3    H134223   6.241   1.476  12.127 -0.6267  0.0156 -0.4237
 4244TIP3    H234224   6.165   1.348  12.155  1.1811 -0.8285  0.8236
 4245TIP3   OH234225   1.478   3.888   0.875 -0.5331 -0.6359  0.1354
 4245TIP3    H134226   1.563   3.897   0.918 -0.7275 -1.9254  0.8345
 4245TIP3    H234227   1.499   3.861   0.786 -0.2019 -2.0213  0.6046
 4246TIP3   OH234228   0.514   0.140   5.213  0.6082  0.4027  0.8521
 4246TIP3    H134229   0.494   0.230   5.189  0.9024  0.1430 -0.4982
 4246TIP3    H234230   0.431   0.093   5.201  0.4802  0.4740  1.4538
 4247TIP3   OH234231   3.523   3.926   1.902 -0.1709  0.4827  0.1741
 4247TIP3    H134232   3.526   3.832   1.921  0.9737  0.6007  0.6505
 4247TIP3    H234233   3.431   3.950   1.913 -1.0918 -1.1527 -2.8232
 4248TIP3   OH234234   0.861   4.323  13.281  0.0151 -0.2268 -0.4318
 4248TIP3    H134235   0.788   4.329  13.342  0.2340  1.9184 -0.2862
 4248TIP3    H234236   0.820   4.317  13.194 -0.2929 -2.3246 -0.1802
 4249TIP3   OH234237   5.918   1.876   5.340 -0.3928  0.0211 -0.0045
 4249TIP3    H134238   5.949   1.883   5.431 -1.0450  0.6943  0.1732
 4249TIP3    H234239   5.909   1.781   5.326 -0.2369 -0.0951  0.6193
 4250TIP3   OH234240   6.187   4.485  11.269  0.1206 -0.3365 -0.4952
 4250TIP3    H134241   6.139   4.494  11.187 -0.9132  0.8083  0.1979
 4250TIP3    H234242   6.279   4.488  11.244 -0.1663 -0.8714 -1.6818
 4251TIP3   OH234243   0.757   2.050  13.090 -0.0166  0.3915  0.2383
 4251TIP3    H134244   0.715   1.990  13.029 -0.9946  2.3463 -1.1154
 4251TIP3    H234245   0.851   2.035  13.078 -0.2252 -1.3388  0.4943
 4252TIP3   OH234246   2.902   3.022   2.444  0.0947 -0.1441 -0.6474
 4252TIP3    H134247   2.896   2.950   2.381  0.3938 -0.3773 -0.4151
 4252TIP3    H234248   2.991   3.056   2.433 -0.9302  2.1245 -2.8294
 4253TIP3   OH234249   4.227   1.778  11.331 -0.1813  0.3810 -0.1740
 4253TIP3    H134250   4.268   1.816  11.253 -0.0039  0.5543  0.0041
 4253TIP3    H234251   4.164   1.715  11.296  0.2756  0.0727 -0.4400
 4254TIP3   OH234252   4.627   3.787  15.815 -0.4785  0.1982  0.2281
 4254TIP3    H134253   4.552   3.807  15.758 -1.1727 -2.0017  0.2858
 4254TIP3    H234254   4.661   3.704  15.781  2.0261  1.1794  0.1538
 4255TIP3   OH234255   5.859   4.611  13.426  0.3231  0.4721  0.2530
 4255TIP3    H134256   5.932   4.570  13.473 -0.3190  0.2952  1.1196
 4255TIP3    H234257   5.842   4.553  13.352  1.3041  0.7130 -0.1782
 4256TIP3   OH234258   3.946   3.502   6.205 -0.2532 -0.2252 -0.2574
 4256TIP3    H134259   3.984   3.538   6.125 -2.0597  1.3011 -0.5118
 4256TIP3    H234260   4.012   3.518   6.273  1.4206 -1.7839 -1.4217
 4257TIP3   OH234261   1.982   1.963  16.106 -0.8380  0.0522  0.1064
 4257TIP3    H134262   2.027   1.916  16.036 -1.4233  3.0368 -2.4875
 4257TIP3    H234263   1.890   1.936  16.097 -1.0117  0.8540 -0.7560
 4258TIP3   OH234264   4.535   5.289  16.442 -0.5958 -0.0985 -0.2623
 4258TIP3    H134265   4.504   5.358  16.384 -2.8023  0.2592  1.2177
 4258TIP3    H234266   4.627   5.311  16.459 -0.5321  1.0065 -1.8171
 4259TIP3   OH234267   2.778   4.402  16.615 -0.1271  0.4111 -0.0417
 4259TIP3    H134268   2.707   4.367  16.667  1.1601 -2.6415 -0.1425
 4259TIP3    H234269   2.748   4.393  16.524  1.1134 -3.1589 -0.2541
 4260TIP3   OH234270   4.715   5.434  11.026 -0.4347  0.2052  0.2789
 4260TIP3    H134271   4.712   5.529  11.038 -0.8028  0.2896 -0.4418
 4260TIP3    H234272   4.641   5.414  10.969  2.0021  0.0563 -3.1498
 4261TIP3   OH234273   5.148   6.270  10.810  0.1962  0.1964  0.0076
 4261TIP3    H134274   5.061   6.262  10.850  0.3015 -0.1426  0.1761
 4261TIP3    H234275   5.161   6.186  10.765 -0.4543  1.0409 -1.8386
 4262TIP3   OH234276   2.542   1.953  13.944  0.1743  0.3551  0.0386
 4262TIP3    H134277   2.589   1.936  14.026  0.4699  0.1667 -0.1652
 4262TIP3    H234278   2.516   2.045  13.949 -0.4126  0.1638  0.6458
 4263TIP3   OH234279   6.662   4.006   2.178  0.8705 -1.1598  0.4562
 4263TIP3    H134280   6.642   3.913   2.186 -1.5860 -0.5877  1.9422
 4263TIP3    H234281   6.631   4.045   2.260 -0.7489  1.3744 -1.2167
 4264TIP3   OH234282   3.072   0.845  11.213  0.1707 -0.2822 -0.0570
 4264TIP3    H134283   3.079   0.795  11.294  0.1284 -1.0321 -0.5109
 4264TIP3    H234284   3.162   0.849  11.180  0.4895  1.5189  0.8924
 4265TIP3   OH234285   0.594   0.775  16.203 -0.0995  0.9994  0.0215
 4265TIP3    H134286   0.529   0.709  16.180 -2.0190  1.9445  2.3129
 4265TIP3    H234287   0.626   0.807  16.119 -0.3955 -1.5420 -1.1694
 4266TIP3   OH234288   1.325   1.770   0.042 -0.1511  0.4344 -0.2229
 4266TIP3    H134289   1.405   1.778   0.093 -0.3358  2.2603 -0.1664
 4266TIP3    H234290   1.259   1.738   0.104  0.3234 -0.2610 -0.0709
 4267TIP3   OH234291   0.687   2.738  14.044  0.4288 -0.1225  0.3519
 4267TIP3    H134292   0.606   2.689  14.055  0.0066  0.7968  1.5834
 4267TIP3    H234293   0.691   2.758  13.950 -1.2659  0.6176  0.4035
 4268TIP3   OH234294   3.232   3.345  15.534  0.3750 -0.3975 -0.6465
 4268TIP3    H134295   3.287   3.414  15.497 -0.5062  0.0697 -1.1046
 4268TIP3    H234296   3.291   3.270  15.543  1.6091  0.6756  0.7865
 4269TIP3   OH234297   6.787   3.830  12.778 -0.0521 -0.2467  0.2884
 4269TIP3    H134298   6.786   3.926  12.774 -1.0484 -0.2011  1.2279
 4269TIP3    H234299   6.767   3.809  12.870  1.1351 -1.3490  0.3247
 4270TIP3   OH234300   0.347   1.398   1.455 -0.1663  0.3700 -0.1435
 4270TIP3    H134301   0.367   1.384   1.548 -1.2061 -2.5235 -0.2571
 4270TIP3    H234302   0.429   1.430   1.418 -0.0290  2.6604  1.9218
 4271TIP3   OH234303   2.767   5.931   0.814 -0.4146  0.6528  0.5367
 4271TIP3    H134304   2.748   5.886   0.896 -2.1506  0.5161  0.1061
 4271TIP3    H234305   2.691   5.986   0.799  1.2723  3.1525  0.6116
 4272TIP3   OH234306   4.287   1.942  14.494 -0.2022 -0.2454 -0.0959
 4272TIP3    H134307   4.238   1.965  14.415 -1.3095 -0.0435  0.6202
 4272TIP3    H234308   4.251   2.000  14.561  2.1032  1.0112  0.1575
 4273TIP3   OH234309   5.055   0.960   2.173 -0.4020  0.2010  0.2110
 4273TIP3    H134310   5.128   0.900   2.157 -0.3129 -0.0878  1.5391
 4273TIP3    H234311   4.982   0.903   2.196 -1.2391  0.4569 -1.6510
 4274TIP3   OH234312   4.938   0.983   4.853 -0.2632  0.0341 -0.2101
 4274TIP3    H134313   4.971   0.907   4.902  0.6640  1.6002  1.7123
 4274TIP3    H234314   5.012   1.042   4.847 -1.3536  1.4492 -0.3388
 4275TIP3   OH234315   0.515   4.571  11.294 -0.5774 -0.0940 -0.0336
 4275TIP3    H134316   0.519   4.572  11.198 -0.1122 -0.1108 -0.0171
 4275TIP3    H234317   0.421   4.576  11.314 -0.7834 -1.4160 -0.5109
 4276TIP3   OH234318   4.717   5.463   4.569 -0.4742 -0.3568  0.1276
 4276TIP3    H134319   4.807   5.496   4.569 -0.5243 -0.1496  1.5875
 4276TIP3    H234320   4.671   5.520   4.507  0.0940  0.4916  0.4581
 4277TIP3   OH234321   4.785   2.658   4.453 -0.2770  0.6745  0.0061
 4277TIP3    H134322   4.849   2.653   4.524  0.3110 -1.0793 -0.5942
 4277TIP3    H234323   4.732   2.579   4.463 -0.1504  0.3703 -1.5159
 4278TIP3   OH234324   5.027   2.572  13.617 -0.8212  0.7617  0.2038
 4278TIP3    H134325   4.952   2.530  13.661 -1.1365 -0.1863 -1.1833
 4278TIP3    H234326   5.040   2.521  13.538  1.3665  0.8769  0.4388
 4279TIP3   OH234327   5.073   2.095   3.869  0.4513 -0.1199  0.8176
 4279TIP3    H134328   5.069   2.007   3.907  1.8105 -1.1927 -1.3184
 4279TIP3    H234329   5.167   2.113   3.861  0.2816 -0.0240 -1.9740
 4280TIP3   OH234330   3.366   2.825  11.164 -0.1097  0.2432 -0.2677
 4280TIP3    H134331   3.289   2.841  11.218 -1.3941  1.0654 -2.2291
 4280TIP3    H234332   3.400   2.741  11.194 -3.2731 -1.4470 -0.9516
 4281TIP3   OH234333   0.197   5.529   3.863 -0.0506  0.4918  0.1523
 4281TIP3    H134334   0.274   5.581   3.842 -1.1029  2.0492 -0.0019
 4281TIP3    H234335   0.124   5.589   3.854 -1.5094 -1.3834 -1.4999
 4282TIP3   OH234336   6.643   1.204   0.090  0.0187  0.0354 -0.6328
 4282TIP3    H134337   6.662   1.111   0.077  0.4096  0.1081 -0.5882
 4282TIP3    H234338   6.548   1.208   0.102  0.1377 -0.5106  0.6458
 4283TIP3   OH234339   3.493   6.263   6.011 -0.4151  0.0577  0.3534
 4283TIP3    H134340   3.561   6.280   5.947 -1.8226  1.7039 -0.8012
 4283TIP3    H234341   3.540   6.234   6.089  1.4674 -0.2908 -0.8542
 4284TIP3   OH234342   3.703   4.733   3.468 -0.0769 -0.0631 -0.1505
 4284TIP3    H134343   3.781   4.708   3.517 -0.5531 -1.0934  0.1212
 4284TIP3    H234344   3.735   4.787   3.396  0.8310 -0.1023  0.2170
 4285TIP3   OH234345   1.914   3.272  11.654 -0.1471  0.2611 -0.3958
 4285TIP3    H134346   1.819   3.261  11.662 -0.1675  0.9932  0.5783
 4285TIP3    H234347   1.931   3.267  11.560 -1.4092  1.8919 -0.7567
 4286TIP3   OH234348   6.595   1.509  16.724  0.0829  0.5024 -0.5625
 4286TIP3    H134349   6.590   1.573  16.653  1.0996 -0.8426 -1.9089
 4286TIP3    H234350   6.652   1.440  16.690 -0.8398 -1.0495  0.8958
 4287TIP3   OH234351   5.958   2.062  15.064 -0.5410 -0.6158 -0.0736
 4287TIP3    H134352   5.940   2.056  15.158 -1.5737 -2.3306 -0.3229
 4287TIP3    H234353   5.871   2.060  15.023 -0.0456 -2.4346 -1.1311
 4288TIP3   OH234354   2.680   4.749   5.099  0.2240  0.9005  0.2605
 4288TIP3    H134355   2.741   4.685   5.135 -1.2013 -1.0883 -0.6488
 4288TIP3    H234356   2.723   4.781   5.019  0.6623  0.5415  0.3517
 4289TIP3   OH234357   0.651   3.025  17.073  0.3447 -0.1532 -0.0260
 4289TIP3    H134358   0.674   2.979  17.154  0.0350  1.3810  0.9861
 4289TIP3    H234359   0.725   3.009  17.014  2.0208  1.1084  1.6148
 4290TIP3   OH234360   2.777   6.237  14.084  0.1077  0.1186 -0.2998
 4290TIP3    H134361   2.773   6.212  13.992  1.6712 -0.6706 -0.1971
 4290TIP3    H234362   2.706   6.300  14.095 -1.7836 -1.7011 -1.4012
 4291TIP3   OH234363   3.730   2.868  14.990  0.2754  0.2442  0.1835
 4291TIP3    H134364   3.682   2.949  15.008 -1.0289 -0.0979 -1.4954
 4291TIP3    H234365   3.794   2.862  15.061  0.7840  3.0188  0.0795
 4292TIP3   OH234366   3.586   0.913  12.156 -0.2811 -0.4075  0.1228
 4292TIP3    H134367   3.598   1.007  12.143 -0.0605 -0.3847  0.4876
 4292TIP3    H234368   3.513   0.907  12.217  0.8638 -0.4140  1.5351
 4293TIP3   OH234369   2.261   5.239  13.924 -0.5255  0.3518  0.5098
 4293TIP3    H134370   2.249   5.304  13.993  1.2869 -0.2222  1.4147
 4293TIP3    H234371   2.172   5.223  13.891 -0.9549  4.0047 -0.4975
 4294TIP3   OH234372   1.431   1.896  15.468  0.7266  0.3221  0.6057
 4294TIP3    H134373   1.511   1.871  15.514  1.1632  0.0888 -0.2577
 4294TIP3    H234374   1.449   1.984  15.434  1.0360 -0.1475 -0.4957
 4295TIP3   OH234375   3.374   0.426   2.284  0.2390 -0.1732 -1.1910
 4295TIP3    H134376   3.390   0.352   2.226 -1.4399 -1.7424  0.2301
 4295TIP3    H234377   3.281   0.422   2.304  0.8534 -0.4346  2.4384
 4296TIP3   OH234378   2.302   2.557   5.409 -0.1799  0.3558  0.7807
 4296TIP3    H134379   2.215   2.520   5.395  0.3845 -1.0205  0.8129
 4296TIP3    H234380   2.344   2.555   5.323  0.0029  0.5488  0.8627
 4297TIP3   OH234381   3.900   0.958   0.878  0.4662 -1.0380 -0.2528
 4297TIP3    H134382   3.892   0.980   0.785 -0.5347 -3.4027 -0.7950
 4297TIP3    H234383   3.948   0.876   0.880  1.0460 -0.6996  1.3905
 4298TIP3   OH234384   6.269   6.629  14.346  0.7059 -0.3887 -0.3316
 4298TIP3    H134385   6.337   6.696  14.339  1.6940 -1.1964  1.0371
 4298TIP3    H234386   6.273   6.583  14.262 -1.2676  2.3338 -2.0897
 4299TIP3   OH234387   2.519   4.260   0.003  0.7492  0.1554 -0.4103
 4299TIP3    H134388   2.461   4.336   0.014  1.4708  0.5124  1.2633
 4299TIP3    H234389   2.604   4.299  -0.019  1.0868 -0.1628  0.3023
 4300TIP3   OH234390   4.715   2.491  15.736 -0.0108 -0.1176  0.2572
 4300TIP3    H134391   4.753   2.577  15.750  2.3150 -0.7723 -1.4755
 4300TIP3    H234392   4.624   2.509  15.713  0.1024  1.7539  1.0418
 4301TIP3   OH234393   5.918   0.821  15.701 -0.0908 -0.5584 -0.1192
 4301TIP3    H134394   5.837   0.799  15.747  0.0080 -1.1878 -0.2382
 4301TIP3    H234395   5.889   0.860  15.619 -0.2813 -1.3002 -0.4093
 4302TIP3   OH234396   2.227   0.972  11.839 -0.3034 -0.2449  0.3680
 4302TIP3    H134397   2.175   0.936  11.910 -1.7207 -1.9362 -1.4215
 4302TIP3    H234398   2.241   1.064  11.864 -2.7255 -0.1601  1.7276
 4303TIP3   OH234399   2.702   3.198   1.783 -0.1830  0.0119  0.6312
 4303TIP3    H134400   2.685   3.288   1.754  0.0703 -0.9084 -2.8063
 4303TIP3    H234401   2.618   3.154   1.772 -0.4188 -0.1633  2.7140
 4304TIP3   OH234402   4.726   1.313  13.215 -0.3271  0.2654 -0.0767
 4304TIP3    H134403   4.794   1.260  13.173 -0.9772  1.5267 -2.9356
 4304TIP3    H234404   4.772   1.393  13.242 -0.4792  0.8280 -1.3981
 4305TIP3   OH234405   1.039   4.108  12.713 -0.0708 -0.3574  0.3465
 4305TIP3    H134406   1.005   4.187  12.671 -0.9567 -0.5225  0.7394
 4305TIP3    H234407   0.963   4.052  12.725  0.3313 -0.7295  1.2670
 4306TIP3   OH234408   5.525   1.190  14.457 -0.1223  0.7422  0.1159
 4306TIP3    H134409   5.488   1.214  14.372 -0.6583  1.7060  0.6024
 4306TIP3    H234410   5.619   1.204  14.446 -0.2409  1.3656 -0.1648
 4307TIP3   OH234411   5.461   2.717  15.382  0.0283  0.3015 -0.1705
 4307TIP3    H134412   5.492   2.631  15.353 -1.8229 -0.1758 -0.8779
 4307TIP3    H234413   5.540   2.763  15.408  1.0965 -1.5337  0.0180
 4308TIP3   OH234414   4.288   3.490  11.509  0.1082 -0.4461 -0.1356
 4308TIP3    H134415   4.326   3.563  11.558  1.7941 -1.7673  0.6093
 4308TIP3    H234416   4.343   3.483  11.430  0.7396 -1.6430  0.3854
 4309TIP3   OH234417   0.973   6.293  17.072  0.1056 -0.1563 -0.5284
 4309TIP3    H134418   0.909   6.352  17.032  0.8602 -0.9593 -3.0818
 4309TIP3    H234419   0.923   6.215  17.095  0.1445 -0.9429 -2.8853
 4310TIP3   OH234420   2.660   6.285  16.782  0.1031 -0.1857 -0.9522
 4310TIP3    H134421   2.692   6.368  16.746  0.1106 -0.1148 -0.7840
 4310TIP3    H234422   2.724   6.262  16.850  0.1614 -0.3859 -1.0751
 4311TIP3   OH234423   5.602   2.307  15.078 -0.1428  0.1096  0.4719
 4311TIP3    H134424   5.516   2.334  15.110  0.5228  1.1950  1.4443
 4311TIP3    H234425   5.649   2.389  15.062  1.6568 -0.3921  2.6406
 4312TIP3   OH234426   5.328   1.931   0.340 -0.0732 -0.4605  0.1629
 4312TIP3    H134427   5.259   1.967   0.284 -1.4097 -2.3093  0.5111
 4312TIP3    H234428   5.282   1.903   0.419  1.5117  0.4987  1.4796
 4313TIP3   OH234429   3.884   2.335   2.557  0.0319 -0.5172 -0.3705
 4313TIP3    H134430   3.903   2.261   2.615  0.0684  1.2817  2.0441
 4313TIP3    H234431   3.967   2.382   2.550 -0.3701  0.1694 -0.5621
 4314TIP3   OH234432   5.854   5.407   2.234  0.2183  0.2388 -0.6768
 4314TIP3    H134433   5.762   5.384   2.247  0.4052 -0.8147 -1.1061
 4314TIP3    H234434   5.882   5.444   2.318 -0.6296  0.7339 -0.5989
 4315TIP3   OH234435   5.447   5.445  14.783  0.1899 -0.1432 -0.4505
 4315TIP3    H134436   5.360   5.476  14.761  0.0560  0.9223  1.3407
 4315TIP3    H234437   5.506   5.513  14.751  0.2533 -0.2268 -0.5106
 4316TIP3   OH234438   1.116   0.377  11.652  0.0531  0.1662 -0.5292
 4316TIP3    H134439   1.155   0.429  11.582  0.6410 -1.0989 -1.1708
 4316TIP3    H234440   1.185   0.316  11.678  0.9382  2.4002  3.1871
 4317TIP3   OH234441   5.740   6.383  11.324  0.2681  0.1821  0.4837
 4317TIP3    H134442   5.712   6.345  11.241  0.8424  0.2554  0.2554
 4317TIP3    H234443   5.820   6.337  11.346  0.2602  0.3461  0.8689
 4318TIP3   OH234444   4.000   2.187  15.441 -0.2539 -0.0778 -0.1412
 4318TIP3    H134445   4.028   2.157  15.355 -3.3574 -1.5100 -0.7908
 4318TIP3    H234446   3.993   2.108  15.494 -0.2602  0.5541  0.8391
 4319TIP3   OH234447   1.217   3.969   0.313 -0.0622  0.3178 -0.0101
 4319TIP3    H134448   1.147   3.912   0.283  0.1352 -0.2058  0.5115
 4319TIP3    H234449   1.297   3.928   0.279 -0.0809  1.8815 -2.1960
 4320TIP3   OH234450   4.608   6.780  16.291  0.5539 -0.1660 -0.0489
 4320TIP3    H134451   4.669   6.796  16.363  1.0159 -2.3891  0.1080
 4320TIP3    H234452   4.652   6.718  16.235 -1.3512 -1.4801 -0.1796
 4321TIP3   OH234453   6.724   5.682  12.386  0.5629  0.0782 -0.2020
 4321TIP3    H134454   6.665   5.727  12.446  1.0262  1.5093 -0.7781
 4321TIP3    H234455   6.803   5.665  12.437  0.1782 -0.6135  0.1774
 4322TIP3   OH234456   3.934   6.504  14.008  0.0942  0.2485  0.3558
 4322TIP3    H134457   3.876   6.471  13.939  2.5017  0.1465 -1.8076
 4322TIP3    H234458   3.910   6.454  14.086 -0.4913 -2.2573 -1.2993
 4323TIP3   OH234459   4.122   0.182   3.813 -0.0430 -0.1850  0.5456
 4323TIP3    H134460   4.110   0.130   3.892 -1.5690  0.2071  0.6069
 4323TIP3    H234461   4.037   0.180   3.770 -0.1652  2.2411  0.5533
 4324TIP3   OH234462   5.231   2.784  16.653 -0.1222  0.2312 -0.2415
 4324TIP3    H134463   5.261   2.845  16.586 -0.5091  1.8692  1.0270
 4324TIP3    H234464   5.138   2.806  16.665 -1.5371 -3.3771 -2.6578
 4325TIP3   OH234465   0.624   1.227  12.610  0.1957  0.4166  0.7583
 4325TIP3    H134466   0.702   1.201  12.659  2.2443 -0.7192 -2.7475
 4325TIP3    H234467   0.574   1.145  12.598 -0.5347  0.7714  1.2585
 4326TIP3   OH234468   1.484   2.228   3.300  0.1813 -0.3932  0.2078
 4326TIP3    H134469   1.526   2.310   3.277  1.1937 -0.7630  0.6923
 4326TIP3    H234470   1.495   2.221   3.395 -2.7839  0.4819  0.7344
 4327TIP3   OH234471   6.653   4.222   0.449 -0.6648 -0.5846 -0.2180
 4327TIP3    H134472   6.599   4.189   0.377 -0.2128  0.3422 -1.0037
 4327TIP3    H234473   6.591   4.256   0.513 -1.0453 -0.2027 -0.7785
 4328TIP3   OH234474   5.170   0.742   6.499  0.5535  0.0230  0.8443
 4328TIP3    H134475   5.154   0.834   6.520 -1.5897  0.2852 -1.4699
 4328TIP3    H234476   5.239   0.744   6.433 -0.7810  0.1826 -0.5941
 4329TIP3   OH234477   4.998   3.585   6.114 -0.1855  0.4915 -0.0556
 4329TIP3    H134478   4.967   3.572   6.203 -0.4292  0.4774 -0.1432
 4329TIP3    H234479   4.919   3.594   6.062 -0.0932 -0.8314 -0.4786
 4330TIP3   OH234480   3.138   2.860  13.550  0.7716  0.1557 -0.3660
 4330TIP3    H134481   3.163   2.946  13.518  1.2459  0.3805  0.5746
 4330TIP3    H234482   3.052   2.844  13.512  0.9781  0.7336 -1.1094
 4331TIP3   OH234483   2.954   1.303  14.775 -0.1043  0.1990  0.2647
 4331TIP3    H134484   3.003   1.383  14.789 -0.6011  0.5115  0.2422
 4331TIP3    H234485   2.973   1.249  14.851  1.8373 -0.5030 -0.6648
 4332TIP3   OH234486   4.495   0.502   4.766  0.2305  0.2367  0.2072
 4332TIP3    H134487   4.582   0.534   4.788 -0.5670  1.1109  2.3871
 4332TIP3    H234488   4.470   0.552   4.689  1.1607  0.9303  0.3395
 4333TIP3   OH234489   1.049   1.487  17.023  0.1634  0.2414  0.0815
 4333TIP3    H134490   1.018   1.526  16.941 -0.4135 -1.8017 -0.7485
 4333TIP3    H234491   1.121   1.429  16.996  0.3573 -0.0203  1.1139
 4334TIP3   OH234492   6.393   1.549  14.588 -0.4605  0.5721  0.4287
 4334TIP3    H134493   6.345   1.466  14.596 -0.2885  0.5082  0.8135
 4334TIP3    H234494   6.478   1.531  14.628  0.0561  0.5548 -0.6395
 4335TIP3   OH234495   2.110   4.942   3.479 -0.3617  0.0234 -0.1441
 4335TIP3    H134496   2.155   4.878   3.424  1.4921  1.5148 -0.4332
 4335TIP3    H234497   2.024   4.902   3.496 -1.3970 -0.2395 -4.6720
 4336TIP3   OH234498   1.697   2.810  15.652  0.4803  0.4859  0.5469
 4336TIP3    H134499   1.665   2.818  15.742  1.1724  2.0393  0.6967
 4336TIP3    H234500   1.776   2.757  15.660 -0.3127 -0.7195  0.6113
 4337TIP3   OH234501   1.963   1.590   6.447  0.7022 -0.2803  0.3501
 4337TIP3    H134502   2.035   1.613   6.506 -0.1061  1.1054  0.8553
 4337TIP3    H234503   1.991   1.621   6.361  0.0505  1.8719  0.8445
 4338TIP3   OH234504   4.420   3.770   0.572  0.0592  0.1208  0.5126
 4338TIP3    H134505   4.386   3.848   0.616 -1.9399 -1.4118  1.8710
 4338TIP3    H234506   4.343   3.727   0.534  1.4940  0.4663 -3.2214
 4339TIP3   OH234507   0.107   5.329   1.562 -0.2093  0.2944 -0.1736
 4339TIP3    H134508   0.123   5.280   1.481  1.4012 -1.3649  1.0597
 4339TIP3    H234509   0.179   5.392   1.566 -1.1110  1.4029 -0.7085
 4340TIP3   OH234510   4.552   0.062   4.027 -0.2055  0.1397 -0.1402
 4340TIP3    H134511   4.552   0.138   3.969  0.0394  0.0464 -0.2658
 4340TIP3    H234512   4.460   0.044   4.042 -0.2817  0.0117 -0.7115
 4341TIP3   OH234513   2.436   2.834   4.874 -0.1841 -0.1756  0.1027
 4341TIP3    H134514   2.471   2.747   4.897  0.3361 -0.3869 -1.3475
 4341TIP3    H234515   2.393   2.820   4.790 -1.4442  0.6735  0.5929
 4342TIP3   OH234516   3.552   2.520  10.646  0.0687 -0.1369 -0.1608
 4342TIP3    H134517   3.529   2.534  10.554 -0.4453  0.4739  0.0507
 4342TIP3    H234518   3.468   2.501  10.689  0.1449  0.6332  0.3592
 4343TIP3   OH234519   5.100   1.517   6.353  0.5691  0.1306  0.1904
 4343TIP3    H134520   5.132   1.606   6.339  0.9804  0.0030  0.3196
 4343TIP3    H234521   5.082   1.484   6.265  0.1182  0.4474  0.1584
 4344TIP3   OH234522   0.332   5.673   1.319 -0.4165  0.7821 -0.2927
 4344TIP3    H134523   0.409   5.640   1.273  0.3893 -0.8176  1.9963
 4344TIP3    H234524   0.261   5.614   1.295 -0.3182  0.7322 -0.4597
 4345TIP3   OH234525   2.879   2.419   2.996  0.0200  0.2252  0.5970
 4345TIP3    H134526   2.785   2.401   2.983  0.3084 -1.6428  0.8402
 4345TIP3    H234527   2.913   2.433   2.907 -0.4189  0.5909  0.4800
 4346TIP3   OH234528   3.116   5.789  15.369  0.0163  0.4039 -0.3708
 4346TIP3    H134529   3.165   5.711  15.345 -0.0573  0.8285 -2.0122
 4346TIP3    H234530   3.024   5.762  15.369 -0.0553  0.5834 -1.4752
 4347TIP3   OH234531   5.674   3.775   4.457 -0.7613  0.9313 -0.0568
 4347TIP3    H134532   5.584   3.770   4.490 -0.4569 -0.5110  0.6306
 4347TIP3    H234533   5.718   3.836   4.515 -0.5276 -0.7141  1.6014
 4348TIP3   OH234534   0.416   5.843   3.189  0.1270 -0.4238  0.2102
 4348TIP3    H134535   0.397   5.758   3.150 -0.2791  0.7998 -2.5102
 4348TIP3    H234536   0.330   5.879   3.211  0.0297  0.3923 -1.3387
 4349TIP3   OH234537   4.243   3.993  13.726  0.2991  0.1690 -0.1645
 4349TIP3    H134538   4.283   3.945  13.654  0.4237  1.6303 -1.1140
 4349TIP3    H234539   4.167   4.037  13.686 -1.3354 -1.2287  1.2278
 4350TIP3   OH234540   6.716   6.010  16.871  0.4593  0.1365  0.1128
 4350TIP3    H134541   6.727   6.060  16.952 -1.3129  0.6543  0.0634
 4350TIP3    H234542   6.723   6.074  16.801  0.9653 -0.1484 -0.1057
 4351TIP3   OH234543   5.796   4.675  11.006 -0.0364 -0.3145 -0.7161
 4351TIP3    H134544   5.868   4.630  11.049 -0.3291  0.9744  1.2807
 4351TIP3    H234545   5.724   4.671  11.070 -1.0045  0.3703 -1.7189
 4352TIP3   OH234546   0.985   0.702   4.065  0.2535  0.6198  0.3069
 4352TIP3    H134547   1.056   0.648   4.030 -0.9609 -0.0772 -1.2059
 4352TIP3    H234548   1.022   0.790   4.070  1.7821 -0.0319  1.3379
 4353TIP3   OH234549   6.306   2.865   2.123 -0.4321 -0.4183  0.1300
 4353TIP3    H134550   6.372   2.803   2.093  0.9436  1.4868 -1.0165
 4353TIP3    H234551   6.327   2.879   2.216  0.3026 -0.4143 -0.0299
 4354TIP3   OH234552   3.869   3.582   4.311 -0.2899 -0.2269  0.2780
 4354TIP3    H134553   3.843   3.659   4.261 -1.3498 -1.1603 -0.6569
 4354TIP3    H234554   3.961   3.568   4.289  0.2363  1.3477  1.2729
 4355TIP3   OH234555   4.895   5.208   1.854  0.5229 -0.2001 -0.3104
 4355TIP3    H134556   4.802   5.216   1.875  0.6000  0.5008 -0.2364
 4355TIP3    H234557   4.903   5.121   1.815  0.0062 -0.6595  0.5768
 4356TIP3   OH234558   6.804   1.047  15.017 -0.3740 -0.1173 -0.8850
 4356TIP3    H134559   6.755   1.029  15.097 -0.2789 -0.2180 -0.8493
 4356TIP3    H234560   6.896   1.047  15.044 -0.3451 -0.0956 -0.9830
 4357TIP3   OH234561   0.123   4.698  16.247 -0.1166  0.7858  0.3308
 4357TIP3    H134562   0.056   4.647  16.293 -0.4500  0.6919 -0.2399
 4357TIP3    H234563   0.146   4.644  16.171 -0.7230  1.6089 -0.4684
 4358TIP3   OH234564   3.436   2.239   1.615 -0.0665  0.0544  0.1578
 4358TIP3    H134565   3.423   2.327   1.649  1.4426  0.0662  0.7623
 4358TIP3    H234566   3.509   2.247   1.553  0.0553 -0.7539  0.1753
 4359TIP3   OH234567   3.460   0.832   4.131  0.0251  0.4824  0.7180
 4359TIP3    H134568   3.512   0.753   4.118  0.3206  0.8076 -0.1398
 4359TIP3    H234569   3.521   0.904   4.114 -0.1331  0.9139  1.8785
 4360TIP3   OH234570   2.283   5.289   4.251  0.0524  0.2373 -0.5697
 4360TIP3    H134571   2.367   5.282   4.297 -1.5183 -1.0320  2.3862
 4360TIP3    H234572   2.246   5.372   4.280 -0.6136 -0.2040 -0.1305
 4361TIP3   OH234573   0.742   3.086  13.960  0.1010  1.0048 -0.3188
 4361TIP3    H134574   0.681   3.083  13.887 -1.9505  1.6877  1.2606
 4361TIP3    H234575   0.751   3.180  13.980  1.6744  0.9153 -0.4930
 4362TIP3   OH234576   4.025   6.577  16.357  0.7472 -0.1107 -0.0851
 4362TIP3    H134577   4.009   6.669  16.338  1.3776 -0.3725 -2.1195
 4362TIP3    H234578   4.074   6.545  16.281  0.9785 -2.0052  0.8063
 4363TIP3   OH234579   1.973   0.055   4.722 -0.2556  0.4119 -0.3784
 4363TIP3    H134580   1.887   0.016   4.704 -0.1735  0.2297 -0.3692
 4363TIP3    H234581   1.987   0.040   4.815  0.5835 -1.1405 -0.7249
 4364TIP3   OH234582   4.313   5.486   1.816  0.0195 -0.0462  0.3179
 4364TIP3    H134583   4.245   5.460   1.754  1.0344  2.3529 -1.9873
 4364TIP3    H234584   4.395   5.476   1.767  0.9614  0.9173  1.6437
 4365TIP3   OH234585   6.344   3.826   6.714  0.0009  0.0002 -0.5237
 4365TIP3    H134586   6.370   3.768   6.642 -0.9431 -0.3920 -0.5670
 4365TIP3    H234587   6.256   3.797   6.737  0.0476  0.5333  0.3785
 4366TIP3   OH234588   0.484   4.961   3.385 -0.2280 -0.5816  0.8337
 4366TIP3    H134589   0.390   4.946   3.396 -0.6112  0.1153 -1.1051
 4366TIP3    H234590   0.514   4.990   3.470 -1.5356 -1.9029  1.8010
 4367TIP3   OH234591   0.632   5.042   2.577  0.3072  0.0878  0.2583
 4367TIP3    H134592   0.674   5.087   2.503  0.4528 -1.2185 -0.4846
 4367TIP3    H234593   0.547   5.015   2.542  0.0471  0.1676  0.8299
 4368TIP3   OH234594   0.413   4.543  16.386  0.2975 -0.1080  0.7032
 4368TIP3    H134595   0.363   4.602  16.442 -1.5324 -0.0453 -0.8722
 4368TIP3    H234596   0.380   4.456  16.406  1.0123 -0.2995  1.0708
 4369TIP3   OH234597   0.126   4.899  16.459 -0.1554 -0.3517  0.3159
 4369TIP3    H134598   0.123   4.850  16.377  0.4799  1.0627 -0.5725
 4369TIP3    H234599   0.039   4.936  16.469 -0.3001 -0.7151  0.4038
 4370TIP3   OH234600   4.421   4.419  11.464  0.1881  0.4487  0.1197
 4370TIP3    H134601   4.393   4.329  11.447  0.8103  0.0869  0.9381
 4370TIP3    H234602   4.497   4.431  11.407  0.4071  0.2874  0.3784
 4371TIP3   OH234603   4.592   1.191   2.223  0.2954 -0.2707  0.0926
 4371TIP3    H134604   4.649   1.266   2.203 -0.1069  0.4351  1.4540
 4371TIP3    H234605   4.510   1.231   2.253 -0.0585 -1.2557  0.4781
 4372TIP3   OH234606   1.310   1.281   2.867 -0.1595  0.3066  0.2243
 4372TIP3    H134607   1.355   1.365   2.881 -0.5602  0.2497  2.0472
 4372TIP3    H234608   1.231   1.287   2.920 -0.8408 -0.7620 -0.6202
 4373TIP3   OH234609   6.741   3.641  16.356  0.0752  0.1483 -0.4214
 4373TIP3    H134610   6.745   3.629  16.261 -1.0209  1.1634 -0.6122
 4373TIP3    H234611   6.822   3.601  16.388 -0.1529 -1.3774 -1.6476
 4374TIP3   OH234612   3.234   4.074   5.649 -0.0347  0.6034  0.0902
 4374TIP3    H134613   3.156   4.126   5.627  0.1520  0.6385 -0.4988
 4374TIP3    H234614   3.270   4.116   5.727  0.9507  2.2681 -1.2186
 4375TIP3   OH234615   5.103   0.621  14.999 -0.0885  0.2616 -0.4697
 4375TIP3    H134616   5.106   0.614  15.094  1.1096 -2.2247 -0.6204
 4375TIP3    H234617   5.095   0.715  14.982 -3.8525  0.6347  2.0846
 4376TIP3   OH234618   5.830   6.476   2.753  0.4004 -0.3232 -0.6914
 4376TIP3    H134619   5.767   6.407   2.775 -0.4454  0.5727 -0.1953
 4376TIP3    H234620   5.915   6.439   2.778 -0.2178 -0.4761  1.4307
 4377TIP3   OH234621   1.946   0.777   0.768 -0.2203  0.1657  0.6434
 4377TIP3    H134622   2.001   0.826   0.829  0.2673 -0.7792  0.9972
 4377TIP3    H234623   1.901   0.713   0.824 -0.8833  0.2490  0.2095
 4378TIP3   OH234624   4.939   0.719  11.391  0.2459  0.4957 -0.0924
 4378TIP3    H134625   4.920   0.626  11.386 -0.4001  0.6559 -1.0634
 4378TIP3    H234626   5.031   0.724  11.416 -0.5983 -0.3228  3.7338
 4379TIP3   OH234627   0.867   5.552   2.172 -0.7007  0.7362  0.2804
 4379TIP3    H134628   0.876   5.469   2.125 -1.5400  1.6068 -1.5144
 4379TIP3    H234629   0.773   5.563   2.183 -0.5635  1.1509  1.0747
 4380TIP3   OH234630   3.140   6.159   3.288  0.0310  0.8027  0.1602
 4380TIP3    H134631   3.219   6.109   3.306 -0.2023  1.0793  2.1311
 4380TIP3    H234632   3.086   6.148   3.367 -2.0987  0.2609 -1.2848
 4381TIP3   OH234633   2.789   1.620   4.313 -0.1862  0.1941 -0.7162
 4381TIP3    H134634   2.854   1.690   4.324 -0.0437 -0.1762  1.2100
 4381TIP3    H234635   2.750   1.610   4.400 -0.5706 -1.7801 -1.0726
 4382TIP3   OH234636   3.111   6.322   2.171 -0.2322 -0.0359  0.2833
 4382TIP3    H134637   3.142   6.232   2.185  1.1771  0.3556 -0.1650
 4382TIP3    H234638   3.016   6.315   2.177 -0.1287 -1.4555  0.8509
 4383TIP3   OH234639   3.398   2.307  14.906 -0.5927 -0.1176 -0.1700
 4383TIP3    H134640   3.332   2.374  14.926 -0.1027  0.8698 -1.6935
 4383TIP3    H234641   3.465   2.353  14.856 -0.4909 -1.8402 -1.7491
 4384TIP3   OH234642   0.765   3.289   0.846 -0.2120  0.5173  0.2890
 4384TIP3    H134643   0.681   3.294   0.892 -1.4254  0.1319 -1.7782
 4384TIP3    H234644   0.826   3.336   0.903 -1.3088 -0.9608  2.8877
 4385TIP3   OH234645   1.135   4.603   4.210 -0.4471 -0.1251 -0.5308
 4385TIP3    H134646   1.111   4.650   4.130 -1.0232 -0.4360 -0.5466
 4385TIP3    H234647   1.219   4.640   4.235 -1.0076  1.1133 -0.3869
 4386TIP3   OH234648   2.145   0.446  11.729 -0.5612 -0.2187 -0.6478
 4386TIP3    H134649   2.149   0.534  11.693 -0.4915 -0.4652 -1.2467
 4386TIP3    H234650   2.055   0.417  11.715 -0.3742 -0.5489 -1.1898
 4387TIP3   OH234651   1.486   6.312   5.548  0.0625 -0.3853  0.3760
 4387TIP3    H134652   1.511   6.403   5.568  0.6566  0.1666 -2.4713
 4387TIP3    H234653   1.554   6.259   5.590 -0.2083  0.4663  1.9523
 4388TIP3   OH234654   0.419   2.650  14.062 -0.7050 -0.0712  0.7198
 4388TIP3    H134655   0.378   2.566  14.044 -1.5702  0.0329  2.0082
 4388TIP3    H234656   0.412   2.699  13.980  1.0038 -1.6800 -0.4657
 4389TIP3   OH234657   6.210   3.306   5.177 -0.1400  0.2479 -0.7459
 4389TIP3    H134658   6.160   3.295   5.096  0.7165 -2.8875 -0.9826
 4389TIP3    H234659   6.143   3.313   5.245 -0.8774  3.2142 -1.6080
 4390TIP3   OH234660   0.925   2.804  12.549  0.0582  0.3255  0.4114
 4390TIP3    H134661   0.847   2.748  12.552  0.5962 -0.5912 -1.0400
 4390TIP3    H234662   0.907   2.875  12.610 -3.1999  1.7981 -1.9570
 4391TIP3   OH234663   5.499   6.656  12.948  0.3231 -0.0873 -0.2644
 4391TIP3    H134664   5.576   6.666  12.892  0.7012 -0.3400  0.2057
 4391TIP3    H234665   5.503   6.566  12.979  1.5149  0.6925  2.1515
 4392TIP3   OH234666   5.318   1.113  15.066 -0.0540 -0.8758 -0.6522
 4392TIP3    H134667   5.370   1.044  15.026 -0.4325 -2.1175  0.8824
 4392TIP3    H234668   5.380   1.160  15.123 -0.0560 -0.7111 -0.7851
 4393TIP3   OH234669   0.729   5.140   0.135 -0.0439 -0.4508  0.0121
 4393TIP3    H134670   0.805   5.138   0.078  0.2919  2.4409  0.1975
 4393TIP3    H234671   0.765   5.150   0.223 -0.6220 -1.6736  0.4130
 4394TIP3   OH234672   5.044   3.724   3.671 -0.0785  0.1003  0.1887
 4394TIP3    H134673   5.098   3.781   3.616 -2.6230  0.7309 -1.8641
 4394TIP3    H234674   5.044   3.640   3.625 -0.3575 -0.0829  0.5199
 4395TIP3   OH234675   1.247   3.500  16.791  0.7375  0.1467 -0.0672
 4395TIP3    H134676   1.268   3.415  16.831 -1.5623 -0.2686  0.3924
 4395TIP3    H234677   1.270   3.489  16.699  1.1536 -0.7315  0.1328
 4396TIP3   OH234678   0.477   3.919  14.565 -0.3198  0.7691 -0.2142
 4396TIP3    H134679   0.480   3.923  14.660 -0.4211 -0.0554 -0.1746
 4396TIP3    H234680   0.404   3.976  14.541 -2.1150 -1.1695  0.3731
 4397TIP3   OH234681   0.321   4.867  12.338  0.3545 -0.1179 -0.5081
 4397TIP3    H134682   0.358   4.785  12.371 -0.1044  0.0108  0.3710
 4397TIP3    H234683   0.227   4.859  12.354  0.3425  0.7119 -0.1056
 4398TIP3   OH234684   1.686   5.018  16.965  0.1514 -0.1498 -0.0020
 4398TIP3    H134685   1.631   5.080  16.916  0.0897  0.3203  0.6488
 4398TIP3    H234686   1.631   4.991  17.039  0.1163 -1.1223 -0.3707
 4399TIP3   OH234687   3.119   4.081   4.978  0.2806 -0.5331  0.2488
 4399TIP3    H134688   3.052   4.138   5.016 -1.2593 -0.5805 -2.1913
 4399TIP3    H234689   3.073   4.029   4.912  2.5520 -1.2065 -0.9297
 4400TIP3   OH234690   5.064   1.038  13.459  0.2892  0.7958  0.0189
 4400TIP3    H134691   5.114   0.965  13.497 -0.3479  0.3473  0.0146
 4400TIP3    H234692   5.002   0.996  13.399  1.3073  1.4949 -1.5855
 4401TIP3   OH234693   4.068   5.250   2.691 -0.2632  0.0266  0.3753
 4401TIP3    H134694   4.120   5.183   2.737  0.3177  0.2346  0.0276
 4401TIP3    H234695   4.131   5.318   2.668 -0.6506  0.1918 -0.2286
 4402TIP3   OH234696   6.567   1.589   3.515 -0.4696 -0.1374  0.6076
 4402TIP3    H134697   6.490   1.637   3.483  0.2657  1.0643  0.6039
 4402TIP3    H234698   6.531   1.528   3.580 -1.4857  0.0576  0.2578
 4403TIP3   OH234699   6.774   1.643  11.570  1.4727 -0.8085  0.0403
 4403TIP3    H134700   6.817   1.641  11.484 -0.4984  0.1003 -1.0456
 4403TIP3    H234701   6.792   1.731  11.603  0.3947 -0.3799 -0.4770
 4404TIP3   OH234702   1.708   0.161   4.305 -0.3130 -0.2987 -0.1552
 4404TIP3    H134703   1.666   0.100   4.366 -0.2604 -0.0883  0.0971
 4404TIP3    H234704   1.795   0.124   4.290  0.4419  0.6511  1.4822
 4405TIP3   OH234705   5.169   0.460   2.783 -0.3235 -0.4873  0.5780
 4405TIP3    H134706   5.247   0.514   2.768 -0.5538 -0.3563 -0.1633
 4405TIP3    H234707   5.145   0.478   2.874 -0.5353  0.8749  0.2748
 4406TIP3   OH234708   4.783   2.792   3.259  0.2118  0.4958 -0.0582
 4406TIP3    H134709   4.871   2.776   3.226 -0.2941 -2.2984 -0.3511
 4406TIP3    H234710   4.736   2.832   3.186  0.3907 -1.1670 -1.1359
 4407TIP3   OH234711   1.493   0.277   4.919 -0.1004 -0.8108  0.6505
 4407TIP3    H134712   1.445   0.198   4.894 -0.1628 -1.5805  2.9592
 4407TIP3    H234713   1.583   0.261   4.891 -0.7993  0.0283 -2.4000
 4408TIP3   OH234714   2.094   2.574   3.765 -0.8547 -0.0197  0.7213
 4408TIP3    H134715   2.177   2.550   3.805  0.0905  0.5465 -0.7953
 4408TIP3    H234716   2.028   2.525   3.814  0.6173 -2.8448  0.0832
 4409TIP3   OH234717   1.063   0.966  12.798  0.4936 -0.5463 -0.4467
 4409TIP3    H134718   1.091   1.057  12.789 -0.2176 -0.0336  1.9288
 4409TIP3    H234719   0.994   0.968  12.864  1.4565 -2.9685  0.7598
 4410TIP3   OH234720   5.970   0.931   3.375  0.1488  0.4865  0.3574
 4410TIP3    H134721   5.985   0.888   3.291  1.6334  1.8931 -0.1516
 4410TIP3    H234722   6.048   0.984   3.390 -0.3640  0.8000  2.3197
 4411TIP3   OH234723   5.014   3.982  11.343  0.2072 -0.1656  0.1440
 4411TIP3    H134724   4.974   3.899  11.316  0.8940 -1.5106  2.8826
 4411TIP3    H234725   4.971   4.002  11.426  2.2504  0.5684  1.0663
 4412TIP3   OH234726   3.633   2.351   5.787 -0.3711  0.3653  0.5650
 4412TIP3    H134727   3.646   2.442   5.814  1.6913  0.8438 -1.6630
 4412TIP3    H234728   3.698   2.302   5.836  0.5722  0.6090 -0.3929
 4413TIP3   OH234729   6.460   0.878  14.209 -0.2974  0.4887  0.0974
 4413TIP3    H134730   6.384   0.822  14.227 -0.0482  0.3976  0.8845
 4413TIP3    H234731   6.516   0.869  14.286  0.6376  0.3603 -0.5838
 4414TIP3   OH234732   2.543   2.474  17.030  0.7668 -0.2462 -0.1285
 4414TIP3    H134733   2.455   2.484  17.064 -0.2146  1.0235 -2.7403
 4414TIP3    H234734   2.593   2.545  17.070  0.4026 -0.4793  0.7533
 4415TIP3   OH234735   0.469   3.954   2.927  0.0470 -0.5457  0.6349
 4415TIP3    H134736   0.533   3.948   2.999  1.3315  0.3822 -0.3736
 4415TIP3    H234737   0.389   3.916   2.963  0.2995  0.8951  2.9489
 4416TIP3   OH234738   3.284   3.847  11.727  0.4969 -0.2232 -0.3148
 4416TIP3    H134739   3.239   3.912  11.673 -1.0603 -0.1158  1.0223
 4416TIP3    H234740   3.355   3.895  11.768 -0.6168  0.6729  0.6335
 4417TIP3   OH234741   2.999   2.857  11.118 -0.4099  0.1171  0.2452
 4417TIP3    H134742   2.909   2.857  11.148 -0.8624  2.2207 -0.8831
 4417TIP3    H234743   2.993   2.857  11.022  0.8722 -1.8593  0.0944
 4418TIP3   OH234744   2.695   6.571   4.002 -0.1609 -0.6869  0.1531
 4418TIP3    H134745   2.712   6.587   3.909 -2.2676 -0.9981 -0.3422
 4418TIP3    H234746   2.741   6.490   4.021  2.3206  0.5901  0.0772
 4419TIP3   OH234747   5.747   1.161   4.236  0.3368  0.0687  0.4490
 4419TIP3    H134748   5.675   1.103   4.260  1.0818 -1.2221 -0.2820
 4419TIP3    H234749   5.707   1.228   4.182 -0.3186 -0.6784 -0.0149
 4420TIP3   OH234750   3.448   4.098   6.119 -0.2502 -0.1218 -0.2252
 4420TIP3    H134751   3.540   4.084   6.095  0.1754 -2.2406  2.2282
 4420TIP3    H234752   3.423   4.019   6.166 -3.0154  0.8902  0.1845
 4421TIP3   OH234753   4.596   1.099   5.702 -0.1344  0.4728 -0.0066
 4421TIP3    H134754   4.626   1.022   5.654 -1.3685  1.2945 -2.2068
 4421TIP3    H234755   4.677   1.144   5.728  0.6425  0.5214 -2.2644
 4422TIP3   OH234756   2.003   4.768   5.396 -0.3047  0.5675 -0.0941
 4422TIP3    H134757   2.075   4.717   5.357 -0.4506  0.9304 -0.8483
 4422TIP3    H234758   2.013   4.755   5.490 -0.2822 -0.7815 -0.2658
 4423TIP3   OH234759   3.439   0.237  17.256  0.1955  0.0480  0.0234
 4423TIP3    H134760   3.527   0.260  17.228  1.1787 -1.4216  1.6865
 4423TIP3    H234761   3.449   0.211  17.348 -2.0014 -0.0234  0.3071
 4424TIP3   OH234762   2.188   5.446   1.552  0.2238  0.0950 -0.3842
 4424TIP3    H134763   2.270   5.458   1.600 -1.1026  1.2579  1.7540
 4424TIP3    H234764   2.126   5.504   1.595 -1.6246 -0.3500 -2.2669
 4425TIP3   OH234765   6.493   6.474   5.033 -0.0319  0.4455  0.2072
 4425TIP3    H134766   6.448   6.479   5.117 -1.9388 -0.3762 -0.7257
 4425TIP3    H234767   6.516   6.382   5.023 -0.3554  0.4283 -0.4362
 4426TIP3   OH234768   6.018   2.755   1.740  0.0750 -0.1209  0.5458
 4426TIP3    H134769   6.054   2.670   1.765  3.3170  0.5593 -1.2262
 4426TIP3    H234770   6.064   2.818   1.794 -0.3108  0.6824 -0.0384
 4427TIP3   OH234771   4.738   0.594   4.854 -0.2281 -0.1849  0.2496
 4427TIP3    H134772   4.735   0.566   4.945  0.7497 -0.6978  0.1333
 4427TIP3    H234773   4.730   0.689   4.857  0.4732 -0.1444  0.9114
 4428TIP3   OH234774   5.049   6.008  15.654 -0.2549 -0.0189  0.1127
 4428TIP3    H134775   5.109   5.952  15.703 -0.4131 -0.3586 -0.0745
 4428TIP3    H234776   5.096   6.090  15.641  0.1796 -0.2928 -0.0603
 4429TIP3   OH234777   0.056   0.763  11.121  0.0971 -0.5356  0.0028
 4429TIP3    H134778  -0.023   0.724  11.083 -1.2149 -0.5279  2.4973
 4429TIP3    H234779   0.117   0.689  11.128 -1.0863 -1.4424  1.4366
 4430TIP3   OH234780   4.527   3.981  11.138 -0.6075  0.1771 -0.1319
 4430TIP3    H134781   4.479   4.043  11.084 -1.9833 -0.7386  0.0091
 4430TIP3    H234782   4.619   3.999  11.118 -0.8157  3.3757  1.0844
 4431TIP3   OH234783   0.090   6.458  13.966  0.4873  0.5711  0.3924
 4431TIP3    H134784   0.117   6.513  14.039 -0.0072  0.4458  0.6694
 4431TIP3    H234785   0.061   6.520  13.899  0.3091  0.6610  0.5520
 4432TIP3   OH234786   4.860   1.462  11.896 -0.0895 -0.3081  0.5321
 4432TIP3    H134787   4.941   1.412  11.885  0.3419 -0.1017  2.4461
 4432TIP3    H234788   4.821   1.463  11.809  2.3473  0.2651 -0.6587
 4433TIP3   OH234789   5.749   4.820  12.112 -0.3687  0.9378  0.6910
 4433TIP3    H134790   5.666   4.773  12.119  1.0169 -1.4597  2.0918
 4433TIP3    H234791   5.762   4.831  12.018 -1.8655  0.6219  0.4214
 4434TIP3   OH234792   1.564   3.099  15.581  0.4880 -0.5131 -0.4919
 4434TIP3    H134793   1.601   3.071  15.497  0.9927 -0.6619 -0.2232
 4434TIP3    H234794   1.632   3.078  15.645  0.7261  0.9976 -0.2293
 4435TIP3   OH234795   3.115   6.304   2.516  0.0614 -0.4741 -0.2045
 4435TIP3    H134796   3.042   6.297   2.577  1.0075  1.2534  1.2218
 4435TIP3    H234797   3.097   6.384   2.466  0.7552 -0.2426 -0.0983
 4436TIP3   OH234798   6.419   3.639  10.754  1.0055  0.8361  0.3261
 4436TIP3    H134799   6.389   3.574  10.690 -2.1335  1.7370  0.7271
 4436TIP3    H234800   6.391   3.723  10.718  2.7504  1.7580  1.0270
 4437TIP3   OH234801   3.396   3.865   5.505  0.4966 -0.5431 -0.4406
 4437TIP3    H134802   3.332   3.913   5.558  0.3038 -1.6365  0.3519
 4437TIP3    H234803   3.437   3.932   5.451 -0.9795  0.2576 -0.6257
 4438TIP3   OH234804   6.742   3.627  16.056 -0.2931  1.3173  0.4501
 4438TIP3    H134805   6.781   3.608  15.971  0.5889  1.0985  0.8891
 4438TIP3    H234806   6.648   3.637  16.038 -0.8621 -2.8885  0.0573
 4439TIP3   OH234807   4.931   0.543   5.136 -0.0149 -0.3512 -0.2412
 4439TIP3    H134808   4.873   0.533   5.211  1.8145 -0.6142  1.2049
 4439TIP3    H234809   4.998   0.476   5.148  2.1070  1.6313 -0.3668
 4440TIP3   OH234810   0.449   4.155  13.329  0.3434 -0.2853 -0.3839
 4440TIP3    H134811   0.430   4.241  13.291 -1.9293  0.1340  1.4454
 4440TIP3    H234812   0.373   4.102  13.306  0.9488 -1.2878 -0.0889
 4441TIP3   OH234813   6.657   0.702   1.970  0.2529 -0.2158 -0.2040
 4441TIP3    H134814   6.657   0.783   2.021 -2.1484  0.1862 -0.7117
 4441TIP3    H234815   6.730   0.712   1.909  1.3327  0.5827  1.1577
 4442TIP3   OH234816   6.361   0.046   1.113  0.1825  0.1367 -0.8015
 4442TIP3    H134817   6.411  -0.034   1.104  0.6383  0.4132 -0.7749
 4442TIP3    H234818   6.369   0.069   1.205 -1.1859 -0.5775 -0.4862
 4443TIP3   OH234819   0.666   2.598  12.926 -0.7928  0.4366 -0.7062
 4443TIP3    H134820   0.688   2.606  12.833  0.7071  1.5409 -0.2962
 4443TIP3    H234821   0.743   2.631  12.972 -1.4870 -0.1202  0.9502
 4444TIP3   OH234822   3.964   5.539   3.263 -0.7294  0.1171 -0.2427
 4444TIP3    H134823   4.008   5.485   3.197  0.5531  1.7215 -0.7688
 4444TIP3    H234824   4.022   5.536   3.339 -0.9726  0.2239 -0.0545
 4445TIP3   OH234825   3.968   0.914  13.059 -0.3260 -0.5283  0.1116
 4445TIP3    H134826   3.989   0.822  13.071  0.1466 -0.5637 -0.9035
 4445TIP3    H234827   4.052   0.958  13.047 -0.5866 -0.0970 -0.2110
 4446TIP3   OH234828   4.240   0.496  16.977  0.4200 -0.4370  0.6843
 4446TIP3    H134829   4.227   0.581  17.018 -1.2105  0.0641 -0.7409
 4446TIP3    H234830   4.309   0.512  16.911  0.8104 -0.4778  1.0777
 4447TIP3   OH234831   1.162   4.403   1.582  0.2209  0.4166 -0.1483
 4447TIP3    H134832   1.131   4.354   1.658 -0.4092  0.0218 -0.6454
 4447TIP3    H234833   1.257   4.392   1.583  0.1936  0.1869  0.4245
 4448TIP3   OH234834   0.718   3.104   3.750  0.0152  0.1916  0.0841
 4448TIP3    H134835   0.670   3.132   3.672 -0.2294  0.6581  0.3954
 4448TIP3    H234836   0.657   3.045   3.795 -0.2117  0.6705  0.4059
 4449TIP3   OH234837   3.035   5.783  11.317  0.4675  0.4439  0.1857
 4449TIP3    H134838   3.044   5.826  11.232  0.2386  1.6873  0.7769
 4449TIP3    H234839   3.093   5.832  11.376  0.2935 -0.1320  0.8508
 4450TIP3   OH234840   1.436   4.687  16.712  0.7900 -0.3693 -0.1153
 4450TIP3    H134841   1.373   4.625  16.675  0.6609 -0.9618  1.0506
 4450TIP3    H234842   1.517   4.637  16.718  0.4437 -0.7575  1.7237
 4451TIP3   OH234843   0.954   6.598  11.980 -0.3988  0.5286 -0.2141
 4451TIP3    H134844   0.940   6.646  11.898  1.5329 -0.3356 -1.0882
 4451TIP3    H234845   0.971   6.667  12.044 -2.0958  1.2291 -0.4503
 4452TIP3   OH234846   0.370   6.187   4.872 -0.1552 -0.3790  0.0103
 4452TIP3    H134847   0.373   6.124   4.800  2.5385 -0.1087 -0.2215
 4452TIP3    H234848   0.359   6.272   4.830 -0.3913 -0.3744  0.0761
 4453TIP3   OH234849   3.616   1.069   4.124 -0.0278  0.3545 -0.1060
 4453TIP3    H134850   3.688   1.092   4.065  1.1140 -3.4977 -0.4712
 4453TIP3    H234851   3.656   1.013   4.191 -2.1816  0.6295  1.5260
 4454TIP3   OH234852   3.426   1.789  10.484  0.3904 -0.3148  0.4700
 4454TIP3    H134853   3.501   1.838  10.453  0.2681  0.0197  0.7017
 4454TIP3    H234854   3.351   1.845  10.464  0.1107 -1.0288 -0.5831
 4455TIP3   OH234855   2.532   2.450   0.506  0.2644  0.3165  0.3304
 4455TIP3    H134856   2.451   2.496   0.487 -1.3764 -3.0873 -1.9962
 4455TIP3    H234857   2.510   2.388   0.576  0.6804 -0.9024 -0.5721
 4456TIP3   OH234858   5.711   3.182  13.839  0.0043  0.0343 -0.3512
 4456TIP3    H134859   5.799   3.145  13.839  0.0678  0.0314  2.0155
 4456TIP3    H234860   5.724   3.276  13.824  0.4682  0.0956  0.3848
 4457TIP3   OH234861   0.053   0.656  15.786  0.0558  0.3593  0.0065
 4457TIP3    H134862   0.078   0.564  15.786 -0.1910  0.2911 -0.6212
 4457TIP3    H234863   0.128   0.700  15.827  0.8917  0.0609 -1.1602
 4458TIP3   OH234864   3.300   5.304  16.177 -0.1740  0.0991 -0.4161
 4458TIP3    H134865   3.338   5.317  16.090 -0.5888  1.7654 -0.3729
 4458TIP3    H234866   3.268   5.214  16.175  3.9630 -1.6051 -0.3615
 4459TIP3   OH234867   2.941   2.102   0.760 -0.3947 -0.0103 -0.3958
 4459TIP3    H134868   2.922   2.008   0.765  0.9643 -0.2850  0.0265
 4459TIP3    H234869   3.021   2.113   0.811 -2.0315  1.8511  2.0253
 4460TIP3   OH234870   6.474   5.875  16.809  0.3642  0.4526 -0.7162
 4460TIP3    H134871   6.401   5.923  16.850 -0.1186 -0.1750 -0.8276
 4460TIP3    H234872   6.488   5.920  16.726 -2.2915 -1.4904 -2.3880
 4461TIP3   OH234873   2.875   2.806   5.826 -0.5123 -0.4045 -0.2349
 4461TIP3    H134874   2.787   2.779   5.801 -0.7399  2.8854 -4.0211
 4461TIP3    H234875   2.862   2.863   5.902 -1.8362  0.5885 -1.1575
 4462TIP3   OH234876   4.648   2.931   3.078  0.8241 -0.8156  0.9280
 4462TIP3    H134877   4.606   2.942   2.993  1.1904 -2.2776  0.5151
 4462TIP3    H234878   4.605   2.994   3.136  1.2508  0.9286 -0.5643
 4463TIP3   OH234879   0.965   6.207   0.456  0.2859 -0.1615 -0.1161
 4463TIP3    H134880   0.991   6.228   0.366  0.5684 -0.9567 -0.2337
 4463TIP3    H234881   0.896   6.269   0.477  1.9781  1.7958  0.0476
 4464TIP3   OH234882   4.969   5.841  14.670  0.1975  0.7961 -0.1079
 4464TIP3    H134883   4.890   5.858  14.721 -0.2738  1.1648 -0.9475
 4464TIP3    H234884   5.040   5.840  14.735 -0.4755  0.5392  0.6389
 4465TIP3   OH234885   1.945   0.589   0.329 -0.1094  0.0929  0.1100
 4465TIP3    H134886   1.993   0.555   0.254  0.8816 -1.1123  1.2321
 4465TIP3    H234887   1.892   0.515   0.360  1.6057 -0.3720  2.2208
 4466TIP3   OH234888   2.626   2.604   2.262  0.4536  0.5050  0.1983
 4466TIP3    H134889   2.534   2.610   2.286 -0.0502 -0.8173 -1.2185
 4466TIP3    H234890   2.665   2.549   2.330 -0.4958 -1.4443 -0.7382
 4467TIP3   OH234891   3.526   4.417   0.820 -0.0895  0.0847  0.0229
 4467TIP3    H134892   3.432   4.427   0.805  0.1407  2.3002 -0.3053
 4467TIP3    H234893   3.552   4.345   0.763 -1.8728 -1.8794  1.5417
 4468TIP3   OH234894   5.408   4.837  16.456 -0.1676  0.1113  0.6293
 4468TIP3    H134895   5.339   4.809  16.516  0.6086 -1.9825  0.6086
 4468TIP3    H234896   5.412   4.932  16.467 -2.7171  0.2583  0.9585
 4469TIP3   OH234897   1.147   2.640   4.818  0.0536 -0.2041 -0.4095
 4469TIP3    H134898   1.152   2.692   4.898 -2.6837 -1.1207  0.4716
 4469TIP3    H234899   1.237   2.635   4.787  1.0356  1.1856  1.9478
 4470TIP3   OH234900   5.820   6.173   3.156 -0.5598 -0.3847 -0.1786
 4470TIP3    H134901   5.782   6.260   3.143  0.8169  0.4839  1.2917
 4470TIP3    H234902   5.898   6.171   3.101 -0.1935 -0.4225  0.3390
 4471TIP3   OH234903   1.794   2.396  16.558  0.2790  0.7074 -0.8608
 4471TIP3    H134904   1.878   2.380  16.515 -0.3622 -0.8109 -1.6392
 4471TIP3    H234905   1.807   2.366  16.648 -0.1229 -2.1356 -1.6364
 4472TIP3   OH234906   2.694   3.665  12.534 -0.1077  0.0677  0.5427
 4472TIP3    H134907   2.663   3.692  12.621  0.2640 -0.3217  0.7972
 4472TIP3    H234908   2.732   3.745  12.497 -2.4845  0.9051 -0.2881
 4473TIP3   OH234909   4.081   4.852   5.926  0.5503 -0.2785 -0.4618
 4473TIP3    H134910   4.093   4.868   5.833  0.4800  3.2524 -0.0134
 4473TIP3    H234911   3.986   4.844   5.938  0.5498 -0.5837 -0.6739
 4474TIP3   OH234912   6.000   6.546  11.029 -0.0148  0.1146  0.2968
 4474TIP3    H134913   5.927   6.523  10.971 -0.2499 -0.0441  0.6492
 4474TIP3    H234914   5.973   6.628  11.070  0.1797  0.2608  0.1301
 4475TIP3   OH234915   1.407   3.925  16.600 -0.2820  0.6302  0.4201
 4475TIP3    H134916   1.339   3.893  16.541 -0.4331  1.2667  0.2422
 4475TIP3    H234917   1.363   3.990  16.654  0.2274  1.1716  0.1861
 4476TIP3   OH234918   4.925   3.636   2.848 -0.0515 -0.2177 -0.4130
 4476TIP3    H134919   4.983   3.580   2.796  0.2166  0.1514 -0.5225
 4476TIP3    H234920   4.931   3.602   2.937 -0.8515 -1.1279 -0.6937
 4477TIP3   OH234921   2.774   4.415   1.758 -0.0496 -0.1094  0.1056
 4477TIP3    H134922   2.743   4.400   1.847 -1.2324  0.2718 -0.2185
 4477TIP3    H234923   2.696   4.403   1.703  0.0108  2.2772 -0.6213
 4478TIP3   OH234924   2.323   3.958   5.106  0.2098  0.0813  0.1721
 4478TIP3    H134925   2.236   3.989   5.132  0.2634  0.3548  0.0316
 4478TIP3    H234926   2.322   3.960   5.011 -0.4117 -2.1096  0.0862
 4479TIP3   OH234927   6.741   4.633  11.479 -0.0350 -0.5728 -0.1909
 4479TIP3    H134928   6.770   4.595  11.396  0.4136 -0.4595 -0.0921
 4479TIP3    H234929   6.814   4.618  11.539  0.1156  0.3515 -0.1233
 4480TIP3   OH234930   5.596   3.235  14.482 -0.0587 -0.4985  0.2750
 4480TIP3    H134931   5.517   3.275  14.446  0.9301  0.1735 -1.2679
 4480TIP3    H234932   5.587   3.246  14.577 -1.6522 -0.1541  0.1157
 4481TIP3   OH234933   5.874   0.917   4.095  0.4405 -0.2320 -0.5162
 4481TIP3    H134934   5.853   1.010   4.094  1.9967  0.2427  2.0196
 4481TIP3    H234935   5.789   0.873   4.096 -0.3159  1.1381 -1.3058
 4482TIP3   OH234936   1.209   2.213   2.611  0.6446 -0.1293 -0.4984
 4482TIP3    H134937   1.182   2.183   2.524  1.9151 -0.5682 -0.7635
 4482TIP3    H234938   1.154   2.163   2.671  0.6831 -0.8211 -1.0241
 4483TIP3   OH234939   3.237   4.117  15.598 -0.1971  0.3398 -0.4664
 4483TIP3    H134940   3.304   4.054  15.574 -1.0268 -0.8400  0.1955
 4483TIP3    H234941   3.173   4.113  15.526 -0.6553 -0.1949 -0.0391
 4484TIP3   OH234942   2.466   5.291  12.392 -0.1660  0.1219 -0.3799
 4484TIP3    H134943   2.513   5.245  12.461 -1.6138 -0.9022 -0.0218
 4484TIP3    H234944   2.458   5.228  12.321  1.1510  1.1068 -1.4510
 4485TIP3   OH234945   2.698   2.157  13.580  0.6688  0.0564 -0.2802
 4485TIP3    H134946   2.651   2.214  13.641  0.4483  0.1895 -0.5716
 4485TIP3    H234947   2.646   2.076  13.579 -0.1356  0.5561 -1.3619
 4486TIP3   OH234948   0.338   5.453   3.381  0.0924  0.0451 -0.1979
 4486TIP3    H134949   0.410   5.457   3.318  1.1878 -0.4212  0.9841
 4486TIP3    H234950   0.281   5.383   3.347 -0.6460  1.4249 -1.9559
 4487TIP3   OH234951   6.097   1.799  12.236  0.1797  0.0057 -0.2053
 4487TIP3    H134952   6.044   1.866  12.193 -0.1681 -0.4724 -0.5433
 4487TIP3    H234953   6.131   1.841  12.315  0.7025  0.8574 -0.8667
 4488TIP3   OH234954   0.250   1.703  11.536 -0.9369 -0.1391 -0.0271
 4488TIP3    H134955   0.265   1.797  11.527  0.1834 -0.3625 -0.6040
 4488TIP3    H234956   0.166   1.688  11.493 -0.2917  0.3400 -1.5081
 4489TIP3   OH234957   3.491   3.287  15.407 -0.2397 -0.1490  0.8376
 4489TIP3    H134958   3.483   3.215  15.344 -1.7693  1.0952 -0.4414
 4489TIP3    H234959   3.514   3.363  15.354 -2.7694  1.1940  1.5608
 4490TIP3   OH234960   5.401   3.765   4.477 -0.0633  0.1644 -0.2948
 4490TIP3    H134961   5.329   3.757   4.415 -0.9405  1.3236  0.5243
 4490TIP3    H234962   5.398   3.685   4.529 -0.8581  0.2629 -0.1775
 4491TIP3   OH234963   3.152   5.026  10.998 -0.2930 -0.1449 -0.3803
 4491TIP3    H134964   3.210   5.061  10.931 -0.8578  0.2518 -0.6720
 4491TIP3    H234965   3.102   5.102  11.028  0.2729 -0.2156  0.8281
 4492TIP3   OH234966   2.619   3.402   5.040  0.1515 -0.6531 -0.1827
 4492TIP3    H134967   2.666   3.352   4.973 -0.0629 -0.5889 -0.3829
 4492TIP3    H234968   2.531   3.414   5.004  0.7225  1.5407 -1.0632
 4493TIP3   OH234969   1.094   0.457   4.946  0.2884 -0.3919  0.0243
 4493TIP3    H134970   1.019   0.448   5.005  1.2086  0.9985  1.4865
 4493TIP3    H234971   1.080   0.391   4.878 -0.6612 -2.2962  1.9776
 4494TIP3   OH234972   0.110   0.608   4.322 -0.2563 -0.6943  0.0250
 4494TIP3    H134973   0.022   0.578   4.343  0.0218 -0.7617  1.1681
 4494TIP3    H234974   0.159   0.528   4.306 -0.4728 -0.6424 -0.9726
 4495TIP3   OH234975   5.693   3.203   0.297  0.3929 -0.3548  0.3542
 4495TIP3    H134976   5.616   3.250   0.266 -0.5886 -1.7626  0.5765
 4495TIP3    H234977   5.680   3.113   0.267  3.4779 -0.0836 -2.4193
 4496TIP3   OH234978   2.599   0.082   4.160 -0.5319  0.5684  0.3474
 4496TIP3    H134979   2.620   0.101   4.069  1.7893  0.1885  0.7553
 4496TIP3    H234980   2.549   0.158   4.190 -2.9833 -0.0946 -1.6744
 4497TIP3   OH234981   4.055   6.774   4.269 -0.2799 -0.0412 -0.2883
 4497TIP3    H134982   3.990   6.815   4.326  0.7485  1.0027  0.1690
 4497TIP3    H234983   4.005   6.744   4.194 -1.2929  0.7876  0.0343
 4498TIP3   OH234984   6.516   1.246  13.913 -0.3433  0.6017  0.4908
 4498TIP3    H134985   6.457   1.189  13.962 -0.9898  1.1398  0.3369
 4498TIP3    H234986   6.602   1.230  13.953 -0.8007  0.8057  1.6103
 4499TIP3   OH234987   4.438   0.300  11.732 -0.0453  0.9082  0.2032
 4499TIP3    H134988   4.426   0.332  11.643 -0.9816 -0.9965 -0.4053
 4499TIP3    H234989   4.383   0.222  11.737  1.7504 -0.3277  1.7386
 4500TIP3   OH234990   2.530   0.624  14.798  0.7251  0.1975 -0.3193
 4500TIP3    H134991   2.597   0.627  14.729  1.7643 -0.6789  0.6087
 4500TIP3    H234992   2.561   0.555  14.857 -1.9564 -1.5661 -0.8213
 4501TIP3   OH234993   5.369   0.645   2.757 -0.0778 -0.3313  0.2164
 4501TIP3    H134994   5.399   0.726   2.715 -1.5155  1.1084  1.7765
 4501TIP3    H234995   5.449   0.604   2.789  0.6236  1.0371  0.3193
 4502TIP3   OH234996   0.438   1.988   4.027 -0.0459 -0.2109 -0.3417
 4502TIP3    H134997   0.435   1.928   3.953  1.3048  1.5004 -1.8923
 4502TIP3    H234998   0.383   2.062   4.001 -0.3765 -0.0265  0.8193
 4503TIP3   OH234999   0.027   1.665  13.887  0.0123  0.6137  0.0908
 4503TIP3    H135000   0.097   1.604  13.910 -0.3369 -0.1568 -0.8187
 4503TIP3    H235001   0.063   1.752  13.906 -0.0914  0.1018  2.9939
 4504TIP3   OH235002   4.683   1.928  14.773 -0.9468 -0.3263 -0.4920
 4504TIP3    H135003   4.592   1.900  14.761 -0.7313 -0.4890 -1.8334
 4504TIP3    H235004   4.680   2.023  14.760 -1.1699 -0.0930  1.0579
 4505TIP3   OH235005   6.426   2.581   2.485  0.4016 -0.8590 -0.3109
 4505TIP3    H135006   6.492   2.532   2.436  1.4032 -1.9588  1.9697
 4505TIP3    H235007   6.343   2.556   2.445  0.9124 -4.0540  0.3143
 4506TIP3   OH235008   4.720   6.625   3.648 -0.2281  0.0626  0.1150
 4506TIP3    H135009   4.659   6.574   3.595 -0.2439  0.9166 -0.7144
 4506TIP3    H235010   4.767   6.560   3.700 -1.3369 -0.6652  0.2477
 4507TIP3   OH235011   0.947   1.791   4.650  0.0250 -0.1088 -0.5280
 4507TIP3    H135012   0.988   1.875   4.633 -0.8596  0.0726 -1.9408
 4507TIP3    H235013   0.890   1.806   4.726  0.1106  0.4742 -0.5777
 4508TIP3   OH235014   4.925   4.595   4.625  0.0170  0.1412  0.3696
 4508TIP3    H135015   4.895   4.660   4.561  0.3753 -0.0181  0.0348
 4508TIP3    H235016   5.021   4.605   4.626  0.1607 -1.0024 -0.3717
 4509TIP3   OH235017   6.244   1.585   4.449  0.3751 -0.5328 -0.1312
 4509TIP3    H135018   6.245   1.508   4.505  0.2973 -0.0902  0.4830
 4509TIP3    H235019   6.209   1.655   4.504 -0.0416 -0.1687 -0.8303
 4510TIP3   OH235020   0.299   6.262   0.865  0.0481 -0.3568  0.0322
 4510TIP3    H135021   0.232   6.250   0.798  1.1680 -1.8871 -0.8710
 4510TIP3    H235022   0.270   6.207   0.938  0.6233 -1.5976 -0.6354
 4511TIP3   OH235023   3.900   0.082   5.524 -0.7787 -0.3431  0.7308
 4511TIP3    H135024   3.819   0.055   5.481  0.3701 -1.3412 -0.9250
 4511TIP3    H235025   3.911   0.020   5.596 -0.5196 -1.4776 -0.2469
 4512TIP3   OH235026   3.709   4.196   5.280 -0.8072 -0.1838 -0.2652
 4512TIP3    H135027   3.690   4.169   5.370 -0.4736 -0.5790 -0.3090
 4512TIP3    H235028   3.693   4.118   5.227 -1.9160  0.3093 -0.6770
 4513TIP3   OH235029   3.740   0.589  15.879 -0.1044 -0.0390 -0.0066
 4513TIP3    H135030   3.732   0.645  15.956  1.1649  1.1674 -0.6997
 4513TIP3    H235031   3.674   0.521  15.891 -1.1831  1.1837  1.2365
 4514TIP3   OH235032   5.267   0.558   1.169  0.1016  0.5270  0.3912
 4514TIP3    H135033   5.355   0.536   1.200  0.9967  1.3806 -1.4168
 4514TIP3    H235034   5.271   0.544   1.074 -2.0140 -0.3281  0.3782
 4515TIP3   OH235035   1.764   6.392   2.346 -0.2726 -0.6637 -0.1812
 4515TIP3    H135036   1.691   6.420   2.402  0.8836  1.2451  0.4733
 4515TIP3    H235037   1.835   6.373   2.408  1.1761  1.9134 -0.9061
 4516TIP3   OH235038   1.195   1.476   2.215  0.1987  0.7662 -0.5136
 4516TIP3    H135039   1.151   1.548   2.169  0.4085  1.4511  0.3441
 4516TIP3    H235040   1.256   1.519   2.275 -1.7750 -0.0018  2.1960
 4517TIP3   OH235041   2.023   5.368   0.887  0.6988 -0.1042  0.5062
 4517TIP3    H135042   1.979   5.351   0.971 -2.3480  1.4530 -0.6054
 4517TIP3    H235043   1.973   5.316   0.823  0.2781  1.8711 -0.8621
 4518TIP3   OH235044   2.412   3.257   4.122 -0.1260 -0.2235  0.6320
 4518TIP3    H135045   2.397   3.348   4.097  0.0442  0.1355  1.7680
 4518TIP3    H235046   2.326   3.216   4.117 -0.0062 -0.3308 -1.0811
 4519TIP3   OH235047   2.993   5.979   5.658 -0.0830 -0.6072 -0.3230
 4519TIP3    H135048   3.019   5.894   5.623  1.8549 -0.9260  1.6495
 4519TIP3    H235049   2.958   5.959   5.745  1.9093  0.6761  0.8524
 4520TIP3   OH235050   5.744   5.224   2.518  0.2287  0.1509 -0.1244
 4520TIP3    H135051   5.771   5.161   2.584 -2.2036 -0.2865  0.5421
 4520TIP3    H235052   5.813   5.290   2.518  1.2570 -0.8599  1.4278
 4521TIP3   OH235053   3.919   5.027  14.677 -0.2981  0.0336 -0.5621
 4521TIP3    H135054   3.929   4.946  14.628  0.2447  0.6139 -1.4221
 4521TIP3    H235055   3.825   5.047  14.673 -0.5531 -0.9089  0.2632
 4522TIP3   OH235056   4.778   4.669  11.907  0.3637 -0.0317 -0.3886
 4522TIP3    H135057   4.818   4.724  11.974  2.4291  0.0988 -1.6055
 4522TIP3    H235058   4.847   4.606  11.885 -0.5938 -0.6703 -1.6803
 4523TIP3   OH235059   5.303   0.414   4.979  0.1767  0.1873  0.2848
 4523TIP3    H135060   5.378   0.374   5.023 -1.2829 -0.4278  2.3772
 4523TIP3    H235061   5.271   0.480   5.041  0.5685  2.3863 -1.7175
 4524TIP3   OH235062   0.302   6.198   3.462  0.0063  0.7062 -0.5558
 4524TIP3    H135063   0.381   6.144   3.459  1.0207  1.9955  1.0491
 4524TIP3    H235064   0.334   6.288   3.456 -1.3356  1.2586  0.1139
 4525TIP3   OH235065   1.191   4.151   3.562 -0.7335  0.2319 -0.0558
 4525TIP3    H135066   1.242   4.156   3.643 -0.3218 -0.2819 -0.2766
 4525TIP3    H235067   1.243   4.095   3.504 -2.3129 -1.7236  0.2959
 4526TIP3   OH235068   3.837   4.792   0.356 -0.6035  0.2800  0.3966
 4526TIP3    H135069   3.815   4.746   0.275  0.2024 -1.4970  1.1304
 4526TIP3    H235070   3.830   4.885   0.334 -0.9569 -0.1675 -1.5399
 4527TIP3   OH235071   5.223   5.738  12.677 -0.0016 -0.1171 -0.3222
 4527TIP3    H135072   5.282   5.688  12.733 -0.7841  1.4872  2.0593
 4527TIP3    H235073   5.135   5.712  12.705 -0.4250  2.0759  0.5680
 4528TIP3   OH235074   3.140   0.010  12.442 -0.5840 -0.1237  0.5454
 4528TIP3    H135075   3.088  -0.007  12.363 -1.2763  0.5268  0.8501
 4528TIP3    H235076   3.159   0.104  12.439  1.6852 -0.5413 -0.2044
 4529TIP3   OH235077   0.497   6.603  11.638  0.2676 -0.3944  0.4934
 4529TIP3    H135078   0.540   6.534  11.589  0.9949  1.1866 -1.2436
 4529TIP3    H235079   0.419   6.624  11.586  0.0524  0.0606  0.9948
 4530TIP3   OH235080   5.497   3.755  11.059 -0.1755 -0.1386 -0.3491
 4530TIP3    H135081   5.517   3.818  10.990  0.5331  0.7422  0.6295
 4530TIP3    H235082   5.503   3.805  11.141  3.1982 -1.9725  0.7437
 4531TIP3   OH235083   6.289   6.798  15.491 -0.3581 -0.4453 -0.0434
 4531TIP3    H135084   6.360   6.809  15.554 -1.6866  0.1952  1.4079
 4531TIP3    H235085   6.329   6.815  15.406  0.8294  1.6860  0.8798
 4532TIP3   OH235086   4.793   5.656   5.698 -0.2539  0.0915 -0.0785
 4532TIP3    H135087   4.842   5.685   5.775 -1.5868 -0.3588  0.9676
 4532TIP3    H235088   4.827   5.710   5.627  2.6297 -1.0139  0.3193
 4533TIP3   OH235089   0.424   2.024   6.205 -0.5306  0.1725  0.3370
 4533TIP3    H135090   0.499   2.080   6.188  0.2908 -0.5733  1.4138
 4533TIP3    H235091   0.368   2.074   6.264 -0.7782  0.6337 -0.2801
 4534TIP3   OH235092   0.553   0.384  17.014 -0.2774  0.1298  0.0487
 4534TIP3    H135093   0.476   0.346  17.057  0.1576 -1.2653 -0.3756
 4534TIP3    H235094   0.554   0.346  16.927  0.6490  0.4788 -0.1060
 4535TIP3   OH235095   3.474   5.237   5.958  0.2916  0.5585 -0.2659
 4535TIP3    H135096   3.541   5.270   6.017 -0.5525  0.1401  0.9692
 4535TIP3    H235097   3.523   5.199   5.885  1.4041  0.1190  0.6783
 4536TIP3   OH235098   0.508   4.384   5.044  0.2491  0.4350 -0.4740
 4536TIP3    H135099   0.492   4.423   5.130  0.6334  0.1937 -0.2946
 4536TIP3    H235100   0.424   4.344   5.020 -0.3802  1.9645 -0.9777
 4537TIP3   OH235101   6.231   5.894   3.082  0.6006  0.5035 -0.5667
 4537TIP3    H135102   6.245   5.862   2.993 -0.7319  0.7644 -0.8928
 4537TIP3    H235103   6.153   5.847   3.113 -0.0288  1.7239 -0.2245
 4538TIP3   OH235104   0.991   0.762  10.657 -0.0089  0.0427  0.2678
 4538TIP3    H135105   0.948   0.734  10.738  0.4545 -0.5090  0.3394
 4538TIP3    H235106   1.084   0.770  10.681  0.2518 -0.8191 -0.3564
 4539TIP3   OH235107   4.598   5.600  16.322 -0.3019  0.0449  0.1349
 4539TIP3    H135108   4.520   5.560  16.283 -0.9436 -0.7205  2.0817
 4539TIP3    H235109   4.564   5.660  16.388  0.7595  0.6186  0.1910
 4540TIP3   OH235110   1.537   6.272   1.353 -0.5067 -0.0421 -0.3898
 4540TIP3    H135111   1.612   6.213   1.353 -1.1017 -0.8201 -0.2945
 4540TIP3    H235112   1.571   6.353   1.391  0.0530 -0.6932  0.5585
 4541TIP3   OH235113   1.375   0.852  14.212  0.5931  0.4597  0.7172
 4541TIP3    H135114   1.451   0.800  14.237 -0.7161 -0.6943  2.5481
 4541TIP3    H235115   1.333   0.875  14.295 -1.3504  0.5929 -0.2343
 4542TIP3   OH235116   2.346   5.440  15.617 -0.6257 -0.2749 -0.0028
 4542TIP3    H135117   2.395   5.364  15.587 -1.0326 -0.5917  0.1293
 4542TIP3    H235118   2.266   5.440  15.563 -1.1696 -0.6137  0.7942
 4543TIP3   OH235119   5.336   1.918  16.159  0.0664 -0.1825  0.5444
 4543TIP3    H135120   5.323   2.013  16.156 -0.5854 -0.2524  0.8905
 4543TIP3    H235121   5.409   1.901  16.100 -1.4008  0.2510 -1.4793
 4544TIP3   OH235122   0.411   3.447   4.881  0.8781  0.2470 -0.0327
 4544TIP3    H135123   0.505   3.427   4.874  1.1576  1.0770  1.0756
 4544TIP3    H235124   0.401   3.484   4.969 -0.7031 -0.8923  0.2934
 4545TIP3   OH235125   3.315   1.482   3.873 -0.2868 -0.6035  0.3128
 4545TIP3    H135126   3.300   1.576   3.871 -1.3645 -0.7542  0.8195
 4545TIP3    H235127   3.388   1.471   3.935 -0.8979 -0.1797  1.1376
 4546TIP3   OH235128   3.192   4.366   4.317 -0.8745 -0.2943 -0.0541
 4546TIP3    H135129   3.235   4.355   4.402  0.3875  0.5808 -0.5402
 4546TIP3    H235130   3.231   4.297   4.262 -0.6903 -0.0250 -0.2676
 4547TIP3   OH235131   6.746   6.633   5.134  0.7442 -0.0669  0.1191
 4547TIP3    H135132   6.660   6.608   5.168 -0.0205 -0.3985 -1.8986
 4547TIP3    H235133   6.807   6.606   5.202 -0.7384  0.3348  1.6926
 4548TIP3   OH235134   2.819   2.441  10.653 -0.5999 -0.1862  0.3157
 4548TIP3    H135135   2.886   2.453  10.721 -0.3806  0.8706 -0.0604
 4548TIP3    H235136   2.805   2.347  10.650  1.7525 -0.5751 -0.4091
 4549TIP3   OH235137   4.700   4.945  12.258 -0.3882 -0.4000  0.1475
 4549TIP3    H135138   4.631   4.980  12.314  1.0323 -1.0839  2.4560
 4549TIP3    H235139   4.753   5.021  12.235  1.9504 -0.6035  4.0765
 4550TIP3   OH235140   0.299   1.909   2.188  0.1260 -0.0372 -0.2112
 4550TIP3    H135141   0.204   1.919   2.191 -0.0036 -1.0129 -0.4874
 4550TIP3    H235142   0.333   1.994   2.215 -0.8210 -0.2560  1.8349
 4551TIP3   OH235143   1.325   1.098   0.789 -0.3735  0.6092 -0.1469
 4551TIP3    H135144   1.409   1.094   0.835 -0.7581 -1.0998  0.4634
 4551TIP3    H235145   1.342   1.057   0.704 -0.4412  0.8483 -0.2767
 4552TIP3   OH235146   5.951   0.922  13.779  0.4550 -0.5118 -0.5407
 4552TIP3    H135147   5.895   0.940  13.703 -1.1537 -0.4709  0.6055
 4552TIP3    H235148   6.040   0.932  13.746 -0.1289 -2.1142 -2.8326
 4553TIP3   OH235149   6.739   6.050  14.734 -0.3050  0.3384  0.1513
 4553TIP3    H135150   6.751   6.093  14.649 -0.8864 -0.0935 -0.1593
 4553TIP3    H235151   6.655   6.082  14.766  0.5263  1.5422  1.2084
 4554TIP3   OH235152   4.199   6.220  12.792  0.0448 -0.0690 -0.0933
 4554TIP3    H135153   4.221   6.220  12.698  0.8166 -0.9824  0.0644
 4554TIP3    H235154   4.214   6.129  12.819 -2.8220 -0.5043  0.3300
 4555TIP3   OH235155   4.036   3.708  14.442 -0.5995  0.5671  0.4629
 4555TIP3    H135156   3.966   3.647  14.421  0.3882 -0.3471 -0.3406
 4555TIP3    H235157   4.115   3.665  14.409  0.0734  2.5332 -0.6628
 4556TIP3   OH235158   3.818   0.813  13.366 -0.1725  0.3741 -0.5720
 4556TIP3    H135159   3.762   0.745  13.402  2.7450 -1.8531  0.1510
 4556TIP3    H235160   3.871   0.842  13.440  1.3233  0.5787 -1.6847
 4557TIP3   OH235161   1.758   1.255  13.300  0.1641 -0.0231  0.0868
 4557TIP3    H135162   1.781   1.271  13.209  0.6917 -0.1127  0.2028
 4557TIP3    H235163   1.752   1.160  13.308  2.1403 -0.1448  0.6140
 4558TIP3   OH235164   3.543   5.374   3.866  0.2437 -0.0281  0.1328
 4558TIP3    H135165   3.605   5.316   3.822 -1.0336 -1.7468  0.5144
 4558TIP3    H235166   3.482   5.400   3.796  0.8898  1.0469 -0.0709
 4559TIP3   OH235167   3.432   5.411   2.624 -0.7371 -0.5101 -0.2051
 4559TIP3    H135168   3.427   5.465   2.545  1.5665 -1.4952 -1.0922
 4559TIP3    H235169   3.413   5.322   2.594  2.5721 -1.3148 -0.2337
 4560TIP3   OH235170   4.771   3.110   1.039  0.6733  0.3854  0.0251
 4560TIP3    H135171   4.844   3.172   1.050  0.8863  0.5952 -2.0540
 4560TIP3    H235172   4.779   3.081   0.948  0.1816 -2.2378  0.7326
 4561TIP3   OH235173   0.964   5.329  11.929  0.2036  0.4532 -0.1710
 4561TIP3    H135174   0.973   5.279  12.010  2.3894 -1.0664 -1.2582
 4561TIP3    H235175   1.050   5.367  11.914 -0.3380  1.2364 -1.4634
 4562TIP3   OH235176   1.352   2.450  12.566 -0.0182 -0.1219  0.2731
 4562TIP3    H135177   1.284   2.507  12.530  0.2661 -0.9896 -1.7151
 4562TIP3    H235178   1.331   2.363  12.533  0.8352 -0.8092  1.4471
 4563TIP3   OH235179   0.277   5.873  11.625 -0.1411 -0.5117 -0.8065
 4563TIP3    H135180   0.280   5.779  11.643 -0.8423 -0.5393 -0.8133
 4563TIP3    H235181   0.203   5.884  11.565 -1.1735  0.2430  0.5351
 4564TIP3   OH235182   5.120   2.324   3.641  0.2340 -0.1673 -0.1383
 4564TIP3    H135183   5.214   2.331   3.657  0.3238 -0.2475 -0.6213
 4564TIP3    H235184   5.110   2.245   3.588 -0.1898 -0.5914  0.5544
 4565TIP3   OH235185   3.275   0.192  16.034 -1.0199  0.5475  0.0465
 4565TIP3    H135186   3.351   0.243  16.060 -0.9600  0.6992 -0.4120
 4565TIP3    H235187   3.245   0.234  15.953 -1.3795  0.2772  0.0377
 4566TIP3   OH235188   3.250   1.149   3.211 -0.4937 -0.1147 -0.0083
 4566TIP3    H135189   3.219   1.238   3.228 -1.8939 -0.5705 -0.0480
 4566TIP3    H235190   3.235   1.103   3.294 -1.6845 -0.8030 -0.5728
 4567TIP3   OH235191   4.948   6.001   3.480  0.5283 -0.0607  0.0465
 4567TIP3    H135192   5.003   6.054   3.538  1.8357 -1.7768  0.4685
 4567TIP3    H235193   5.007   5.975   3.408 -0.4063  0.0472 -0.7801
 4568TIP3   OH235194   2.944   6.519   4.996 -0.1050 -0.1550  0.1825
 4568TIP3    H135195   2.918   6.502   5.086 -1.9989  0.4457 -0.2122
 4568TIP3    H235196   2.871   6.568   4.958  0.7571 -0.1628 -1.6115
 4569TIP3   OH235197   1.565   3.073   3.769 -0.3205 -0.1176 -0.4153
 4569TIP3    H135198   1.645   3.059   3.819 -1.6867  1.0675  2.2770
 4569TIP3    H235199   1.504   3.006   3.801 -1.3408  0.8878 -0.1702
 4570TIP3   OH235200   4.470   0.583  17.153  0.4452  0.1813  0.4877
 4570TIP3    H135201   4.517   0.501  17.135 -0.6561 -0.6667  1.3040
 4570TIP3    H235202   4.390   0.576  17.101  1.2097  1.6640 -0.9879
 4571TIP3   OH235203   2.814   0.376   5.671  0.1882  0.2494  0.2128
 4571TIP3    H135204   2.829   0.282   5.655 -0.3919  0.2521 -0.3855
 4571TIP3    H235205   2.902   0.413   5.680  0.4455 -0.2495 -0.1842
 4572TIP3   OH235206   0.411   6.019   5.842 -0.3130 -0.0967  0.0420
 4572TIP3    H135207   0.363   5.939   5.864  0.8162 -1.6283 -2.6282
 4572TIP3    H235208   0.499   6.005   5.876 -0.0422 -0.1055 -0.6547
 4573TIP3   OH235209   2.301   1.118   4.126 -0.1951 -0.4043  0.2849
 4573TIP3    H135210   2.352   1.069   4.061  0.2247  0.2906  0.0791
 4573TIP3    H235211   2.212   1.117   4.091 -0.1215 -0.6983  0.0970
 4574TIP3   OH235212   6.280   0.664  14.246  0.3944 -0.2858 -0.0007
 4574TIP3    H135213   6.203   0.636  14.197 -0.2683  1.6107 -0.1463
 4574TIP3    H235214   6.316   0.584  14.283 -0.9324 -1.3657 -0.9462
 4575TIP3   OH235215   6.434   0.389   3.899 -0.1473 -0.5391  0.0099
 4575TIP3    H135216   6.385   0.355   3.824  1.1089  0.1986 -1.1991
 4575TIP3    H235217   6.440   0.315   3.959  0.8526 -1.9274 -1.6971
 4576TIP3   OH235218   4.451   1.572  10.997 -0.1994  1.1146 -0.0163
 4576TIP3    H135219   4.436   1.537  10.909 -0.9218  1.2319  0.0550
 4576TIP3    H235220   4.485   1.660  10.982 -0.0557  1.0324 -0.1790
 4577TIP3   OH235221   5.583   4.217   1.226 -0.5311  0.4401 -0.0852
 4577TIP3    H135222   5.489   4.237   1.218 -0.7833 -0.7107 -0.2579
 4577TIP3    H235223   5.600   4.218   1.320 -0.8530  0.0955 -0.0214
 4578TIP3   OH235224   5.657   0.368   0.982 -0.0197  0.4716 -0.2018
 4578TIP3    H135225   5.688   0.336   0.898  1.3595 -0.4209  0.6075
 4578TIP3    H235226   5.603   0.298   1.017  1.0539 -0.0307  0.5155
 4579TIP3   OH235227   1.781   6.653  11.316  0.0543  0.0415 -0.2050
 4579TIP3    H135228   1.850   6.665  11.381 -0.8150 -1.4383  1.0748
 4579TIP3    H235229   1.726   6.583  11.352 -0.5226 -0.7909 -2.4987
 4580TIP3   OH235230   1.825   1.368  10.678  0.0978  0.4333  0.0443
 4580TIP3    H135231   1.738   1.406  10.664  0.1355  0.5001 -0.0069
 4580TIP3    H235232   1.811   1.301  10.746  0.1009  0.7884  0.3986
 4581TIP3   OH235233   2.723   0.357   1.937  0.0811  0.4491  0.1857
 4581TIP3    H135234   2.815   0.348   1.914  0.0917  0.5414  0.1903
 4581TIP3    H235235   2.718   0.441   1.983 -0.8034  2.9856 -4.0165
 4582TIP3   OH235236   1.660   4.337   3.427  0.4480 -0.1144 -0.1414
 4582TIP3    H135237   1.657   4.428   3.457  1.9399 -0.2956  0.6405
 4582TIP3    H235238   1.726   4.337   3.359  0.0656 -0.5266 -0.5146
 4583TIP3   OH235239   6.061   3.276  15.562  0.1641  0.4188  0.3445
 4583TIP3    H135240   6.080   3.182  15.553 -0.0064  0.6117 -3.1264
 4583TIP3    H235241   6.135   3.319  15.520 -1.2136  1.6982 -0.8589
 4584TIP3   OH235242   5.400   0.710   2.446  0.1424 -0.4023 -0.3904
 4584TIP3    H135243   5.312   0.741   2.465  1.0227  1.1083  1.5965
 4584TIP3    H235244   5.403   0.621   2.481  0.2510  0.6275  2.4681
 4585TIP3   OH235245   6.088   5.186  14.422  0.4580 -0.5705  0.1802
 4585TIP3    H135246   6.065   5.234  14.342  0.3390 -0.0316  0.5297
 4585TIP3    H235247   6.005   5.173  14.467  0.5553 -0.6514  0.3363
 4586TIP3   OH235248   0.580   1.888  13.794 -0.0233  0.1525  0.1209
 4586TIP3    H135249   0.507   1.828  13.781 -1.0207  1.6695 -1.7056
 4586TIP3    H235250   0.645   1.862  13.728  0.5271 -0.3287  0.8368
 4587TIP3   OH235251   6.729   6.634  16.654 -0.7741 -0.5154 -0.0462
 4587TIP3    H135252   6.741   6.727  16.671 -1.2261 -0.5937  0.7705
 4587TIP3    H235253   6.654   6.630  16.595 -0.5298 -0.3443 -0.3683
 4588TIP3   OH235254   3.014   5.252   5.721  0.8393 -0.6845 -0.1220
 4588TIP3    H135255   2.923   5.260   5.751  0.3819 -2.4557 -0.8886
 4588TIP3    H235256   3.066   5.267   5.800 -0.1354 -0.2175  0.4517
 4589TIP3   OH235257   0.174   2.155   2.260  0.1081 -0.4681 -0.2482
 4589TIP3    H135258   0.199   2.202   2.339 -2.2345  1.3371 -0.4774
 4589TIP3    H235259   0.105   2.208   2.221 -0.7209 -2.7166 -2.0715
 4590TIP3   OH235260   3.824   5.133  15.111 -0.2843  0.2571  0.0003
 4590TIP3    H135261   3.844   5.059  15.053 -0.6838  0.6118 -0.5952
 4590TIP3    H235262   3.729   5.139  15.110 -0.2805  0.4457  0.4746
 4591TIP3   OH235263   0.394   1.757  12.964 -0.3919  0.3185 -0.2855
 4591TIP3    H135264   0.394   1.699  13.040 -1.6631  2.2353  1.2513
 4591TIP3    H235265   0.389   1.697  12.889  0.3905 -1.6076  1.1113
 4592TIP3   OH235266   1.232   2.153   1.537 -0.5279  0.0651  0.2483
 4592TIP3    H135267   1.327   2.161   1.534 -0.5347  0.9564  1.5681
 4592TIP3    H235268   1.213   2.067   1.499  0.7927 -0.0935 -0.0689
 4593TIP3   OH235269   0.359   6.519  14.858 -0.2444 -0.1556 -0.0504
 4593TIP3    H135270   0.324   6.482  14.938  0.6874  0.7097  0.7827
 4593TIP3    H235271   0.291   6.505  14.793 -2.1719  1.4738  1.4978
 4594TIP3   OH235272   3.984   0.524  16.842 -0.6734 -0.8084  0.2174
 4594TIP3    H135273   4.042   0.487  16.908  2.2428  1.3378 -0.9760
 4594TIP3    H235274   3.950   0.604  16.881 -0.6887 -0.6744 -0.0647
 4595TIP3   OH235275   0.375   2.506   1.476 -0.0206 -0.5094  0.3440
 4595TIP3    H135276   0.395   2.546   1.561 -1.5754  1.2159 -0.0402
 4595TIP3    H235277   0.332   2.423   1.498 -1.1309  0.2890  1.2882
 4596TIP3   OH235278   4.852   2.422   3.195  0.5874 -0.6706  0.2371
 4596TIP3    H135279   4.897   2.339   3.209  1.2400 -0.2720  0.5841
 4596TIP3    H235280   4.891   2.458   3.115  2.5291  0.6834  1.6629
 4597TIP3   OH235281   5.993   4.469  15.357  0.2793 -0.2560 -0.6788
 4597TIP3    H135282   6.067   4.409  15.345  0.0666 -0.8880  0.9361
 4597TIP3    H235283   5.967   4.493  15.268  0.8157 -2.0122 -1.3554
 4598TIP3   OH235284   2.641   3.349  16.937  0.1419 -0.0179 -0.2499
 4598TIP3    H135285   2.665   3.304  16.856 -0.6232  0.0321 -0.5134
 4598TIP3    H235286   2.547   3.366  16.928  0.5257  2.3724 -0.5530
 4599TIP3   OH235287   6.166   2.066  11.110 -0.3937  0.1359 -0.7344
 4599TIP3    H135288   6.130   2.017  11.037 -0.2305  0.3606 -0.9708
 4599TIP3    H235289   6.094   2.076  11.172 -0.0546 -1.6540 -0.0082
 4600TIP3   OH235290   3.606   3.655  16.182 -0.1292  0.2656  0.3581
 4600TIP3    H135291   3.680   3.713  16.164 -0.7138  0.1413 -3.2602
 4600TIP3    H235292   3.530   3.704  16.150 -1.0499 -1.2395  0.1666
 4601TIP3   OH235293   2.835   4.425  11.413 -0.1974 -0.1152 -0.5826
 4601TIP3    H135294   2.836   4.488  11.341  0.0820  0.7661  0.1726
 4601TIP3    H235295   2.748   4.433  11.450 -0.5698 -1.0470 -1.2082
 4602TIP3   OH235296   5.801   3.445  13.872  0.5274  0.6734 -0.2666
 4602TIP3    H135297   5.768   3.531  13.901 -0.0762  0.1497  0.6381
 4602TIP3    H235298   5.872   3.425  13.933  0.2604  0.2553 -0.0884
 4603TIP3   OH235299   1.658   2.965   2.668 -0.2434 -0.5129 -0.3687
 4603TIP3    H135300   1.674   2.901   2.737  1.4926  0.1595 -0.1174
 4603TIP3    H235301   1.613   3.038   2.712 -0.2641 -0.6181 -0.2159
 4604TIP3   OH235302   1.591   1.227  12.801 -0.1346 -0.4633  0.0793
 4604TIP3    H135303   1.579   1.294  12.734  0.1800  1.9819  2.3232
 4604TIP3    H235304   1.685   1.213  12.805 -0.1646 -0.7214 -0.0719
 4605TIP3   OH235305   4.372   5.658   5.119  0.3117 -0.1588  0.2956
 4605TIP3    H135306   4.365   5.704   5.202  0.0111  0.6309 -0.1580
 4605TIP3    H235307   4.451   5.694   5.077 -0.5739  0.8389 -0.5798
 4606TIP3   OH235308   0.802   5.381  12.603  0.4005 -0.2047 -0.1299
 4606TIP3    H135309   0.838   5.296  12.575  0.7060 -0.1947  0.2220
 4606TIP3    H235310   0.718   5.388  12.556  0.9406 -0.1369 -1.1243
 4607TIP3   OH235311   4.040   3.732   5.231  0.3873  0.4221 -0.1911
 4607TIP3    H135312   3.956   3.777   5.235  1.2927  2.1104  1.0181
 4607TIP3    H235313   4.102   3.798   5.199  1.0482 -1.1711 -2.4114
 4608TIP3   OH235314   3.745   5.727   1.425  0.1965 -0.0532  0.0861
 4608TIP3    H135315   3.753   5.635   1.449 -0.3947  0.1131  0.9723
 4608TIP3    H235316   3.783   5.733   1.337 -0.6553 -1.3416 -0.4000
 4609TIP3   OH235317   3.235   1.040   4.994  0.1893 -0.3141  0.5614
 4609TIP3    H135318   3.217   1.131   4.970 -0.5687 -0.7727 -0.6789
 4609TIP3    H235319   3.309   1.014   4.939  0.6744 -0.3486  1.2059
 4610TIP3   OH235320   5.288   5.030   1.110  0.2387 -0.0623 -0.6013
 4610TIP3    H135321   5.344   5.071   1.043 -0.3098 -0.4586 -1.3082
 4610TIP3    H235322   5.350   5.004   1.179  0.7989  0.4445 -0.8958
 4611TIP3   OH235323   2.915   2.931  14.130 -0.3543 -0.5441  0.1275
 4611TIP3    H135324   2.867   2.993  14.185 -1.2551 -1.3885  0.3185
 4611TIP3    H235325   2.873   2.939  14.044  1.0978  0.8270 -0.4971
 4612TIP3   OH235326   1.498   3.216   5.280 -0.1775 -0.2814 -0.0499
 4612TIP3    H135327   1.450   3.254   5.206 -1.2592 -1.0111  0.2515
 4612TIP3    H235328   1.530   3.291   5.329  0.2151  0.2154 -1.0433
 4613TIP3   OH235329   1.939   0.325  10.976  0.3445 -0.2526  0.1697
 4613TIP3    H135330   1.943   0.270  11.054 -1.6090  0.0930  0.5530
 4613TIP3    H235331   1.955   0.413  11.008 -0.9922 -0.0394  0.2935
 4614TIP3   OH235332   0.646   1.372   0.142  0.1310 -0.1094  0.0275
 4614TIP3    H135333   0.571   1.351   0.086  1.1539 -1.7421 -0.8088
 4614TIP3    H235334   0.719   1.384   0.081  1.2281 -1.7250  0.9617
 4615TIP3   OH235335   4.889   2.061   6.485 -0.3629 -0.1695  0.1641
 4615TIP3    H135336   4.856   1.984   6.439 -0.4665 -0.7651  1.1836
 4615TIP3    H235337   4.981   2.067   6.460 -0.1418 -1.1284  0.6961
 4616TIP3   OH235338   6.663   5.668  15.523  0.2781 -0.0767  0.2604
 4616TIP3    H135339   6.636   5.578  15.543  1.8867 -1.2158 -2.1338
 4616TIP3    H235340   6.751   5.658  15.485  0.0369  2.3665 -1.1316
 4617TIP3   OH235341   0.917   6.151   2.754  0.6093  0.4316  0.5105
 4617TIP3    H135342   0.967   6.223   2.794  1.7798  0.2091 -0.4894
 4617TIP3    H235343   0.979   6.078   2.752 -0.3886 -0.4566  0.9988
 4618TIP3   OH235344   6.747   5.289   3.396  0.0746 -0.2114 -0.2702
 4618TIP3    H135345   6.721   5.208   3.440 -1.3995  0.4119  0.0829
 4618TIP3    H235346   6.823   5.265   3.344 -1.9578 -2.5242 -2.4174
 4619TIP3   OH235347   0.931   5.122  17.246  0.0216  0.0463  0.4756
 4619TIP3    H135348   1.011   5.082  17.280 -0.6577 -0.3106  1.7179
 4619TIP3    H235349   0.957   5.210  17.219  0.9084 -0.2105  0.4728
 4620TIP3   OH235350   2.641   2.609   3.877  0.0977  0.3381  0.1172
 4620TIP3    H135351   2.690   2.545   3.928 -1.5466 -0.9790  0.1423
 4620TIP3    H235352   2.649   2.691   3.926  0.9301 -0.2141  0.9279
 4621TIP3   OH235353   5.521   5.507   0.386 -0.2538  0.7084  0.1212
 4621TIP3    H135354   5.486   5.490   0.474 -1.5412  0.5351 -0.4116
 4621TIP3    H235355   5.594   5.567   0.401 -0.7335  1.0360  1.2824
 4622TIP3   OH235356   6.335   4.369   1.751  0.3067  0.1007 -0.3013
 4622TIP3    H135357   6.393   4.439   1.778  0.2131  0.1645 -0.2635
 4622TIP3    H235358   6.255   4.413   1.723  0.1909  0.0023 -0.1337
 4623TIP3   OH235359   0.982   4.393   1.366 -0.3766  0.1190  0.1500
 4623TIP3    H135360   1.050   4.391   1.299  0.2115  0.6290  0.7129
 4623TIP3    H235361   1.029   4.406   1.448 -1.1635  0.7453  0.5272
 4624TIP3   OH235362   2.972   3.046   3.948  0.0191  0.3700 -0.7534
 4624TIP3    H135363   3.006   2.965   3.985 -0.4907  0.8538  0.8561
 4624TIP3    H235364   2.968   3.030   3.854  2.5021 -0.4958 -0.7835
 4625TIP3   OH235365   0.523   3.314  12.828  0.4875 -0.1076  0.2194
 4625TIP3    H135366   0.587   3.353  12.887 -0.2298 -1.3360  1.9036
 4625TIP3    H235367   0.446   3.300  12.883 -2.1749  3.3142 -2.1821
 4626TIP3   OH235368   1.548   3.744   5.896  0.5885  0.5973 -0.0230
 4626TIP3    H135369   1.599   3.821   5.923  2.4653 -0.6810  0.3204
 4626TIP3    H235370   1.557   3.742   5.800 -1.3397  1.9792 -0.2984
 4627TIP3   OH235371   4.470   6.041  13.526  0.1954 -0.0567 -0.4274
 4627TIP3    H135372   4.455   6.134  13.542  2.8104  0.0834  2.1858
 4627TIP3    H235373   4.397   5.997  13.570  0.5910  0.7388  1.0968
 4628TIP3   OH235374   4.761   1.130  16.130  0.0865 -0.0147  0.1396
 4628TIP3    H135375   4.697   1.077  16.082  2.3598 -1.8152 -1.1597
 4628TIP3    H235376   4.739   1.117  16.222 -0.6290 -1.7062 -0.2274
 4629TIP3   OH235377   2.060   5.114  17.077 -0.5857 -0.4200  0.0183
 4629TIP3    H135378   2.013   5.040  17.114 -2.1388  0.7226  0.4184
 4629TIP3    H235379   2.072   5.175  17.151  2.0602 -0.8777  0.0827
 4630TIP3   OH235380   2.298   0.193   4.544 -0.3302  0.1657  0.3347
 4630TIP3    H135381   2.293   0.101   4.518 -1.0618  0.8400 -2.1649
 4630TIP3    H235382   2.392   0.209   4.558 -0.3604 -1.6872  4.2148
 4631TIP3   OH235383   2.906   1.655  13.954 -0.0823  0.8324 -0.3877
 4631TIP3    H135384   2.930   1.705  13.876  0.8507 -0.5624 -1.0243
 4631TIP3    H235385   2.824   1.611  13.929  0.0270  0.6706 -0.4671
 4632TIP3   OH235386   0.758   4.517  15.450 -0.7452 -0.3026 -0.1031
 4632TIP3    H135387   0.822   4.536  15.519 -0.6620 -0.3898 -0.1563
 4632TIP3    H235388   0.808   4.472  15.382 -0.9609 -0.7944  0.0608
 4633TIP3   OH235389   1.100   0.588  17.087  0.2454 -0.3371 -0.0248
 4633TIP3    H135390   1.145   0.669  17.063  0.8855 -0.8297 -0.5006
 4633TIP3    H235391   1.165   0.538  17.137  0.9205 -1.8985 -2.3305
 4634TIP3   OH235392   1.858   2.515   0.459  0.2253  0.6204  0.8682
 4634TIP3    H135393   1.818   2.589   0.505  1.4720  0.7884  1.7406
 4634TIP3    H235394   1.905   2.468   0.528 -0.4953 -0.9547  0.3108
 4635TIP3   OH235395   6.273   4.051  12.136  0.1042 -0.3284 -0.3889
 4635TIP3    H135396   6.209   4.105  12.183  1.3100  0.1536  0.7454
 4635TIP3    H235397   6.257   4.071  12.044 -1.7092 -0.6095 -0.1706
 4636TIP3   OH235398   1.784   2.400   3.571 -0.1535  0.4616  0.1070
 4636TIP3    H135399   1.775   2.494   3.553 -0.7017  0.2070 -1.0404
 4636TIP3    H235400   1.878   2.388   3.586 -0.0718  1.1834  0.2468
 4637TIP3   OH235401   6.437   2.206  15.851  0.5314 -0.1849  0.1862
 4637TIP3    H135402   6.413   2.192  15.943 -2.0314  0.9707 -0.2239
 4637TIP3    H235403   6.531   2.187  15.848  0.6983 -0.2786  3.0267
 4638TIP3   OH235404   5.269   5.365  10.987 -0.6243 -0.0631  0.8963
 4638TIP3    H135405   5.296   5.374  10.896  0.5815 -1.5627  1.0759
 4638TIP3    H235406   5.178   5.395  10.988  0.1207  2.5760 -0.2501
 4639TIP3   OH235407   0.630   1.858  16.933  0.1976  0.2207 -0.1602
 4639TIP3    H135408   0.574   1.935  16.923  0.0089  0.1094  0.0262
 4639TIP3    H235409   0.641   1.824  16.844 -0.2392  0.0960 -0.1674
 4640TIP3   OH235410   1.378   4.610  16.438  0.2276  0.0285  0.0256
 4640TIP3    H135411   1.285   4.624  16.454 -0.0872 -0.6641 -1.1367
 4640TIP3    H235412   1.411   4.696  16.411  0.0253  0.3721  0.8514
 4641TIP3   OH235413   5.225   5.114   4.134  0.2926 -0.6718  0.6632
 4641TIP3    H135414   5.264   5.114   4.047  1.3239  0.1509  1.1011
 4641TIP3    H235415   5.201   5.206   4.149  2.5942 -0.2245  2.2649
 4642TIP3   OH235416   0.594   0.768   3.650 -0.4658  0.0889  0.0909
 4642TIP3    H135417   0.608   0.687   3.698 -0.4822  0.7046  1.1521
 4642TIP3    H235418   0.526   0.814   3.699  0.2466  1.1864  0.0740
 4643TIP3   OH235419   6.271   1.760   5.947 -0.1070  0.0701  0.3835
 4643TIP3    H135420   6.205   1.746   6.015 -1.1116 -0.5796 -0.7017
 4643TIP3    H235421   6.247   1.843   5.906 -0.2957 -0.2004 -0.0581
 4644TIP3   OH235422   2.007   5.465  14.243 -0.1321 -0.3222  0.0090
 4644TIP3    H135423   2.035   5.374  14.254 -2.8259 -1.2253 -0.0928
 4644TIP3    H235424   1.996   5.475  14.148  1.0347  0.4427 -0.0711
 4645TIP3   OH235425   0.550   2.445  16.777  0.1009  0.1377  0.3998
 4645TIP3    H135426   0.572   2.539  16.778 -2.3521  0.7889  0.4422
 4645TIP3    H235427   0.506   2.432  16.693  0.0511 -0.9047  0.5814
 4646TIP3   OH235428   3.365   2.809   5.554  0.1257  0.6203 -0.2989
 4646TIP3    H135429   3.281   2.825   5.598 -0.0816  3.4859 -1.4762
 4646TIP3    H235430   3.409   2.743   5.608 -1.9951  0.5998  1.5426
 4647TIP3   OH235431   1.314   2.417  14.655 -0.0664  0.7065 -0.4450
 4647TIP3    H135432   1.380   2.389  14.719  0.6831  0.0246 -1.4742
 4647TIP3    H235433   1.341   2.374  14.573 -2.2322 -0.2640 -0.7293
 4648TIP3   OH235434   4.737   6.210   2.790 -0.3448  0.2142  0.3051
 4648TIP3    H135435   4.804   6.143   2.780  1.2342  1.4727  1.8699
 4648TIP3    H235436   4.667   6.167   2.840 -0.4767 -0.9394 -0.8406
 4649TIP3   OH235437   3.436   5.875   4.984 -0.2356  0.3095  0.2046
 4649TIP3    H135438   3.510   5.918   5.027 -0.4931  0.7902  0.1769
 4649TIP3    H235439   3.361   5.894   5.041 -0.5339  0.7542 -0.3220
 4650TIP3   OH235440   2.451   4.668  12.364  0.4159  0.2207  0.3788
 4650TIP3    H135441   2.488   4.727  12.298  0.6697 -0.2930  0.0633
 4650TIP3    H235442   2.453   4.720  12.445  0.4057  0.7362  0.0540
 4651TIP3   OH235443   2.352   4.792   2.830 -0.3029 -0.2354  0.3003
 4651TIP3    H135444   2.289   4.808   2.900 -0.6464 -2.4450  0.5454
 4651TIP3    H235445   2.300   4.793   2.750 -0.5272 -1.2481  0.4266
 4652TIP3   OH235446   6.161   6.664   0.817 -0.4738  0.0220  0.6885
 4652TIP3    H135447   6.073   6.627   0.815 -1.2658  1.7957  0.1483
 4652TIP3    H235448   6.147   6.758   0.831  1.3613  0.2824  1.0693
 4653TIP3   OH235449   0.775   5.508   3.545 -0.3104 -0.3937 -0.2939
 4653TIP3    H135450   0.741   5.434   3.495 -0.6071 -0.1355 -0.4825
 4653TIP3    H235451   0.760   5.584   3.488 -0.7739 -0.0740  0.2418
 4654TIP3   OH235452   0.584   2.731   3.154 -0.1098  0.2356  0.0154
 4654TIP3    H135453   0.630   2.747   3.072 -1.4130 -2.6013 -1.4007
 4654TIP3    H235454   0.592   2.636   3.168 -2.1672  0.2543  1.7592
 4655TIP3   OH235455   6.537   3.375  14.936 -0.1636 -0.3326  0.0134
 4655TIP3    H135456   6.450   3.338  14.950  0.5729 -1.7432  1.1695
 4655TIP3    H235457   6.533   3.416  14.850 -1.6752 -1.2299 -0.3655
 4656TIP3   OH235458   0.925   5.210   2.976  0.1491  0.0819  0.3313
 4656TIP3    H135459   0.899   5.118   2.970 -1.8002  0.5403  1.0904
 4656TIP3    H235460   0.893   5.239   3.062 -0.5319  1.8400 -0.4639
 4657TIP3   OH235461   0.625   5.313   2.160  0.1544  0.0303 -0.4043
 4657TIP3    H135462   0.547   5.294   2.212  1.3716  0.7284  1.8518
 4657TIP3    H235463   0.626   5.408   2.152  0.8197  0.0373 -0.3038
 4658TIP3   OH235464   5.639   6.415   1.702 -0.6637 -0.2656 -0.2576
 4658TIP3    H135465   5.619   6.324   1.724 -3.1258  0.1589 -0.4135
 4658TIP3    H235466   5.734   6.422   1.710 -0.5075 -2.6100  0.6059
 4659TIP3   OH235467   3.711   1.671  12.771 -0.2767 -0.2692 -0.1863
 4659TIP3    H135468   3.657   1.738  12.729 -0.0944  0.7343  1.1311
 4659TIP3    H235469   3.649   1.603  12.797 -0.3709 -1.0609 -2.2443
 4660TIP3   OH235470   2.033   5.782   0.785 -0.1501 -0.5195  0.4137
 4660TIP3    H135471   2.004   5.766   0.874 -3.2237  0.9528 -0.1835
 4660TIP3    H235472   1.979   5.724   0.731  0.4517 -0.1582 -0.6157
 4661TIP3   OH235473   0.918   0.496  11.239  0.1403 -0.0957 -0.3537
 4661TIP3    H135474   0.941   0.500  11.331  1.1225 -1.1604 -0.5375
 4661TIP3    H235475   0.892   0.586  11.217  1.5971  0.5694  0.5142
 4662TIP3   OH235476   1.266   1.779   4.655 -0.2486 -0.6163  0.3773
 4662TIP3    H135477   1.219   1.861   4.646 -1.8087 -1.5633 -0.5248
 4662TIP3    H235478   1.284   1.751   4.566  1.2503 -0.7406  0.6917
 4663TIP3   OH235479   1.835   0.540  13.958 -0.2225 -0.0799  0.3348
 4663TIP3    H135480   1.874   0.499  13.881  0.0246  0.3006  0.2518
 4663TIP3    H235481   1.909   0.581  14.003 -0.5652  0.9812 -0.0303
 4664TIP3   OH235482   3.353   0.532   0.117 -0.1257 -0.3155 -0.5113
 4664TIP3    H135483   3.307   0.483   0.050  0.0142  0.3412 -1.1020
 4664TIP3    H235484   3.417   0.584   0.069 -1.5315  1.9083 -0.1660
 4665TIP3   OH235485   5.400   4.941  12.216  0.5617 -0.0972 -0.0035
 4665TIP3    H135486   5.476   4.998  12.204  0.7930 -0.1011  1.3312
 4665TIP3    H235487   5.403   4.881  12.142  0.4179  1.4950 -1.3537
 4666TIP3   OH235488   6.813   0.179  15.444  0.3303 -0.0058 -0.6427
 4666TIP3    H135489   6.883   0.243  15.456 -0.5802  1.0131 -0.6286
 4666TIP3    H235490   6.762   0.183  15.525  0.1963 -0.6658 -0.6926
 4667TIP3   OH235491   2.753   2.410  12.766  0.1358  0.2606  0.3823
 4667TIP3    H135492   2.766   2.373  12.853  0.4407 -1.2717 -0.2688
 4667TIP3    H235493   2.837   2.450  12.744  1.1202 -2.0408 -0.3778
 4668TIP3   OH235494   0.946   2.686  16.418 -0.3465 -0.4478  0.3861
 4668TIP3    H135495   0.864   2.636  16.417 -1.0006  0.4846  2.1818
 4668TIP3    H235496   1.007   2.632  16.469 -0.8306  0.1721  1.6904
 4669TIP3   OH235497   1.150   1.770   1.673  0.2736 -0.1878  0.0827
 4669TIP3    H135498   1.118   1.775   1.582  0.5873 -1.1411 -0.0872
 4669TIP3    H235499   1.212   1.698   1.673 -0.7336 -1.1059  1.3524
 4670TIP3   OH235500   6.614   5.130   0.299 -0.2497 -0.2022 -0.4469
 4670TIP3    H135501   6.662   5.213   0.296 -1.1205  0.2975 -2.8339
 4670TIP3    H235502   6.682   5.063   0.309  0.5741  0.6863  0.1249
 4671TIP3   OH235503   1.468   4.763   2.340  0.8446 -0.3532  0.5083
 4671TIP3    H135504   1.543   4.818   2.319 -0.5596  1.2562 -0.4321
 4671TIP3    H235505   1.401   4.786   2.276 -0.3926 -1.9318  1.1580
 4672TIP3   OH235506   2.471   4.028   2.132 -0.2985  0.0113  0.1319
 4672TIP3    H135507   2.469   4.111   2.085  0.1135  0.8965  1.6212
 4672TIP3    H235508   2.393   3.982   2.103 -0.9573  1.2510 -0.1286
 4673TIP3   OH235509   1.635   5.932  13.516 -0.3395  0.1893 -0.5539
 4673TIP3    H135510   1.648   6.027  13.519  0.0134  0.1483 -0.7189
 4673TIP3    H235511   1.707   5.900  13.461 -1.3184 -0.0133 -1.7659
 4674TIP3   OH235512   1.442   2.170   2.319 -0.7436 -0.0378 -0.0847
 4674TIP3    H135513   1.464   2.216   2.238  0.1021 -1.5072 -0.7379
 4674TIP3    H235514   1.524   2.165   2.367 -1.2533  0.8840  0.9317
 4675TIP3   OH235515   0.513   0.801  11.484 -0.0131 -0.7392  0.0766
 4675TIP3    H135516   0.497   0.738  11.553 -0.2879  0.0193  0.7224
 4675TIP3    H235517   0.450   0.778  11.415 -0.3590 -0.9324  0.4580
 4676TIP3   OH235518   5.455   4.525  16.502 -0.2299  0.2747  0.7327
 4676TIP3    H135519   5.455   4.621  16.510  0.5883  0.2301  1.3827
 4676TIP3    H235520   5.534   4.497  16.548 -2.2668 -1.0006  3.7231
 4677TIP3   OH235521   0.814   4.516   1.571  0.0509  0.1554  0.2643
 4677TIP3    H135522   0.848   4.519   1.661 -0.2436 -0.5354  0.4054
 4677TIP3    H235523   0.720   4.532   1.581  0.3131  2.3032 -0.1456
 4678TIP3   OH235524   5.322   3.264  14.045 -0.1324 -0.4478  0.6378
 4678TIP3    H135525   5.273   3.282  13.966 -0.8316 -0.5449  1.0434
 4678TIP3    H235526   5.275   3.309  14.115  1.4084  1.0493  0.7730
 4679TIP3   OH235527   3.733   1.213  15.858 -0.3864  0.0716 -0.6850
 4679TIP3    H135528   3.767   1.233  15.771  0.0106  2.3607 -0.0753
 4679TIP3    H235529   3.759   1.288  15.912 -0.7671 -1.2024  1.3754
 4680TIP3   OH235530   5.603   3.289  14.095 -0.3549  0.3324  0.0007
 4680TIP3    H135531   5.654   3.253  14.022 -0.5974 -2.2715  1.0095
 4680TIP3    H235532   5.513   3.264  14.075 -0.6464  1.0861  0.3668
 4681TIP3   OH235533   2.749   5.724  14.539  0.6600 -0.5175 -0.1482
 4681TIP3    H135534   2.663   5.698  14.506  0.1922 -0.1429  0.7438
 4681TIP3    H235535   2.748   5.699  14.632  1.1120  0.4561  0.1304
 4682TIP3   OH235536   3.100   1.483  12.638 -0.4049  0.2343 -0.1692
 4682TIP3    H135537   3.095   1.414  12.572 -0.5860  0.0537  0.0333
 4682TIP3    H235538   3.010   1.514  12.647  0.0355  2.3501 -2.2080
 4683TIP3   OH235539   0.172   2.538   3.669  0.1574  0.0992 -0.0563
 4683TIP3    H135540   0.261   2.518   3.698 -0.3318 -1.0665  0.6950
 4683TIP3    H235541   0.184   2.584   3.585  1.4300 -1.5217 -0.8310
 4684TIP3   OH235542   4.611   3.840  16.290 -0.0059  0.1587  0.7333
 4684TIP3    H135543   4.662   3.776  16.240  0.4147 -1.8081  3.4836
 4684TIP3    H235544   4.676   3.906  16.316 -0.0637  0.7373 -0.5055
 4685TIP3   OH235545   1.118   5.971   3.950  0.1265  0.1025  0.3946
 4685TIP3    H135546   1.055   6.042   3.964  0.0188 -0.0727  0.8176
 4685TIP3    H235547   1.064   5.895   3.927  0.2003  0.0159  0.5051
 4686TIP3   OH235548   1.964   0.823  15.496  0.5468 -0.0442  0.7264
 4686TIP3    H135549   2.011   0.799  15.416 -0.6785  0.2168 -0.0917
 4686TIP3    H235550   1.967   0.919  15.498 -2.3080  0.1893 -0.8785
 4687TIP3   OH235551   6.046   5.335  11.229  0.1917 -0.1259  0.2621
 4687TIP3    H135552   6.123   5.306  11.179 -0.0545 -0.2850 -0.0285
 4687TIP3    H235553   6.007   5.404  11.175  0.1881  0.0232  0.4576
 4688TIP3   OH235554   2.897   3.603  12.709 -0.3251  0.1827  0.0315
 4688TIP3    H135555   2.835   3.634  12.642  0.7511  0.2148 -0.9703
 4688TIP3    H235556   2.983   3.614  12.669  0.2987 -0.5139  1.1487
 4689TIP3   OH235557   2.156   1.634  14.070 -0.2314 -0.5230  0.2190
 4689TIP3    H135558   2.252   1.640  14.067 -0.1789 -1.3476 -1.4197
 4689TIP3    H235559   2.137   1.598  14.156  0.8006  1.1860  1.2265
 4690TIP3   OH235560   2.421   5.065  13.774 -0.7202  0.5777  0.2618
 4690TIP3    H135561   2.348   5.111  13.814 -0.3219 -0.3437  2.1414
 4690TIP3    H235562   2.482   5.048  13.846  1.4560  1.4352 -1.2409
 4691TIP3   OH235563   0.330   5.032  17.116  0.1420 -0.2918  0.3105
 4691TIP3    H135564   0.297   5.047  17.027 -1.4326  0.4786  0.9908
 4691TIP3    H235565   0.269   5.080  17.173  2.2278  0.9230  1.6806
 4692TIP3   OH235566   1.361   6.788  11.415 -0.1028  0.8342  0.4539
 4692TIP3    H135567   1.386   6.730  11.344 -2.0391  0.9513 -0.3897
 4692TIP3    H235568   1.328   6.866  11.372 -1.4632  0.8522  1.4505
 4693TIP3   OH235569   5.624   4.119  14.576  0.7011  0.0691  0.1142
 4693TIP3    H135570   5.579   4.042  14.611 -1.3232  1.0649 -0.1537
 4693TIP3    H235571   5.654   4.167  14.653 -0.8249  0.5796  0.4188
 4694TIP3   OH235572   0.837   4.065  15.347 -0.1173  0.3946 -0.3987
 4694TIP3    H135573   0.771   3.998  15.331 -0.0184 -0.3488  1.9013
 4694TIP3    H235574   0.812   4.138  15.292 -2.6188 -0.0409  0.0729
 4695TIP3   OH235575   5.269   1.180  15.520 -0.3988  0.1063 -0.1813
 4695TIP3    H135576   5.257   1.157  15.612  1.2794 -1.4039 -0.2884
 4695TIP3    H235577   5.324   1.259  15.522 -0.2314 -0.0161  0.1177
 4696TIP3   OH235578   5.897   1.898   3.441 -0.7122  0.0764  0.0625
 4696TIP3    H135579   5.942   1.955   3.379 -0.0281  1.7139  1.9515
 4696TIP3    H235580   5.837   1.955   3.488 -0.5018 -0.8859  1.5688
 4697TIP3   OH235581   0.816   4.708  11.913 -0.7694  0.0160  0.2953
 4697TIP3    H135582   0.892   4.655  11.887 -2.4602 -1.4468 -2.1140
 4697TIP3    H235583   0.769   4.653  11.977  0.0487  0.8546  1.6674
 4698TIP3   OH235584   4.499   5.001   5.715  0.3899 -0.5468  0.3278
 4698TIP3    H135585   4.555   5.074   5.689  1.2781 -1.6892 -1.1122
 4698TIP3    H235586   4.425   5.003   5.654 -0.5394  0.2166  1.4442
 4699TIP3   OH235587   4.409   0.394   2.088 -0.4298  0.0096  0.3263
 4699TIP3    H135588   4.332   0.361   2.041  0.2492  1.5542 -2.0359
 4699TIP3    H235589   4.391   0.488   2.100  0.3812  0.0632  1.2215
 4700TIP3   OH235590   4.411   3.622   2.200 -0.6848 -0.6957 -0.0648
 4700TIP3    H135591   4.351   3.601   2.128 -0.0795 -2.7390 -0.0370
 4700TIP3    H235592   4.354   3.645   2.273 -1.4012 -1.4564 -0.3701
 4701TIP3   OH235593   0.330   2.065  15.399  0.1743  0.1197 -0.2572
 4701TIP3    H135594   0.289   2.058  15.312 -0.2101 -0.5346 -0.0286
 4701TIP3    H235595   0.414   2.019  15.389  0.3155  0.4057 -0.3935
 4702TIP3   OH235596   4.013   4.475   0.507  0.3297 -0.0428  0.0719
 4702TIP3    H135597   4.104   4.487   0.534 -0.2031  0.2684  1.8742
 4702TIP3    H235598   3.962   4.488   0.587 -1.2913 -0.4805 -0.8335
 4703TIP3   OH235599   6.213   4.517   0.530  0.0601  0.2009 -0.1512
 4703TIP3    H135600   6.225   4.471   0.447 -1.5355 -0.0130 -0.2969
 4703TIP3    H235601   6.267   4.596   0.523  0.2896 -0.0431 -1.2007
 4704TIP3   OH235602   3.359   5.034   1.385 -0.0445 -0.1806 -0.1125
 4704TIP3    H135603   3.301   5.065   1.316 -0.3202 -0.3091  0.0596
 4704TIP3    H235604   3.432   4.993   1.338 -1.4495 -2.5739 -0.3660
 4705TIP3   OH235605   3.220   6.047  14.663 -0.1877 -0.0547  0.0803
 4705TIP3    H135606   3.148   5.990  14.637 -0.6901 -0.0613  1.4025
 4705TIP3    H235607   3.282   5.988  14.706  0.9618 -0.1660 -1.6320
 4706TIP3   OH235608   1.834   3.836  11.581  0.6179  0.5084  0.6166
 4706TIP3    H135609   1.883   3.886  11.516  0.3940  0.9812  0.8050
 4706TIP3    H235610   1.881   3.851  11.663  1.5770 -1.0048  0.3989
 4707TIP3   OH235611   2.817   4.158   3.869  0.0364 -0.2838  0.6993
 4707TIP3    H135612   2.910   4.161   3.847 -0.1981 -0.5619 -0.3575
 4707TIP3    H235613   2.788   4.070   3.844 -0.5549 -0.1399  0.8456
 4708TIP3   OH235614   0.502   4.848   3.628 -0.6815 -0.0587  0.2156
 4708TIP3    H135615   0.423   4.795   3.641 -0.7531  0.0160  0.0949
 4708TIP3    H235616   0.489   4.925   3.683  0.5051 -1.2698  2.3017
 4709TIP3   OH235617   0.985   1.491  13.198  0.1472 -0.4493 -0.7124
 4709TIP3    H135618   0.995   1.562  13.262  0.8831 -1.0634 -0.1403
 4709TIP3    H235619   0.895   1.502  13.165 -0.2084 -0.0682  0.3415
 4710TIP3   OH235620   6.240   3.098  13.491  0.1105  0.1590 -0.0196
 4710TIP3    H135621   6.172   3.032  13.505 -0.1925  0.1711 -1.2730
 4710TIP3    H235622   6.194   3.170  13.447  0.7850  0.4825 -0.1996
 4711TIP3   OH235623   1.660   2.965  11.666  0.2942  0.4729 -0.7524
 4711TIP3    H135624   1.680   2.957  11.572  2.1320  0.5909 -0.4017
 4711TIP3    H235625   1.621   2.880  11.689 -1.0546  0.7724 -1.7947
 4712TIP3   OH235626   3.363   5.253   4.491 -0.2945 -0.4166  0.0455
 4712TIP3    H135627   3.333   5.329   4.442  1.1540  0.0251 -0.2103
 4712TIP3    H235628   3.422   5.208   4.431  0.0211 -0.9136  0.7211
 4713TIP3   OH235629   5.583   0.977  12.080  0.2733  0.1574 -0.4357
 4713TIP3    H135630   5.652   1.012  12.025  0.6606 -0.9973 -0.7214
 4713TIP3    H235631   5.503   1.020  12.050  0.7558  0.9194 -0.6336
 4714TIP3   OH235632   6.487   4.738  11.372  0.1175  1.1603  0.4097
 4714TIP3    H135633   6.551   4.779  11.430  0.0754  1.2673  0.3806
 4714TIP3    H235634   6.402   4.766  11.406 -0.0360 -0.8908  1.9266
 4715TIP3   OH235635   3.360   5.849  14.813 -0.0674  0.6107 -0.0326
 4715TIP3    H135636   3.346   5.912  14.883 -0.0346 -0.5483  1.0407
 4715TIP3    H235637   3.453   5.827  14.818 -0.5130 -1.1538  1.0425
 4716TIP3   OH235638   3.482   1.140   0.879  0.3709 -0.5758 -0.4745
 4716TIP3    H135639   3.530   1.185   0.810  0.5250  0.8070  0.4772
 4716TIP3    H235640   3.535   1.156   0.958 -0.0345 -1.7179  0.0440
 4717TIP3   OH235641   0.130   2.660   5.408  0.6252  0.3200 -0.3120
 4717TIP3    H135642   0.062   2.707   5.360 -0.0061  0.1746  0.4320
 4717TIP3    H235643   0.126   2.695   5.497  0.7968 -0.4444  0.0053
 4718TIP3   OH235644   3.226   5.763   1.546  0.0968  0.3575 -0.3009
 4718TIP3    H135645   3.133   5.757   1.528  0.1465  1.3849 -0.9656
 4718TIP3    H235646   3.257   5.835   1.491  1.0925  0.6771  0.6391
 4719TIP3   OH235647   4.139   5.112  16.884  0.3810 -0.4205  0.4392
 4719TIP3    H135648   4.118   5.201  16.913  0.9595 -0.0319 -0.3161
 4719TIP3    H235649   4.057   5.080  16.847  0.0023 -0.4364  1.2522
 4720TIP3   OH235650   3.187   4.056  13.722  0.3157  0.7643 -0.6026
 4720TIP3    H135651   3.126   4.053  13.796  0.9815 -1.8572 -0.0417
 4720TIP3    H235652   3.219   4.146  13.721  1.9637  0.4632  3.8029
 4721TIP3   OH235653   0.490   4.826   4.047 -0.5294  0.1454  0.3018
 4721TIP3    H135654   0.582   4.853   4.038 -0.3763 -0.3596  0.3420
 4721TIP3    H235655   0.489   4.734   4.024 -1.2108  0.3917 -0.6938
 4722TIP3   OH235656   5.333   5.718   5.007 -0.1198  0.0868  0.1813
 4722TIP3    H135657   5.301   5.754   5.090  3.4219  0.1238  1.7176
 4722TIP3    H235658   5.289   5.769   4.940 -4.7419 -1.3014  1.7771
 4723TIP3   OH235659   0.006   0.232   0.364 -0.2114  0.1287 -0.8014
 4723TIP3    H135660  -0.063   0.272   0.418 -2.2940 -1.8968 -1.8103
 4723TIP3    H235661  -0.027   0.237   0.275  1.0873 -0.6801 -1.3569
 4724TIP3   OH235662   2.265   2.568  15.984 -0.2540 -0.1110  0.3385
 4724TIP3    H135663   2.278   2.480  16.018 -2.2793 -1.0577 -1.1257
 4724TIP3    H235664   2.254   2.556  15.890  0.6380  1.8773 -0.0734
 4725TIP3   OH235665   2.912   5.142  15.775 -0.2079 -0.0664  0.1805
 4725TIP3    H135666   2.965   5.064  15.758 -1.8925 -1.4023  0.7474
 4725TIP3    H235667   2.876   5.127  15.863 -3.3910 -0.4302 -1.0511
 4726TIP3   OH235668   0.634   1.743   2.369  0.5336 -0.4450  0.0566
 4726TIP3    H135669   0.562   1.736   2.307 -0.9150  0.7494  1.4769
 4726TIP3    H235670   0.591   1.765   2.452  2.4482 -1.0565  1.2686
 4727TIP3   OH235671   1.729   5.385  14.144  0.1984  0.6189 -0.3392
 4727TIP3    H135672   1.809   5.380  14.092 -0.7084 -0.1063 -1.7640
 4727TIP3    H235673   1.677   5.453  14.100 -0.0616  0.9222  0.4285
 4728TIP3   OH235674   2.759   4.649   3.363  0.0094 -0.0352 -0.1083
 4728TIP3    H135675   2.704   4.658   3.285 -0.6893  0.5988  0.4439
 4728TIP3    H235676   2.847   4.633   3.328  0.2619  2.9434 -1.1445
 4729TIP3   OH235677   3.738   2.726   1.297  0.4927  0.5524  0.0200
 4729TIP3    H135678   3.699   2.708   1.211 -0.1216 -1.9995  0.7647
 4729TIP3    H235679   3.668   2.769   1.346  1.8459  5.2712 -1.6401
 4730TIP3   OH235680   4.515   4.005   5.869 -0.2754  0.0312 -0.9589
 4730TIP3    H135681   4.498   4.068   5.939 -1.5150 -0.7514 -0.5085
 4730TIP3    H235682   4.526   3.922   5.915  2.4364  0.0295 -1.4448
 4731TIP3   OH235683   6.023   1.549   2.460  0.4999 -0.3092 -0.4423
 4731TIP3    H135684   5.934   1.583   2.448 -0.5902 -2.2143  1.7392
 4731TIP3    H235685   6.040   1.500   2.379 -0.6087 -0.3133 -0.6957
 4732TIP3   OH235686   2.155   6.106  15.603  1.2408  0.0998 -0.4705
 4732TIP3    H135687   2.099   6.096  15.526  0.6176 -2.5208  0.2177
 4732TIP3    H235688   2.093   6.119  15.675  1.5857 -0.7656  0.0040
 4733TIP3   OH235689   2.062   5.599  14.457  0.0911  0.0236 -0.2898
 4733TIP3    H135690   2.036   5.567  14.371  0.2422 -1.3481  0.1370
 4733TIP3    H235691   2.117   5.529  14.492  0.8893  1.0243  0.5010
 4734TIP3   OH235692   6.359   3.190  12.323 -0.1060 -0.5060 -0.1780
 4734TIP3    H135693   6.441   3.231  12.297 -0.3117  0.1784  0.2347
 4734TIP3    H235694   6.357   3.199  12.418 -0.4818 -0.8551 -0.1501
 4735TIP3   OH235695   2.899   5.544  14.963 -0.2147  0.3070 -0.4441
 4735TIP3    H135696   2.849   5.519  15.041  0.2719 -1.1058 -0.5552
 4735TIP3    H235697   2.988   5.560  14.996  0.0155 -0.3859 -0.7046
 4736TIP3   OH235698   4.186   5.387  11.251 -0.1768  0.0513  0.1642
 4736TIP3    H135699   4.138   5.413  11.172  0.8342  0.6262 -0.2872
 4736TIP3    H235700   4.167   5.294  11.262  0.9856 -0.4809 -1.7542
 4737TIP3   OH235701   5.096   2.066  16.685  0.0384 -0.4579  0.6277
 4737TIP3    H135702   5.166   2.104  16.739  0.8427 -0.0692 -0.6535
 4737TIP3    H235703   5.043   2.016  16.747  0.8505  0.0871  1.8027
 4738TIP3   OH235704   3.653   1.335  11.514 -0.1619 -1.0463 -0.5248
 4738TIP3    H135705   3.559   1.332  11.529  0.0498 -0.1373  1.3953
 4738TIP3    H235706   3.689   1.363  11.598  1.8980 -2.1433 -0.9747
 4739TIP3   OH235707   1.555   3.777   5.587 -0.1458 -0.3969 -0.2171
 4739TIP3    H135708   1.516   3.749   5.504  0.9006  1.4044 -1.3705
 4739TIP3    H235709   1.630   3.830   5.562  2.2749 -2.5404  1.9145
 4740TIP3   OH235710   5.704   1.719  15.918 -0.3935  0.0949 -0.3151
 4740TIP3    H135711   5.625   1.729  15.971  0.0392  1.3519  0.1157
 4740TIP3    H235712   5.692   1.635  15.873 -1.5349 -0.1838  0.4680
 4741TIP3   OH235713   1.140   6.210  15.419 -1.1948 -0.4169  0.2308
 4741TIP3    H135714   1.114   6.265  15.345 -0.4098  0.5641  0.6598
 4741TIP3    H235715   1.079   6.234  15.489 -1.5049 -0.8465  0.1090
 4742TIP3   OH235716   1.831   5.306  11.873 -0.1142  0.3794  0.0028
 4742TIP3    H135717   1.738   5.308  11.894 -0.1046  0.4806  0.0351
 4742TIP3    H235718   1.835   5.269  11.784 -0.1571 -0.0184  0.1661
 4743TIP3   OH235719   3.897   2.253   5.214 -0.6356 -0.5225 -0.0456
 4743TIP3    H135720   3.896   2.227   5.306 -1.7610  0.1511  0.1357
 4743TIP3    H235721   3.988   2.240   5.187 -0.6461 -2.3779  0.6788
 4744TIP3   OH235722   4.011   4.593   2.503 -0.2984 -0.0494  0.6560
 4744TIP3    H135723   4.015   4.676   2.456 -0.9472 -0.1008  0.5001
 4744TIP3    H235724   4.083   4.541   2.467 -0.2848  0.2133  0.3015
 4745TIP3   OH235725   5.409   1.205   0.053  0.0091 -0.4917  0.4140
 4745TIP3    H135726   5.398   1.134  -0.010  0.5387  0.1909 -0.4711
 4745TIP3    H235727   5.339   1.192   0.117 -0.8661 -0.8972 -0.6046
 4746TIP3   OH235728   1.729   1.532  16.887 -0.2395  0.0035  0.0326
 4746TIP3    H135729   1.816   1.543  16.925  0.0124 -0.3321 -0.4314
 4746TIP3    H235730   1.716   1.609  16.832 -0.2710  0.0947  0.1687
 4747TIP3   OH235731   1.330   1.895  16.578 -0.0536 -0.2004 -0.2253
 4747TIP3    H135732   1.255   1.877  16.634 -0.2384  1.7314  0.2364
 4747TIP3    H235733   1.406   1.871  16.631 -0.2378  1.4063  0.8450
 4748TIP3   OH235734   2.595   0.233  11.702  0.0552  0.1768 -0.2292
 4748TIP3    H135735   2.547   0.191  11.773  1.3396  1.3925  1.4380
 4748TIP3    H235736   2.683   0.246  11.736  0.2653  2.3481 -1.4001
 4749TIP3   OH235737   2.398   2.965   4.161  0.3495 -0.4172  0.1106
 4749TIP3    H135738   2.378   2.970   4.068  1.2169  1.0085 -0.0269
 4749TIP3    H235739   2.347   3.036   4.200  1.8995  0.6234  0.3322
 4750TIP3   OH235740   4.314   1.131   0.082 -0.5065  0.2360 -0.0241
 4750TIP3    H135741   4.236   1.175   0.114 -0.3331  1.8712 -1.6854
 4750TIP3    H235742   4.379   1.201   0.071  0.2617 -0.6316 -1.3457
 4751TIP3   OH235743   0.321   2.754   4.151 -0.1987 -0.1400  0.2543
 4751TIP3    H135744   0.292   2.831   4.200 -1.6704 -1.1003  0.9713
 4751TIP3    H235745   0.403   2.728   4.192  0.9085  1.6530 -0.7011
 4752TIP3   OH235746   4.199   0.705  17.166 -0.3985 -0.1411  0.1077
 4752TIP3    H135747   4.218   0.726  17.257 -0.2421 -0.5140  0.1621
 4752TIP3    H235748   4.212   0.788  17.119  4.2568 -0.8658 -0.3444
 4753TIP3   OH235749   5.568   6.129   1.699  0.0707 -0.6295  0.9852
 4753TIP3    H135750   5.658   6.102   1.717  1.7149  1.9279 -2.3021
 4753TIP3    H235751   5.531   6.058   1.647  1.1505 -0.5636  0.1015
 4754TIP3   OH235752   1.568   5.224   5.680  0.2777  0.0313 -0.5848
 4754TIP3    H135753   1.510   5.170   5.734 -1.1642  2.1318  0.0798
 4754TIP3    H235754   1.615   5.279   5.743  1.7319 -0.3981 -1.2464
 4755TIP3   OH235755   5.586   1.002  13.159  0.2471  0.4503 -0.5695
 4755TIP3    H135756   5.581   1.096  13.177  0.9360  0.5001 -0.6247
 4755TIP3    H235757   5.499   0.969  13.182  0.5477  0.7999  1.2268
 4756TIP3   OH235758   1.366   0.495   2.954  0.3151 -0.6054 -0.0927
 4756TIP3    H135759   1.428   0.557   2.915  1.1269 -0.7622  0.9024
 4756TIP3    H235760   1.323   0.546   3.022  0.9860 -1.1158  0.7303
 4757TIP3   OH235761   3.050   2.096  12.101  0.4811  0.4053 -0.1209
 4757TIP3    H135762   3.057   2.191  12.115 -1.1056  0.3497  1.3922
 4757TIP3    H235763   3.133   2.061  12.133 -0.0313  1.0581  2.0971
 4758TIP3   OH235764   1.831   5.184  13.570 -0.2075  0.0221 -0.1956
 4758TIP3    H135765   1.750   5.150  13.611  1.2178 -1.8897  1.2521
 4758TIP3    H235766   1.856   5.116  13.508 -0.1664  1.0464 -1.3321
 4759TIP3   OH235767   5.495   2.539   4.019 -0.2992  0.2083 -0.0853
 4759TIP3    H135768   5.574   2.506   3.977 -0.6577  1.0762 -1.5077
 4759TIP3    H235769   5.473   2.472   4.084 -0.5716 -1.9956 -2.3077
 4760TIP3   OH235770   0.125   3.745  14.419 -0.4257  0.1093 -0.8070
 4760TIP3    H135771   0.164   3.703  14.495  0.9547  0.6296 -1.2020
 4760TIP3    H235772   0.038   3.771  14.449  0.0302  0.1677  0.5502
 4761TIP3   OH235773   0.295   5.796   4.070 -0.1379  0.3527  0.4725
 4761TIP3    H135774   0.355   5.799   3.996  0.4631 -0.6952  0.9002
 4761TIP3    H235775   0.219   5.748   4.037 -0.0177  0.1889  0.4341
 4762TIP3   OH235776   5.839   3.351  12.419 -0.5697 -0.1389 -0.1737
 4762TIP3    H135777   5.882   3.375  12.337 -1.3298  0.8964 -0.2944
 4762TIP3    H235778   5.889   3.395  12.487 -0.5906 -0.0926 -0.1884
 4763TIP3   OH235779   6.199   1.456  12.522  0.1456 -0.3194  0.1190
 4763TIP3    H135780   6.182   1.371  12.562  1.0245  0.1112  1.4756
 4763TIP3    H235781   6.159   1.519  12.581 -1.8425  0.1873 -1.6429
 4764TIP3   OH235782   3.480   4.579  12.810 -0.2428  0.3909 -0.1377
 4764TIP3    H135783   3.435   4.663  12.801  0.5002  0.9942  1.5143
 4764TIP3    H235784   3.415   4.520  12.848 -1.1005 -0.1361 -2.2678
 4765TIP3   OH235785   2.276   0.513   4.558 -0.0329  0.4392  0.5574
 4765TIP3    H135786   2.274   0.428   4.514  1.8609 -0.4121  1.9926
 4765TIP3    H235787   2.222   0.500   4.637 -2.0746  1.4791 -0.5737
 4766TIP3   OH235788   2.261   0.411  13.977  0.3154 -0.2138 -0.2698
 4766TIP3    H135789   2.176   0.390  14.016  0.4057 -1.2426 -0.6212
 4766TIP3    H235790   2.276   0.502  14.003  0.7142 -1.0377  2.7903
 4767TIP3   OH235791   0.027   0.519  12.128  0.2883  0.3603  0.4283
 4767TIP3    H135792   0.085   0.545  12.057  1.3732 -0.0387  1.1520
 4767TIP3    H235793   0.012   0.600  12.177  1.2746  0.2246  0.9728
 4768TIP3   OH235794   6.511   5.113  16.332  0.0302  0.2745 -0.0321
 4768TIP3    H135795   6.516   5.163  16.250 -1.0743 -1.5513 -1.3039
 4768TIP3    H235796   6.425   5.135  16.368  0.0423  0.2130  0.0333
 4769TIP3   OH235797   2.452   1.191  10.456  0.6159  0.2542  0.3739
 4769TIP3    H135798   2.356   1.184  10.461  0.4378  1.4718 -0.8462
 4769TIP3    H235799   2.476   1.238  10.536 -0.0475  1.7957 -0.2907
 4770TIP3   OH235800   0.643   3.885   2.720  0.9819  0.1425 -0.0448
 4770TIP3    H135801   0.728   3.925   2.738 -0.2719  2.7297  0.6420
 4770TIP3    H235802   0.588   3.910   2.794 -0.7024 -0.4098 -1.0334
 4771TIP3   OH235803   1.279   1.735  14.512 -0.7823 -0.3758 -0.3643
 4771TIP3    H135804   1.317   1.671  14.572 -2.2506  0.4227  1.5299
 4771TIP3    H235805   1.233   1.683  14.447  1.3128 -1.2850 -1.2229
 4772TIP3   OH235806   0.600   3.693   3.773 -0.0206  0.6420  0.2838
 4772TIP3    H135807   0.672   3.657   3.721 -1.9326 -1.6067 -0.9787
 4772TIP3    H235808   0.542   3.734   3.708 -0.9711  0.4434  0.9844
 4773TIP3   OH235809   4.330   4.780   4.535  0.1094 -0.3990  0.3297
 4773TIP3    H135810   4.422   4.756   4.526  0.5195  0.9891  0.4952
 4773TIP3    H235811   4.299   4.726   4.608  0.2907 -2.1482 -0.8302
 4774TIP3   OH235812   5.011   2.552  16.986  0.4116  0.1178 -0.2296
 4774TIP3    H135813   4.979   2.478  16.934  0.2562  0.4478 -0.6139
 4774TIP3    H235814   5.090   2.519  17.029  0.6306 -0.1197 -0.8026
 4775TIP3   OH235815   6.480   0.097   3.537 -0.6261 -0.3939  0.0090
 4775TIP3    H135816   6.459   0.144   3.457  0.2349  1.0977  0.6085
 4775TIP3    H235817   6.575   0.089   3.537 -0.5332  0.4206  1.2801
 4776TIP3   OH235818   6.282   4.142  17.216 -0.1038  0.1753 -0.0739
 4776TIP3    H135819   6.273   4.159  17.123 -0.1668  0.1940 -0.0644
 4776TIP3    H235820   6.275   4.227  17.258 -0.1068  0.1633 -0.0490
 4777TIP3   OH235821   1.352   4.183   1.264 -0.2772  0.4717 -0.0123
 4777TIP3    H135822   1.287   4.142   1.207  0.1479 -0.6465  0.2773
 4777TIP3    H235823   1.337   4.143   1.350 -0.9624  2.1921  0.7130
 4778TIP3   OH235824   0.249   4.513  11.310  0.0156  0.5453 -0.0815
 4778TIP3    H135825   0.228   4.455  11.236  0.4423  1.4733 -0.9484
 4778TIP3    H235826   0.184   4.583  11.304 -1.2366 -0.3991  1.6575
 4779TIP3   OH235827   2.965   0.264  11.501  0.3034  0.2152 -0.1503
 4779TIP3    H135828   2.891   0.238  11.445  0.3345 -2.6351  0.9543
 4779TIP3    H235829   3.040   0.267  11.441  0.1324 -1.6844 -0.5397
 4780TIP3   OH235830   4.649   6.578  12.535  0.1613  0.4335 -0.0388
 4780TIP3    H135831   4.581   6.642  12.556 -1.4921 -1.2977  0.1492
 4780TIP3    H235832   4.602   6.505  12.494  1.8766 -0.8997  0.2345
 4781TIP3   OH235833   2.313   3.646  17.142  0.7627  0.2590  0.0981
 4781TIP3    H135834   2.333   3.700  17.065  1.2305  1.0663  0.7744
 4781TIP3    H235835   2.344   3.698  17.216  0.1814 -0.4500  0.8447
 4782TIP3   OH235836   3.953   0.515  11.345  0.0577 -0.7763  0.0219
 4782TIP3    H135837   3.999   0.579  11.292 -0.6999  0.4046  0.7360
 4782TIP3    H235838   3.862   0.519  11.314 -0.3632 -0.1746  1.2825
 4783TIP3   OH235839   5.847   3.241  15.313  0.2445  1.0243 -0.7261
 4783TIP3    H135840   5.786   3.188  15.363  2.2801 -1.8687 -1.0552
 4783TIP3    H235841   5.827   3.331  15.337 -3.9774  0.2753 -0.7387
 4784TIP3   OH235842   2.354   6.192  15.276 -0.2139  0.8112  0.0590
 4784TIP3    H135843   2.345   6.101  15.304  0.3731  0.6576 -0.2302
 4784TIP3    H235844   2.321   6.192  15.186  0.2866  0.7668 -0.1278
 4785TIP3   OH235845   6.766   1.621  12.207 -0.0937 -0.0832  0.1828
 4785TIP3    H135846   6.819   1.701  12.205  1.2168 -0.9277 -0.8352
 4785TIP3    H235847   6.750   1.602  12.115 -2.4715  0.2939  0.4693
 4786TIP3   OH235848   1.951   1.807  14.103 -0.4713  0.7961  0.2777
 4786TIP3    H135849   1.872   1.793  14.051  0.1580  1.6720 -0.9426
 4786TIP3    H235850   2.013   1.742  14.071 -0.3508  0.7852  0.5253
 4787TIP3   OH235851   3.997   5.470   2.314  0.5270  0.2781  0.0789
 4787TIP3    H135852   3.904   5.470   2.290  0.8470 -2.3466 -1.6308
 4787TIP3    H235853   4.041   5.503   2.236  1.1410 -0.3534  0.1566
 4788TIP3   OH235854   4.993   1.429   1.134  0.3623 -0.1210  0.7971
 4788TIP3    H135855   4.993   1.484   1.055  1.3487 -0.7112  0.3765
 4788TIP3    H235856   4.950   1.483   1.200 -0.1054  0.5460 -0.0311
 4789TIP3   OH235857   6.354   5.209  16.953  0.2158 -0.1436 -0.1499
 4789TIP3    H135858   6.449   5.200  16.940  0.0412 -2.1048 -0.4788
 4789TIP3    H235859   6.331   5.136  17.010 -1.1110  0.2957 -0.0972
 4790TIP3   OH235860   5.121   2.118   2.139  0.1634  0.5809 -0.1393
 4790TIP3    H135861   5.046   2.073   2.100  0.1066 -0.5046  1.1325
 4790TIP3    H235862   5.105   2.211   2.123 -1.1056  0.3229 -0.4780
 4791TIP3   OH235863   4.943   2.778   2.591 -0.0644 -0.0949  0.6763
 4791TIP3    H135864   5.002   2.742   2.658 -0.1323 -1.2525  0.1282
 4791TIP3    H235865   4.947   2.873   2.605  1.0028 -0.2276  1.4216
 4792TIP3   OH235866   5.709   6.410   3.112 -0.2161  0.2019  0.7440
 4792TIP3    H135867   5.741   6.465   3.184 -2.1053 -0.9137  2.5531
 4792TIP3    H235868   5.635   6.459   3.076  0.2404  0.3966  0.0590
 4793TIP3   OH235869   4.984   2.861   4.861 -0.0945 -0.1625 -0.0931
 4793TIP3    H135870   4.926   2.868   4.937  0.8596  2.0891  0.5045
 4793TIP3    H235871   5.070   2.886   4.894  0.4559  0.3004 -1.7832
 4794TIP3   OH235872   5.636   1.930   6.132 -0.0712  0.2938 -0.2332
 4794TIP3    H135873   5.609   1.847   6.091 -1.2326  0.1203  0.7986
 4794TIP3    H235874   5.677   1.903   6.215 -1.2414  0.7502  0.5221
 4795TIP3   OH235875   2.359   2.216   0.846  0.1292  0.5021  0.1099
 4795TIP3    H135876   2.442   2.263   0.842  0.5056 -0.0991  0.6447
 4795TIP3    H235877   2.350   2.190   0.938  0.0183 -0.5885 -0.1926
 4796TIP3   OH235878   1.381   5.342  14.363 -0.6968  0.4258 -0.3350
 4796TIP3    H135879   1.341   5.326  14.278 -0.0174 -0.3005 -0.5365
 4796TIP3    H235880   1.320   5.306  14.427 -0.3371 -0.7498 -0.6420
 4797TIP3   OH235881   6.460   3.585   3.157 -0.0772 -0.4033 -0.6680
 4797TIP3    H135882   6.413   3.641   3.094 -0.1628 -1.4057 -1.5311
 4797TIP3    H235883   6.527   3.641   3.194 -0.5601  0.4468 -1.0446
 4798TIP3   OH235884   5.186   1.897   0.566  0.2855 -0.4783 -0.6605
 4798TIP3    H135885   5.097   1.866   0.551  0.3442  0.0553 -2.3590
 4798TIP3    H235886   5.236   1.819   0.587 -0.2192 -1.0749 -1.5931
 4799TIP3   OH235887   1.940   5.017  15.887 -0.1264 -0.3123  0.1069
 4799TIP3    H135888   1.991   5.056  15.816  0.9910 -2.5423 -0.4187
 4799TIP3    H235889   1.860   4.986  15.845  0.5099 -1.5808 -0.2401
 4800TIP3   OH235890   3.094   3.102  15.482  0.3306 -0.4665 -0.6444
 4800TIP3    H135891   3.172   3.057  15.516 -0.2515 -0.1225  1.2974
 4800TIP3    H235892   3.122   3.192  15.468  0.1291 -0.1451  0.8283
 4801TIP3   OH235893   2.221   0.512  13.703 -0.3579  0.3543 -0.2423
 4801TIP3    H135894   2.283   0.448  13.738 -0.5857  0.0415 -0.4002
 4801TIP3    H235895   2.260   0.597  13.723  0.3569  0.1558 -0.7804
 4802TIP3   OH235896   5.605   0.823   1.914  0.1824 -0.1935  0.0922
 4802TIP3    H135897   5.689   0.781   1.931  0.7559  0.8448 -0.0677
 4802TIP3    H235898   5.557   0.761   1.859  1.7058  0.1087 -1.6604
 4803TIP3   OH235899   3.797   4.053  17.180  0.3971 -0.0345 -0.7169
 4803TIP3    H135900   3.844   3.987  17.230  1.8429  1.0737 -0.5502
 4803TIP3    H235901   3.777   4.121  17.244  1.2869  0.8864 -1.3846
 4804TIP3   OH235902   2.147   0.489  14.599  0.2856 -0.5705  0.0476
 4804TIP3    H135903   2.176   0.550  14.532 -1.0240 -0.5021 -0.4741
 4804TIP3    H235904   2.052   0.483  14.587  0.4787 -3.5525 -0.6586
 4805TIP3   OH235905   4.309   6.000  13.986 -0.6197 -0.1230  0.3610
 4805TIP3    H135906   4.222   6.016  14.023 -0.5141  0.0076  0.5550
 4805TIP3    H235907   4.369   6.022  14.057 -0.4763 -1.8921  0.8151
 4806TIP3   OH235908   1.224   4.343  16.574 -0.2165  0.3390 -0.6245
 4806TIP3    H135909   1.156   4.341  16.507 -1.5963  0.5616  0.6922
 4806TIP3    H235910   1.228   4.435  16.602  0.9768  0.4180 -0.9936
 4807TIP3   OH235911   4.325   1.911   5.950 -0.8695  0.2256  0.1590
 4807TIP3    H135912   4.335   1.927   6.044 -0.6848 -1.0754  0.3893
 4807TIP3    H235913   4.231   1.902   5.937 -0.8964  0.4259  0.2244
 4808TIP3   OH235914   4.501   2.776  17.127  0.1634 -0.9487  0.6290
 4808TIP3    H135915   4.586   2.808  17.158 -0.4373  1.6436 -0.1069
 4808TIP3    H235916   4.470   2.718  17.197  0.4334  1.8650  3.3429
 4809TIP3   OH235917   0.995   5.445   5.778 -0.5011 -0.0521  0.5224
 4809TIP3    H135918   0.939   5.444   5.701  0.5214  2.5910 -0.3847
 4809TIP3    H235919   1.073   5.396   5.753 -0.0537  1.0292 -0.2817
 4810TIP3   OH235920   3.911   6.190  10.651  0.4352  0.0685 -0.7702
 4810TIP3    H135921   3.846   6.224  10.590  0.5801 -1.4922 -1.8570
 4810TIP3    H235922   3.928   6.101  10.620 -0.2990 -1.2233  2.1533
 4811TIP3   OH235923   2.656   3.488  16.387 -0.0497  0.4922 -0.5250
 4811TIP3    H135924   2.628   3.572  16.423 -0.9273  0.3862 -0.9313
 4811TIP3    H235925   2.579   3.431  16.396  1.1472 -0.9552  1.7547
 4812TIP3   OH235926   4.013   6.082   3.905  0.8270  0.7056 -0.1786
 4812TIP3    H135927   3.974   5.998   3.879 -0.8090  0.8922  1.4259
 4812TIP3    H235928   4.029   6.128   3.823 -0.4651 -0.2333 -0.9967
 4813TIP3   OH235929   2.092   2.366  15.770 -0.8055 -0.0708  0.3122
 4813TIP3    H135930   2.105   2.433  15.704 -2.0416  2.2067  2.2222
 4813TIP3    H235931   2.179   2.329  15.785 -0.0328  1.3063 -0.6123
 4814TIP3   OH235932   4.340   4.069  11.339  0.4193  0.1269 -0.2040
 4814TIP3    H135933   4.323   4.123  11.417 -0.0051  0.0969 -0.2768
 4814TIP3    H235934   4.433   4.083  11.321  1.1824 -1.8336  1.7999
 4815TIP3   OH235935   0.556   2.394   0.480  0.9380 -0.1022 -0.3136
 4815TIP3    H135936   0.580   2.301   0.476  0.8566 -0.1164 -0.4952
 4815TIP3    H235937   0.633   2.440   0.447  0.8386 -0.1288 -0.5863
 4816TIP3   OH235938   1.236   6.187   6.168 -0.0152 -0.4033  0.5484
 4816TIP3    H135939   1.314   6.225   6.209  0.6978 -2.0658  0.8123
 4816TIP3    H235940   1.223   6.104   6.214 -0.9460 -0.9446 -0.6500
 4817TIP3   OH235941   0.980   5.229  10.583  0.4574  0.2139  0.2793
 4817TIP3    H135942   0.939   5.217  10.497  1.4417 -0.5261 -0.1092
 4817TIP3    H235943   1.063   5.273  10.563 -0.5935  2.8465  1.1668
 4818TIP3   OH235944   4.081   0.449   1.293 -0.5291  0.3796  0.2201
 4818TIP3    H135945   4.084   0.381   1.361 -0.3018  0.0169 -0.1512
 4818TIP3    H235946   4.097   0.531   1.341 -0.2917  0.1168  0.5937
 4819TIP3   OH235947   4.205   2.872  12.724  0.3858  0.5312  0.1066
 4819TIP3    H135948   4.237   2.794  12.679  1.6959  1.3844 -0.4967
 4819TIP3    H235949   4.137   2.906  12.666  0.3784  0.2821 -0.0332
 4820TIP3   OH235950   6.649   3.460   1.131  0.1458  0.2354 -0.4028
 4820TIP3    H135951   6.629   3.455   1.037  0.9146  0.2302 -0.5769
 4820TIP3    H235952   6.567   3.489   1.171  0.0019  0.9496 -1.1634
 4821TIP3   OH235953   4.448   2.785  11.491 -0.0952  0.5758  0.3137
 4821TIP3    H135954   4.452   2.844  11.566 -0.5423  0.8915  0.0864
 4821TIP3    H235955   4.485   2.703  11.524 -1.3290  0.3533  1.2293
 4822TIP3   OH235956   3.236   5.178  12.006  0.2780 -0.5934  0.5773
 4822TIP3    H135957   3.164   5.119  12.028 -0.0929  0.0502  1.1363
 4822TIP3    H235958   3.304   5.159  12.071  0.9512 -1.7424 -0.4134
 4823TIP3   OH235959   6.409   3.337  14.466 -0.0728 -0.0608 -0.5605
 4823TIP3    H135960   6.503   3.319  14.468  0.0590  0.6181  0.9602
 4823TIP3    H235961   6.392   3.370  14.378  1.5038  1.7497 -0.2290
 4824TIP3   OH235962   3.248   3.161   3.311  0.0270  0.3556  0.2218
 4824TIP3    H135963   3.298   3.235   3.344 -0.6071  1.8638 -1.9717
 4824TIP3    H235964   3.185   3.141   3.380  0.7904  1.2756  1.2065
 4825TIP3   OH235965   4.807   1.905   3.778 -0.3472 -0.2728 -0.0044
 4825TIP3    H135966   4.765   1.985   3.810 -0.3928 -0.7250  1.1048
 4825TIP3    H235967   4.880   1.890   3.839  1.1718  0.2349 -1.6194
 4826TIP3   OH235968   4.242   5.193   2.935 -0.2587 -0.0150 -0.0571
 4826TIP3    H135969   4.250   5.117   2.878  1.2736  0.1330 -0.0692
 4826TIP3    H235970   4.288   5.168   3.015  0.9421  1.1396 -0.3473
 4827TIP3   OH235971   6.798   1.278  14.826  0.4347 -0.1350 -0.1260
 4827TIP3    H135972   6.876   1.270  14.772 -1.4099 -1.9023 -2.7960
 4827TIP3    H235973   6.807   1.210  14.893  0.5429 -1.3754 -1.3594
 4828TIP3   OH235974   4.106   5.911  13.140 -0.2445 -0.1327  0.4061
 4828TIP3    H135975   4.143   5.911  13.052  0.0175  0.9685  0.4985
 4828TIP3    H235976   4.180   5.892  13.197  0.5823  3.3056  0.6966
 4829TIP3   OH235977   0.613   5.223  16.768  0.0961  0.0972 -0.4039
 4829TIP3    H135978   0.663   5.289  16.720  1.8063 -0.2776  0.7688
 4829TIP3    H235979   0.566   5.175  16.700  1.6452  0.2225 -1.6240
 4830TIP3   OH235980   4.463   1.757  15.868  0.3139 -0.0345  0.0595
 4830TIP3    H135981   4.448   1.688  15.933 -0.5599 -0.4369 -0.5362
 4830TIP3    H235982   4.376   1.794  15.853  1.0051  2.5590  1.7880
 4831TIP3   OH235983   0.704   3.213  11.539 -0.2393 -0.1588  0.5546
 4831TIP3    H135984   0.697   3.219  11.634  2.0990 -0.8038  0.8174
 4831TIP3    H235985   0.622   3.171  11.511 -0.4922 -0.9467  2.3802
 4832TIP3   OH235986   5.540   3.886   0.289 -0.1408  0.2245  0.0465
 4832TIP3    H135987   5.629   3.909   0.264  0.3310  0.7576  2.0379
 4832TIP3    H235988   5.522   3.805   0.242  1.6389 -0.2366  0.0792
 4833TIP3   OH235989   0.104   1.391   1.920  0.0614  0.4648  0.2339
 4833TIP3    H135990   0.025   1.356   1.960  0.5495 -1.4519 -0.3660
 4833TIP3    H235991   0.148   1.438   1.991  0.6169 -2.3281  1.8820
 4834TIP3   OH235992   3.681   6.269   5.017 -0.3209  0.3799  0.1867
 4834TIP3    H135993   3.732   6.215   5.078  0.3925 -0.0665 -0.7783
 4834TIP3    H235994   3.724   6.354   5.018  0.1852  0.1332 -0.2959
 4835TIP3   OH235995   0.287   4.760   4.601  0.0800 -0.0034 -0.1834
 4835TIP3    H135996   0.301   4.847   4.638  1.7657 -0.7852  1.1692
 4835TIP3    H235997   0.223   4.719   4.660  0.3288 -0.1473 -0.0133
 4836TIP3   OH235998   6.437   2.568  14.589 -0.1186 -0.5449 -0.6351
 4836TIP3    H135999   6.510   2.506  14.590 -0.4986 -1.0191 -1.3461
 4836TIP3    H236000   6.364   2.518  14.552 -0.7118  0.0213 -0.2353
 4837TIP3   OH236001   2.314   0.096   1.944 -0.1577  0.5664  0.1566
 4837TIP3    H136002   2.228   0.053   1.943 -0.6335  1.5152 -0.3446
 4837TIP3    H236003   2.303   0.174   1.890  0.4170  1.8408  1.7766
 4838TIP3   OH236004   3.622   0.515  15.308  0.1482  0.1290  0.4761
 4838TIP3    H136005   3.612   0.456  15.233 -0.3551  0.2752  0.4300
 4838TIP3    H236006   3.690   0.473  15.362  1.4627  0.6743 -0.6814
 4839TIP3   OH236007   4.644   5.045   0.948 -0.1204  0.3723  0.3444
 4839TIP3    H136008   4.565   5.005   0.986 -0.1885  1.7018  1.6890
 4839TIP3    H236009   4.627   5.046   0.854 -1.1212 -0.5904  0.4927
 4840TIP3   OH236010   4.277   2.755   2.212  0.4151 -0.2122  0.0299
 4840TIP3    H136011   4.200   2.792   2.169  0.5943  2.7868  1.9606
 4840TIP3    H236012   4.294   2.673   2.166 -0.8393  1.4797 -3.8739
 4841TIP3   OH236013   3.006   5.372  11.067  0.1781 -0.0295 -0.4742
 4841TIP3    H136014   3.070   5.380  10.997  0.2738 -0.5076 -0.4465
 4841TIP3    H236015   2.970   5.460  11.077 -0.9655 -0.2481 -2.1852
 4842TIP3   OH236016   2.637   4.355  13.301  0.3667  0.2730 -0.0446
 4842TIP3    H136017   2.622   4.448  13.315  0.1585 -0.1784  4.0560
 4842TIP3    H236018   2.550   4.318  13.287  0.1830  0.4836  0.4916
 4843TIP3   OH236019   0.227   2.201  11.680  0.3424 -0.7554  0.4106
 4843TIP3    H136020   0.221   2.296  11.697  0.8180 -0.7565  0.6115
 4843TIP3    H236021   0.168   2.186  11.607  0.8930 -0.1537 -0.1779
 4844TIP3   OH236022   2.196   4.516  13.392 -0.0193 -0.2057 -0.3045
 4844TIP3    H136023   2.138   4.533  13.466 -0.3576 -0.4609 -0.5143
 4844TIP3    H236024   2.279   4.491  13.433  0.1968  0.9382  0.0093
 4845TIP3   OH236025   2.713   6.205  15.637  0.3791  0.0372 -0.5565
 4845TIP3    H136026   2.750   6.130  15.591 -0.4261 -1.4107  1.0166
 4845TIP3    H236027   2.626   6.216  15.600  0.2883 -0.1652 -0.4032
 4846TIP3   OH236028   4.670   4.734   2.908  0.5310  0.5127 -0.0049
 4846TIP3    H136029   4.742   4.797   2.900  1.3271 -0.5395 -1.6376
 4846TIP3    H236030   4.598   4.774   2.860  0.3057  1.1295  0.8141
 4847TIP3   OH236031   3.701   3.055  11.232  0.3811 -1.3277 -0.1608
 4847TIP3    H136032   3.763   3.126  11.251 -0.1602 -0.8905 -0.0105
 4847TIP3    H236033   3.704   3.000  11.310  0.1129 -0.9652  0.1049
 4848TIP3   OH236034   1.040   0.376   0.866 -0.3416 -0.5282  0.4024
 4848TIP3    H136035   1.075   0.402   0.781 -0.0189 -0.4918  0.5469
 4848TIP3    H236036   1.064   0.447   0.925 -2.4129  0.4862  0.0929
 4849TIP3   OH236037   4.001   5.841   2.948  0.0386 -0.2612 -0.2105
 4849TIP3    H136038   3.963   5.833   3.036  0.2803  1.2510  0.0506
 4849TIP3    H236039   3.972   5.761   2.903 -0.8400 -0.6334  0.9491
 4850TIP3   OH236040   2.544   6.372   0.048  0.2922  0.1551 -0.1700
 4850TIP3    H136041   2.565   6.331  -0.036  0.0292  0.5708 -0.4425
 4850TIP3    H236042   2.629   6.398   0.083  0.3262  0.9747 -0.8278
 4851TIP3   OH236043   4.675   5.322   4.793 -0.0389  0.2816  0.2377
 4851TIP3    H136044   4.705   5.368   4.715  1.0329  0.1211  0.5428
 4851TIP3    H236045   4.625   5.248   4.759 -0.5171  0.8266 -0.2728
 4852TIP3   OH236046   2.775   0.794   4.462  0.6026  0.6675 -0.1523
 4852TIP3    H136047   2.714   0.721   4.447 -0.2947  1.1976  0.8170
 4852TIP3    H236048   2.724   0.872   4.444  2.3581  1.1338 -4.1569
 4853TIP3   OH236049   1.766   6.100   0.435  0.6078 -0.2268 -0.2435
 4853TIP3    H136050   1.687   6.066   0.476  0.5890  1.0785  0.8833
 4853TIP3    H236051   1.834   6.035   0.455  0.2006 -0.4951  0.2963
 4854TIP3   OH236052   0.259   6.630   4.093 -0.4210 -0.3142 -0.1926
 4854TIP3    H136053   0.241   6.549   4.045 -0.1476  0.1394 -1.0723
 4854TIP3    H236054   0.262   6.698   4.026 -0.2503  0.3693  0.4937
 4855TIP3   OH236055   2.183   3.888   4.007  0.1015  0.4103  0.2278
 4855TIP3    H136056   2.199   3.980   3.986 -1.7923  1.1318  1.6472
 4855TIP3    H236057   2.106   3.865   3.955  0.5552 -0.3994 -0.1124
 4856TIP3   OH236058   1.518   2.814  11.405 -0.2902 -0.2689 -0.2238
 4856TIP3    H136059   1.598   2.864  11.420 -1.2968  1.1643  0.5194
 4856TIP3    H236060   1.512   2.806  11.309 -0.1422  1.1131 -0.3638
 4857TIP3   OH236061   6.497   0.480   6.414  0.1957 -0.0133 -0.2999
 4857TIP3    H136062   6.504   0.449   6.323  1.1199 -0.1940 -0.1854
 4857TIP3    H236063   6.407   0.460   6.440  0.3258 -1.2513 -0.7202
 4858TIP3   OH236064   5.717   6.433  13.283 -0.4464 -0.7238 -0.2572
 4858TIP3    H136065   5.758   6.472  13.206  1.2217  2.5511  2.0373
 4858TIP3    H236066   5.640   6.488  13.300  0.2255 -0.2016  1.3501
 4859TIP3   OH236067   2.973   2.481   5.541  0.1367  0.1696 -0.1343
 4859TIP3    H136068   2.995   2.479   5.447  1.5452 -0.6443  0.1912
 4859TIP3    H236069   2.880   2.506   5.543  0.0100 -0.0649 -1.7576
 4860TIP3   OH236070   4.261   0.866   0.799  0.2122  0.0378  0.0165
 4860TIP3    H136071   4.213   0.783   0.798 -1.1739  0.7928  0.3806
 4860TIP3    H236072   4.294   0.876   0.710  0.5748 -0.9988  0.0282
 4861TIP3   OH236073   4.964   1.517  15.008  0.0745  0.2266 -0.3984
 4861TIP3    H136074   4.885   1.479  14.970  0.9533 -0.9427 -1.1046
 4861TIP3    H236075   4.982   1.464  15.086  0.8188 -0.2625 -0.8982
 4862TIP3   OH236076   4.444   3.069  17.032  0.7618 -0.3596  0.2240
 4862TIP3    H136077   4.470   3.125  17.105  0.6276  0.6189 -0.4629
 4862TIP3    H236078   4.435   2.982  17.071  0.8877  0.1044  1.3289
 4863TIP3   OH236079   2.544   0.927  14.621  0.2069  0.2346  0.2982
 4863TIP3    H136080   2.528   0.984  14.546 -0.7789 -0.5994 -0.1504
 4863TIP3    H236081   2.478   0.952  14.685 -0.1894 -0.3404  0.1254
 4864TIP3   OH236082   6.563   4.164  16.111 -0.2695 -0.1773  0.1271
 4864TIP3    H136083   6.501   4.204  16.173  2.2171 -0.1412  2.7869
 4864TIP3    H236084   6.613   4.102  16.163  3.0555  0.9782 -1.4086
 4865TIP3   OH236085   2.888   6.657  15.482  0.2556  0.7343 -0.2824
 4865TIP3    H136086   2.945   6.667  15.559 -0.2776 -0.7021  0.3248
 4865TIP3    H236087   2.932   6.591  15.428 -1.0466 -0.7669  0.4352
 4866TIP3   OH236088   6.470   3.029  13.925 -0.3909  0.0847 -0.5806
 4866TIP3    H136089   6.449   3.089  13.996 -1.2042 -0.1198 -0.6358
 4866TIP3    H236090   6.519   3.081  13.862 -3.2491  1.4513 -1.8600
 4867TIP3   OH236091   2.358   1.656  15.294 -0.4782  0.8262 -0.2001
 4867TIP3    H136092   2.376   1.744  15.261 -0.3810  0.7654 -0.3070
 4867TIP3    H236093   2.420   1.599  15.248 -0.9735  0.6083 -0.6036
 4868TIP3   OH236094   4.328   5.838   2.648 -0.5632 -0.0608  0.5161
 4868TIP3    H136095   4.261   5.844   2.716 -0.9626 -1.0773  0.2204
 4868TIP3    H236096   4.280   5.819   2.568 -0.1603  1.7339 -0.2069
 4869TIP3   OH236097   2.125   6.325  10.999  0.4054  0.6403  0.0442
 4869TIP3    H136098   2.051   6.371  11.037 -0.5426  0.1248 -1.1342
 4869TIP3    H236099   2.185   6.394  10.971  0.1605  1.0678  0.5520
 4870TIP3   OH236100   4.896   3.726  16.393 -0.2053 -0.3896 -0.3856
 4870TIP3    H136101   4.836   3.651  16.389  1.8132 -2.0690 -0.7252
 4870TIP3    H236102   4.858   3.784  16.459 -1.4784 -2.0314  0.3954
 4871TIP3   OH236103   5.028   6.736   1.816  0.1811 -0.0826 -0.1154
 4871TIP3    H136104   5.108   6.787   1.819 -0.4072  1.0606 -2.1032
 4871TIP3    H236105   5.034   6.687   1.734 -0.7726 -0.6255  0.1246
 4872TIP3   OH236106   5.701   2.034  11.978 -0.5438 -0.2422 -0.6524
 4872TIP3    H136107   5.718   2.016  12.070 -0.2736 -1.2785 -0.8942
 4872TIP3    H236108   5.648   2.114  11.979 -0.2890 -0.0676  0.3788
 4873TIP3   OH236109   3.155   6.519   4.532  0.3713  0.2372  0.0571
 4873TIP3    H136110   3.077   6.572   4.513 -0.2841 -1.3644 -2.1531
 4873TIP3    H236111   3.128   6.461   4.603 -0.7180 -0.7163 -1.0891
 4874TIP3   OH236112   2.447   2.161   4.230 -0.3922 -0.1649 -0.5773
 4874TIP3    H136113   2.399   2.117   4.160 -0.0698 -0.9490 -0.3161
 4874TIP3    H236114   2.403   2.135   4.310  0.2139 -0.5696 -0.3686
 4875TIP3   OH236115   4.295   4.185  11.577 -0.1901 -0.5708  0.1431
 4875TIP3    H136116   4.305   4.269  11.624  0.8713 -1.3519  1.3937
 4875TIP3    H236117   4.207   4.156  11.600 -0.9968  0.6941 -1.1914
 4876TIP3   OH236118   4.112   4.215  16.054  0.3773 -0.1774 -0.5600
 4876TIP3    H136119   4.124   4.175  16.140  0.4814 -0.7573 -0.8329
 4876TIP3    H236120   4.085   4.141  15.998 -0.0972  0.2695 -0.9311
 4877TIP3   OH236121   5.634   3.688  17.118 -0.4632  0.3696  0.2485
 4877TIP3    H136122   5.722   3.664  17.089  0.2787  0.8126  1.9958
 4877TIP3    H236123   5.611   3.766  17.068 -1.6521 -2.0050 -3.2851
 4878TIP3   OH236124   3.729   5.232  17.075 -0.3445  0.5551 -0.3669
 4878TIP3    H136125   3.740   5.140  17.101 -2.0650  0.6374  0.8051
 4878TIP3    H236126   3.783   5.281  17.137  1.1988  0.3415 -1.4699
 4879TIP3   OH236127   2.429   4.222   3.820  0.0591 -0.3740 -0.2911
 4879TIP3    H136128   2.477   4.142   3.843 -0.4567 -1.0893 -1.6341
 4879TIP3    H236129   2.471   4.290   3.872  0.2383 -1.5738  1.2036
 4880TIP3   OH236130   4.913   5.212   5.410 -0.6605  0.2383  0.2551
 4880TIP3    H136131   4.960   5.275   5.465  0.5477 -1.6326  1.4667
 4880TIP3    H236132   4.859   5.162   5.472 -1.0021 -0.4324 -0.5639
 4881TIP3   OH236133   0.250   0.624   0.046 -0.2121  0.7188  0.1903
 4881TIP3    H136134   0.197   0.692   0.006 -2.2941 -1.1678 -0.4678
 4881TIP3    H236135   0.263   0.653   0.137  0.9209  2.9967 -0.6300
 4882TIP3   OH236136   4.297   4.811  14.293 -0.1778  0.1133 -0.2091
 4882TIP3    H136137   4.202   4.822  14.286 -0.2955 -0.8653 -0.2922
 4882TIP3    H236138   4.310   4.778  14.382 -0.0511 -0.9582 -0.6069
 4883TIP3   OH236139   0.494   4.732   1.014 -0.0455 -0.1039 -0.0197
 4883TIP3    H136140   0.410   4.732   1.060 -0.2084 -1.5872 -0.2932
 4883TIP3    H236141   0.558   4.754   1.082 -0.1757 -3.1383  1.2065
 4884TIP3   OH236142   6.425   4.175  14.359  0.1197  0.0144 -0.4553
 4884TIP3    H136143   6.354   4.146  14.416 -1.2695  0.2281 -1.9992
 4884TIP3    H236144   6.456   4.256  14.399  0.0784 -0.5119  0.6899
 4885TIP3   OH236145   4.555   3.898   3.278 -0.0036 -0.0103 -0.5688
 4885TIP3    H136146   4.561   3.848   3.197  0.2127 -1.7892  0.5061
 4885TIP3    H236147   4.495   3.847   3.333  0.4529  0.7561  0.6741
 4886TIP3   OH236148   6.775   3.777   0.168  0.0567  0.3028 -0.4179
 4886TIP3    H136149   6.817   3.743   0.247 -1.0062  1.4316  0.6633
 4886TIP3    H236150   6.698   3.721   0.156  0.5527 -0.2716 -1.0548
 4887TIP3   OH236151   5.942   6.178  16.694 -0.2663 -0.6781  0.0596
 4887TIP3    H136152   5.923   6.253  16.636 -0.7676 -1.8830 -1.4063
 4887TIP3    H236153   5.861   6.164  16.742 -1.0533 -1.7905 -1.4962
 4888TIP3   OH236154   2.329   6.124   5.022 -0.9712 -0.2116 -0.1035
 4888TIP3    H136155   2.398   6.058   5.033 -0.9257 -0.0154  0.8908
 4888TIP3    H236156   2.337   6.151   4.930  2.3720  2.0613  0.6426
 4889TIP3   OH236157   1.727   2.030   1.527  0.0434 -0.0698 -0.5505
 4889TIP3    H136158   1.699   2.099   1.467  0.1106 -0.1619 -0.6879
 4889TIP3    H236159   1.777   2.076   1.594 -0.9110  0.1704  0.0127
 4890TIP3   OH236160   5.761   1.623  11.276 -0.2979  0.2010  0.2174
 4890TIP3    H136161   5.692   1.560  11.255 -0.7802  1.3313 -1.8434
 4890TIP3    H236162   5.722   1.678  11.344 -0.8094 -0.1963  0.2542
 4891TIP3   OH236163   3.714   2.475  14.456 -0.0248 -0.1909 -0.1031
 4891TIP3    H136164   3.674   2.421  14.389 -2.5199  0.5665  0.6402
 4891TIP3    H236165   3.682   2.438  14.539  0.0876  0.9935  0.4930
 4892TIP3   OH236166   2.837   1.270  11.659 -0.1095  0.1185 -0.3488
 4892TIP3    H136167   2.754   1.302  11.624 -0.6234 -1.4733 -0.6354
 4892TIP3    H236168   2.876   1.220  11.588 -0.3144 -1.6359  0.7304
 4893TIP3   OH236169   2.391   6.756  11.239 -0.0773 -0.1780 -0.6428
 4893TIP3    H136170   2.364   6.665  11.243  0.8949 -0.4686 -0.5244
 4893TIP3    H236171   2.323   6.803  11.288 -0.5380 -0.8435 -0.6365
 4894TIP3   OH236172   5.301   4.306  10.896  0.4788 -0.2391 -0.1713
 4894TIP3    H136173   5.348   4.365  10.955 -0.8254 -0.8557  1.5744
 4894TIP3    H236174   5.322   4.218  10.928 -1.7531 -0.5377  0.6927
 4895TIP3   OH236175   2.908   4.138  15.607  0.6430  0.2666 -0.1249
 4895TIP3    H136176   2.967   4.097  15.544  0.1952 -0.1235 -0.2911
 4895TIP3    H236177   2.853   4.066  15.639  1.5070  0.2524  1.4449
 4896TIP3   OH236178   3.534   3.730  13.699  0.3926 -0.0816 -0.0370
 4896TIP3    H136179   3.540   3.674  13.776  2.8578  1.6992  1.1892
 4896TIP3    H236180   3.514   3.817  13.734  0.4033  0.5454 -1.5142
 4897TIP3   OH236181   1.738   4.019  14.668 -0.1667  0.1194  0.0043
 4897TIP3    H136182   1.696   4.029  14.583 -0.1413 -1.6065 -0.2614
 4897TIP3    H236183   1.831   4.031  14.650 -0.1379 -0.4649 -0.2824
 4898TIP3   OH236184   0.129   3.402   3.458  0.0585 -0.0527 -0.2772
 4898TIP3    H136185   0.208   3.427   3.506 -0.3749  1.8151 -0.4725
 4898TIP3    H236186   0.114   3.475   3.397 -1.0136 -1.0494 -1.2483
 4899TIP3   OH236187   2.828   4.502   0.995 -0.9843  0.2981 -0.3638
 4899TIP3    H136188   2.920   4.478   0.987 -1.2870 -1.4025  0.6005
 4899TIP3    H236189   2.816   4.575   0.935  0.8737  0.2199 -0.8762
 4900TIP3   OH236190   1.776   5.612  11.250 -0.2823 -0.0571 -0.0579
 4900TIP3    H136191   1.869   5.616  11.226 -0.3993 -0.3389 -0.5812
 4900TIP3    H236192   1.754   5.702  11.273  0.9778 -0.5076  3.5184
 4901TIP3   OH236193   6.275   2.922  14.512 -0.5554 -0.1044  0.7597
 4901TIP3    H136194   6.271   2.833  14.548  0.7936 -0.8945 -0.9123
 4901TIP3    H236195   6.367   2.947  14.518 -0.3200 -0.1252 -1.6281
 4902TIP3   OH236196   2.433   5.242  10.812 -0.3283 -0.3528  0.2397
 4902TIP3    H136197   2.439   5.310  10.879 -0.6076 -1.2049  1.1579
 4902TIP3    H236198   2.494   5.270  10.744 -1.1021  1.2605  0.1770
 4903TIP3   OH236199   2.894   5.118   0.701 -0.0542  0.1656  0.1857
 4903TIP3    H136200   2.838   5.147   0.773 -0.7720  0.9426 -0.6611
 4903TIP3    H236201   2.833   5.081   0.637  0.5994 -0.7256  0.0698
 4904TIP3   OH236202   5.748   6.806  15.591  0.3415 -0.1127  0.9110
 4904TIP3    H136203   5.702   6.865  15.531 -1.3781 -0.9120  1.3850
 4904TIP3    H236204   5.840   6.834  15.586 -0.3342  2.3499  0.8319
 4905TIP3   OH236205   4.277   4.994   2.195 -0.4166  0.7638 -0.0575
 4905TIP3    H136206   4.347   4.934   2.169 -0.0474  0.6396  1.1873
 4905TIP3    H236207   4.233   5.016   2.113 -0.0602 -0.5908 -0.6378
 4906TIP3   OH236208   0.316   2.261   1.150 -0.2098 -0.4359 -0.4137
 4906TIP3    H136209   0.375   2.317   1.100 -1.4459  0.6602 -0.7122
 4906TIP3    H236210   0.233   2.308   1.151 -1.7090 -2.8214 -1.7869
 4907TIP3   OH236211   5.590   1.287  10.510 -0.2182  0.4456  0.1072
 4907TIP3    H136212   5.547   1.208  10.477  1.0426 -0.2997  0.2107
 4907TIP3    H236213   5.542   1.359  10.469 -2.1926 -0.3028  0.9822
 4908TIP3   OH236214   2.711   3.487   0.656  0.0286  0.0842  0.8771
 4908TIP3    H136215   2.713   3.579   0.683 -1.9729  0.5833 -0.5212
 4908TIP3    H236216   2.745   3.486   0.567  1.6565 -0.8381  1.4423
 4909TIP3   OH236217   4.142   2.502   4.281 -0.3053  0.3255  0.5537
 4909TIP3    H136218   4.084   2.439   4.324  0.4631  0.1536  1.3800
 4909TIP3    H236219   4.118   2.498   4.189 -1.9942  0.6848  0.9459
 4910TIP3   OH236220   2.824   0.460  16.207 -0.5368  0.1119 -0.2169
 4910TIP3    H136221   2.916   0.486  16.200 -0.4489 -0.2789 -0.5596
 4910TIP3    H236222   2.779   0.514  16.141 -0.4168 -0.3037 -0.6471
 4911TIP3   OH236223   0.962   6.692  14.340 -1.1367 -0.0607 -0.5419
 4911TIP3    H136224   0.931   6.756  14.275 -0.3577  1.0005  0.1070
 4911TIP3    H236225   0.893   6.692  14.407 -0.0790  1.8811  0.6199
 4912TIP3   OH236226   0.409   1.433   5.592  0.7449 -0.1188  0.4990
 4912TIP3    H136227   0.351   1.492   5.545  0.9261 -0.9425 -0.8235
 4912TIP3    H236228   0.429   1.478   5.674  0.9870  1.7178 -0.5181
 4913TIP3   OH236229   6.617   2.789  17.284  0.1191  0.3096  0.2428
 4913TIP3    H136230   6.579   2.874  17.307 -0.2724 -0.0918  1.1445
 4913TIP3    H236231   6.549   2.726  17.305  0.0791 -0.1829 -1.2428
 4914TIP3   OH236232   2.546   3.809  15.542  0.2779 -0.2857 -0.2788
 4914TIP3    H136233   2.462   3.808  15.587  0.6699 -0.1221  0.4771
 4914TIP3    H236234   2.605   3.760  15.599  1.4771  2.2263  0.8306
 4915TIP3   OH236235   5.131   0.836  13.650  0.1733  0.3808  0.3442
 4915TIP3    H136236   5.202   0.860  13.709  1.4395 -2.5625  0.2392
 4915TIP3    H236237   5.059   0.810  13.707 -0.4896  2.3243  0.4586
 4916TIP3   OH236238   3.452   2.554  11.033 -0.0892  0.5209  0.0963
 4916TIP3    H136239   3.394   2.543  10.958  2.7075 -1.1093 -1.9944
 4916TIP3    H236240   3.393   2.558  11.109 -2.8982 -0.6883 -1.8886
 4917TIP3   OH236241   3.146   4.589   4.106 -0.6045  0.4181  0.1614
 4917TIP3    H136242   3.216   4.649   4.129 -1.0293  0.0406  2.6305
 4917TIP3    H236243   3.188   4.503   4.100 -0.6689  0.3686  0.4489
 4918TIP3   OH236244   0.525   2.887   4.994  0.1902  0.1310  0.7210
 4918TIP3    H136245   0.558   2.807   5.033 -0.3017  0.4864  1.9044
 4918TIP3    H236246   0.598   2.920   4.941  0.0817 -1.5567 -0.5382
 4919TIP3   OH236247   4.810   3.490  14.928 -0.3150 -0.9848  0.1105
 4919TIP3    H136248   4.867   3.414  14.916 -0.5573 -0.9800 -1.2005
 4919TIP3    H236249   4.786   3.516  14.839 -2.9161 -1.4266  0.6072
 4920TIP3   OH236250   0.240   2.159   5.284 -0.4455  0.3865 -0.1944
 4920TIP3    H136251   0.267   2.223   5.219 -0.4085  1.2487  0.6486
 4920TIP3    H236252   0.242   2.075   5.238  1.5550  0.7039 -0.7454
 4921TIP3   OH236253   0.145   3.782  12.165  0.2636  0.4547  0.0769
 4921TIP3    H136254   0.157   3.692  12.133  1.1632  0.6768 -0.2482
 4921TIP3    H236255   0.233   3.811  12.188 -0.2145  0.7180  1.6864
 4922TIP3   OH236256   6.134   6.651  12.009 -0.1999 -0.0381 -0.4027
 4922TIP3    H136257   6.214   6.607  12.037  0.3447  0.8418 -0.5085
 4922TIP3    H236258   6.102   6.695  12.088 -1.4808 -1.6749  0.0315
 4923TIP3   OH236259   4.783   4.993  16.719  0.0235  0.4505 -0.9328
 4923TIP3    H136260   4.877   4.983  16.702  0.2168  0.8390 -0.1248
 4923TIP3    H236261   4.777   5.061  16.786 -0.7031 -1.0333  0.5716
 4924TIP3   OH236262   4.983   6.229  15.283  0.5190 -0.1147  0.1310
 4924TIP3    H136263   4.893   6.210  15.308  0.3736  0.7740  0.3350
 4924TIP3    H236264   4.976   6.307  15.227  1.1239 -0.2447 -0.1293
 4925TIP3   OH236265   3.319   3.756   1.413 -0.5066  0.7195  0.5229
 4925TIP3    H136266   3.326   3.678   1.358  1.2901  1.1821  0.0304
 4925TIP3    H236267   3.293   3.722   1.499 -0.6284 -0.3094  0.0996
 4926TIP3   OH236268   1.560   6.588   0.441  0.1755  0.2289  0.3808
 4926TIP3    H136269   1.576   6.494   0.432  1.8950  0.3125  1.9962
 4926TIP3    H236270   1.598   6.610   0.526 -1.0398  2.2244  0.4425
 4927TIP3   OH236271   1.079   0.004  12.114  0.3356 -0.3470 -0.2190
 4927TIP3    H136272   1.021   0.079  12.124 -0.0331 -0.7783  0.9757
 4927TIP3    H236273   1.143   0.033  12.049 -0.2764  0.7013 -0.3874
 4928TIP3   OH236274   4.950   6.650   0.632 -0.2808  0.3786 -0.5860
 4928TIP3    H136275   4.966   6.743   0.619 -0.3313  0.3680 -0.7180
 4928TIP3    H236276   4.966   6.636   0.726 -2.1096  0.8982 -0.1537
 4929TIP3   OH236277   4.220   2.836  12.016  0.2035 -0.3392 -0.0381
 4929TIP3    H136278   4.149   2.773  12.022 -0.1204 -0.0087 -0.3445
 4929TIP3    H236279   4.279   2.800  11.949 -0.7882  0.4519 -1.3850
 4930TIP3   OH236280   6.360   3.021  17.140 -0.1566 -0.2744 -0.5155
 4930TIP3    H136281   6.424   3.025  17.069  0.3475 -0.9075 -0.1092
 4930TIP3    H236282   6.411   3.039  17.219 -0.1461 -2.2800 -0.0087
 4931TIP3   OH236283   0.882   3.809  15.003 -0.0101 -0.4502 -0.3575
 4931TIP3    H136284   0.790   3.825  15.020 -0.3473 -1.0004 -1.5588
 4931TIP3    H236285   0.904   3.866  14.930  1.0061  0.7613  0.8347
 4932TIP3   OH236286   4.562   6.652  12.104  0.1423 -0.6177  0.3504
 4932TIP3    H136287   4.490   6.706  12.135 -1.3954 -2.8798  1.0327
 4932TIP3    H236288   4.602   6.616  12.184  1.5130 -0.0662 -0.0546
 4933TIP3   OH236289   2.048   0.336  15.470 -0.0208 -0.0787 -0.0018
 4933TIP3    H136290   2.086   0.266  15.417  1.3256 -0.1294  0.9540
 4933TIP3    H236291   2.121   0.367  15.524 -0.7273  1.6666  0.0316
 4934TIP3   OH236292   5.451   2.058   3.354 -0.3016  0.1848 -0.1695
 4934TIP3    H136293   5.422   2.091   3.269 -0.9802 -0.6254 -0.2700
 4934TIP3    H236294   5.473   1.967   3.338 -1.3103 -0.2363  0.6925
 4935TIP3   OH236295   0.084   0.204  11.435 -0.3821 -0.7415 -0.2320
 4935TIP3    H136296   0.058   0.293  11.411 -0.5316 -1.0919 -1.4795
 4935TIP3    H236297   0.124   0.169  11.355  1.5100 -1.1339  0.8169
 4936TIP3   OH236298   6.238   5.002   1.864 -0.0448  0.2293 -0.2620
 4936TIP3    H136299   6.286   5.074   1.904 -1.1064  0.0887  1.3776
 4936TIP3    H236300   6.152   5.040   1.842  0.3720  0.1921 -2.0964
 4937TIP3   OH236301   2.574   4.497  15.108  0.5428 -0.2594 -0.2236
 4937TIP3    H136302   2.518   4.523  15.034  2.1470  0.1418 -1.3530
 4937TIP3    H236303   2.522   4.519  15.185 -0.6684  0.5487 -1.2092
 4938TIP3   OH236304   2.611   0.565   5.258 -0.1152  0.2141  0.2783
 4938TIP3    H136305   2.702   0.537   5.250 -0.1640 -1.2608  3.2934
 4938TIP3    H236306   2.601   0.634   5.193  3.1900  0.5494 -0.0449
 4939TIP3   OH236307   4.855   1.755  11.525 -0.0834  0.2643  0.3388
 4939TIP3    H136308   4.855   1.839  11.571 -0.1108 -0.0913  1.0082
 4939TIP3    H236309   4.807   1.696  11.584 -0.4442 -0.1106 -0.3277
 4940TIP3   OH236310   3.768   4.753  10.762  0.0831 -0.1902 -0.2275
 4940TIP3    H136311   3.683   4.718  10.790 -0.8616  1.7391 -0.5334
 4940TIP3    H236312   3.832   4.711  10.820 -0.9356 -2.4075 -0.6087
 4941TIP3   OH236313   4.215   5.915  12.328  0.1323 -0.3088  0.0873
 4941TIP3    H136314   4.263   5.951  12.254  1.1879  0.2540  1.0120
 4941TIP3    H236315   4.231   5.821  12.324  0.1554 -0.2851 -0.4116
 4942TIP3   OH236316   4.309   1.348  16.826 -0.2549  0.1651  0.7897
 4942TIP3    H136317   4.229   1.328  16.778 -0.3011 -0.1775  1.0031
 4942TIP3    H236318   4.325   1.270  16.880  0.2532  0.2058  0.7061
 4943TIP3   OH236319   2.343   5.769   5.122 -0.0192 -0.1241  0.3201
 4943TIP3    H136320   2.368   5.686   5.081 -0.5150  1.0106 -2.4953
 4943TIP3    H236321   2.418   5.826   5.108 -1.1828  1.0622 -1.4555
 4944TIP3   OH236322   6.315   0.470  12.976 -0.1674 -0.2152  0.2591
 4944TIP3    H136323   6.331   0.527  12.900 -0.7287  1.3274  1.2602
 4944TIP3    H236324   6.394   0.416  12.981  0.8824  1.1992 -0.1100
 4945TIP3   OH236325   1.529   6.534   4.445  0.0035 -0.0277  0.2606
 4945TIP3    H136326   1.470   6.459   4.448 -2.3241  1.6983  0.5319
 4945TIP3    H236327   1.472   6.609   4.431  2.0858  1.8517  1.1566
 4946TIP3   OH236328   2.554   6.081   0.093 -0.8711  0.1271 -0.0032
 4946TIP3    H136329   2.470   6.051   0.058  0.5332 -4.3182 -0.1616
 4946TIP3    H236330   2.549   6.063   0.187 -0.1791  0.0050  0.0177
 4947TIP3   OH236331   1.289   3.559  12.858 -0.1166 -0.1403 -0.5352
 4947TIP3    H136332   1.358   3.553  12.924  1.3315  0.8766 -1.8632
 4947TIP3    H236333   1.234   3.483  12.874  1.2464 -0.9327  0.6845
 4948TIP3   OH236334   1.860   6.216   3.093 -0.0998  0.2599 -0.4620
 4948TIP3    H136335   1.779   6.219   3.042 -0.6406  0.6466  0.4129
 4948TIP3    H236336   1.834   6.188   3.180  0.6948  0.4567 -0.1488
 4949TIP3   OH236337   2.884   4.466  16.959 -0.1429  0.3570  0.6659
 4949TIP3    H136338   2.973   4.445  16.932  0.0522 -0.1247  1.6289
 4949TIP3    H236339   2.883   4.561  16.966  0.3874  0.3441  0.9456
 4950TIP3   OH236340   3.436   5.263   2.852 -0.7831 -0.5967 -0.0357
 4950TIP3    H136341   3.451   5.331   2.787  0.7092  1.2303  2.0890
 4950TIP3    H236342   3.341   5.256   2.858 -0.9466  0.2626 -1.3177
 4951TIP3   OH236343   0.223   4.928   3.473  0.3503  0.5600  0.0449
 4951TIP3    H136344   0.160   4.893   3.411 -0.1476 -0.3598  1.0431
 4951TIP3    H236345   0.201   4.886   3.557  3.0840 -0.8372  0.1709
 4952TIP3   OH236346   0.573   3.587   0.130  0.2281 -0.3141 -0.2940
 4952TIP3    H136347   0.595   3.500   0.099  1.6281 -0.0693 -0.0674
 4952TIP3    H236348   0.584   3.643   0.053  0.2196 -0.2118 -0.2212
 4953TIP3   OH236349   0.788   1.138   0.300 -0.3237 -0.1654  0.2859
 4953TIP3    H136350   0.707   1.187   0.310 -0.4156 -0.2236 -0.1340
 4953TIP3    H236351   0.770   1.076   0.229  0.5670  0.8491 -0.8864
 4954TIP3   OH236352   5.643   5.296   0.647 -0.1235 -0.0045  0.5401
 4954TIP3    H136353   5.650   5.293   0.743 -1.5941  1.0879  0.7051
 4954TIP3    H236354   5.557   5.333   0.630  0.9795  1.9827 -1.2007
 4955TIP3   OH236355   4.073   2.619  14.310 -0.0232  0.5493 -0.6502
 4955TIP3    H136356   4.063   2.630  14.215 -1.8984  0.3141 -0.5282
 4955TIP3    H236357   4.101   2.528  14.321 -3.1667 -0.6078 -0.9260
 4956TIP3   OH236358   6.367   1.880  15.084  0.4675 -0.0661 -0.4313
 4956TIP3    H136359   6.457   1.855  15.105  0.2088 -1.5562 -1.0096
 4956TIP3    H236360   6.329   1.903  15.169  0.3892 -2.8708  0.3967
 4957TIP3   OH236361   2.431   4.748  11.247  0.3081  0.3189 -0.1190
 4957TIP3    H136362   2.454   4.669  11.197 -1.4493  1.6077 -3.2588
 4957TIP3    H236363   2.468   4.820  11.196  0.3655  1.6487  1.7257
 4958TIP3   OH236364   2.596   4.122  11.876  0.3083  0.0308  0.1818
 4958TIP3    H136365   2.655   4.091  11.808  0.1922 -2.7654  1.2308
 4958TIP3    H236366   2.552   4.043  11.907 -0.8508  1.4480  2.3738
 4959TIP3   OH236367   6.804   6.677  12.738 -0.4342  0.3680 -0.2033
 4959TIP3    H136368   6.846   6.724  12.666  1.3288  0.2199  0.6766
 4959TIP3    H236369   6.822   6.730  12.815 -1.1024 -0.1737  0.3332
 4960TIP3   OH236370   0.207   1.341  13.206 -0.6501 -0.5712  0.2628
 4960TIP3    H136371   0.206   1.314  13.298  1.3506 -0.2078  0.4389
 4960TIP3    H236372   0.272   1.284  13.165 -0.8403 -0.1069 -0.7188
 4961TIP3   OH236373   1.426   0.802   6.332  0.0375  0.3736 -0.3898
 4961TIP3    H136374   1.343   0.757   6.318 -0.3691  1.0560 -0.1991
 4961TIP3    H236375   1.442   0.850   6.251  0.2374  0.2477 -0.4236
 4962TIP3   OH236376   2.111   2.656   0.013  0.7474  0.4767  0.1110
 4962TIP3    H136377   2.206   2.653   0.012  0.9281  1.9781  2.5972
 4962TIP3    H236378   2.088   2.712  -0.061  1.5670 -1.7949 -1.9600
 4963TIP3   OH236379   6.756   5.388   0.957  0.0436  0.2945 -0.4153
 4963TIP3    H136380   6.731   5.481   0.955  0.7394  0.4921 -0.1296
 4963TIP3    H236381   6.817   5.379   0.884  1.4341  0.5012  0.6715
 4964TIP3   OH236382   1.154   0.306  12.364  0.6124 -0.0904 -0.1754
 4964TIP3    H136383   1.232   0.325  12.417  1.5509 -1.2601 -1.0934
 4964TIP3    H236384   1.155   0.211  12.354 -1.2249 -0.1850  0.1946
 4965TIP3   OH236385   2.967   0.312  14.560 -0.3215 -0.1582  0.2398
 4965TIP3    H136386   3.015   0.254  14.500 -0.8671 -1.5640  1.1105
 4965TIP3    H236387   3.028   0.326  14.632 -0.5096 -0.3668  0.4388
 4966TIP3   OH236388   2.409   4.402  15.680  0.0635  0.0707 -0.5714
 4966TIP3    H136389   2.483   4.451  15.645 -0.5642  1.0516 -0.5486
 4966TIP3    H236390   2.372   4.357  15.604  0.1076  0.3373 -0.7518
 4967TIP3   OH236391   0.561   5.532   1.177 -0.1724  0.1743  0.2137
 4967TIP3    H136392   0.507   5.453   1.186  0.4052 -0.2321  0.1953
 4967TIP3    H236393   0.587   5.532   1.085  0.3797  0.0172  0.3684
 4968TIP3   OH236394   4.714   5.855  16.218  0.0231 -0.1234  0.8489
 4968TIP3    H136395   4.706   5.762  16.238 -1.5373  0.1556  1.6787
 4968TIP3    H236396   4.775   5.859  16.144 -0.8846 -1.8931 -0.0427
 4969TIP3   OH236397   1.946   2.542   4.443  0.3956 -0.6953 -0.1473
 4969TIP3    H136398   1.975   2.611   4.502 -1.5074 -0.3690  0.4789
 4969TIP3    H236399   1.999   2.554   4.364  1.1309  0.5349  0.5074
 4970TIP3   OH236400   2.786   6.541  14.089 -0.0975 -0.1775 -0.3162
 4970TIP3    H136401   2.750   6.584  14.012  0.6284  2.2643  0.6070
 4970TIP3    H236402   2.880   6.536  14.072 -0.2416 -2.2098 -0.7260
 4971TIP3   OH236403   2.081   0.762  12.002  0.2142  0.5154 -0.6919
 4971TIP3    H136404   2.025   0.742  11.927  0.6399 -0.1361 -0.8408
 4971TIP3    H236405   2.068   0.689  12.063  1.8486 -0.3395 -1.2847
 4972TIP3   OH236406   1.281   3.363  11.692  0.6512 -0.7927  0.0793
 4972TIP3    H136407   1.367   3.403  11.704  0.2494  0.0511  0.2324
 4972TIP3    H236408   1.296   3.292  11.630  1.2993 -0.0784 -0.5963
 4973TIP3   OH236409   1.275   4.597   0.475  0.4847 -0.3607  0.1269
 4973TIP3    H136410   1.360   4.619   0.514  0.5681 -1.0942  0.3823
 4973TIP3    H236411   1.242   4.526   0.530 -0.5089  0.2268  0.3108
 4974TIP3   OH236412   1.483   2.401   1.858  0.0693  0.3795 -0.8450
 4974TIP3    H136413   1.502   2.482   1.811  0.2781 -0.0574 -1.5413
 4974TIP3    H236414   1.390   2.387   1.844 -0.0737  0.7699 -0.2839
 4975TIP3   OH236415   4.351   0.151  15.570 -0.2869  0.6856  0.2143
 4975TIP3    H136416   4.340   0.246  15.567  1.1047  0.8782 -3.2008
 4975TIP3    H236417   4.444   0.136  15.556 -0.7264 -1.1792 -1.1706
 4976TIP3   OH236418   1.515   4.100   3.483  0.0441  0.1828  0.0879
 4976TIP3    H136419   1.548   4.189   3.473 -1.2016  0.8280  1.2965
 4976TIP3    H236420   1.490   4.094   3.575 -4.3784  0.3064 -0.8514
 4977TIP3   OH236421   0.137   1.044  13.849  0.0456 -0.0376 -0.4793
 4977TIP3    H136422   0.068   1.070  13.911 -0.2923 -0.6414 -0.6012
 4977TIP3    H236423   0.188   0.980  13.897 -0.8283 -1.2851 -1.1653
 4978TIP3   OH236424   3.793   5.022   4.771 -0.1812  0.0059 -0.7993
 4978TIP3    H136425   3.848   4.971   4.712  2.2048  0.1128  1.1606
 4978TIP3    H236426   3.823   5.112   4.760 -0.6695  0.2162 -0.4503
 4979TIP3   OH236427   6.314   2.108   0.086 -0.2129 -0.8449  0.4524
 4979TIP3    H136428   6.267   2.140   0.009  0.5078 -0.1797  0.2715
 4979TIP3    H236429   6.293   2.015   0.090 -1.9039 -0.4980  0.6471
 4980TIP3   OH236430   2.181   2.936   2.710 -0.0462 -0.4607  0.0150
 4980TIP3    H136431   2.136   3.020   2.719 -0.8602 -0.7874 -0.8633
 4980TIP3    H236432   2.132   2.890   2.641  0.3465 -1.6738  0.5247
 4981TIP3   OH236433   4.514   4.970  16.108  0.3856 -0.1537  0.4327
 4981TIP3    H136434   4.492   4.908  16.038 -1.4970  1.6180 -0.6447
 4981TIP3    H236435   4.598   5.007  16.081 -0.0111  0.0414 -0.6065
 4982TIP3   OH236436   4.328   5.424  15.910  0.5458  0.7285  0.2915
 4982TIP3    H136437   4.295   5.499  15.960  2.3331  1.0049  1.1265
 4982TIP3    H236438   4.323   5.351  15.971 -0.3733  0.3177 -0.2451
 4983TIP3   OH236439   6.604   6.383  12.208  0.4569  0.5918 -0.1990
 4983TIP3    H136440   6.663   6.412  12.278 -0.1618  0.5867  0.3337
 4983TIP3    H236441   6.662   6.352  12.139  1.1773 -2.4946  1.5696
 4984TIP3   OH236442   1.556   2.528  15.335  0.2584  0.2338 -0.2245
 4984TIP3    H136443   1.532   2.617  15.361 -0.1736  0.4933 -1.4501
 4984TIP3    H236444   1.513   2.472  15.400 -0.5193  0.8661 -0.1744
 4985TIP3   OH236445   2.219   6.245  13.393  0.1711  0.0172  0.0216
 4985TIP3    H136446   2.267   6.293  13.461  0.3952  1.2235 -0.9587
 4985TIP3    H236447   2.288   6.209  13.336 -0.0170 -0.9625  0.3870
 4986TIP3   OH236448   5.521   2.250  13.436 -0.1097 -0.6214 -0.3722
 4986TIP3    H136449   5.470   2.286  13.509  0.4112 -1.9637  0.7106
 4986TIP3    H236450   5.494   2.301  13.360 -1.2750  0.2949  0.6136
 4987TIP3   OH236451   1.807   5.286   5.819 -0.1447  0.6819  0.4337
 4987TIP3    H136452   1.839   5.334   5.895  1.1558  0.5383  0.0021
 4987TIP3    H236453   1.785   5.199   5.853  1.4353  0.2762  0.4843
 4988TIP3   OH236454   5.754   1.912   2.499 -0.3777 -0.1351  0.2904
 4988TIP3    H136455   5.741   1.818   2.506 -1.1772  0.0194  0.9884
 4988TIP3    H236456   5.849   1.924   2.500 -0.2381 -0.9980 -0.8350
 4989TIP3   OH236457   2.737   4.301  15.901 -0.1686 -0.2362 -0.1273
 4989TIP3    H136458   2.778   4.223  15.938  0.2031  0.8626  1.8849
 4989TIP3    H236459   2.802   4.335  15.839  0.2661 -0.7301  0.0498
 4990TIP3   OH236460   2.537   1.573  16.664  0.4841 -0.1158  0.3557
 4990TIP3    H136461   2.466   1.594  16.602  0.0140 -0.1649  0.8733
 4990TIP3    H236462   2.607   1.540  16.608 -0.1725 -0.7845 -0.0990
 4991TIP3   OH236463   2.480   5.344   3.084  0.0731  0.4983  0.0682
 4991TIP3    H136464   2.480   5.249   3.091 -2.0214  0.4939  0.6468
 4991TIP3    H236465   2.561   5.372   3.126  0.9782 -1.0434 -0.5899
 4992TIP3   OH236466   0.724   5.279  11.661  0.0406 -0.5781  0.1737
 4992TIP3    H136467   0.801   5.327  11.633 -0.3092 -1.0681 -1.7314
 4992TIP3    H236468   0.711   5.213  11.594 -1.2898 -1.3382  1.1400
 4993TIP3   OH236469   1.224   0.126  13.163  0.2272 -0.4143 -0.4208
 4993TIP3    H136470   1.171   0.083  13.231 -1.1821 -0.5284 -1.5648
 4993TIP3    H236471   1.209   0.074  13.084  0.9891  0.3608 -1.0975
 4994TIP3   OH236472   3.200   5.127   5.899 -0.3374  0.4329 -0.4122
 4994TIP3    H136473   3.213   5.036   5.925 -0.8823  1.0106  2.0636
 4994TIP3    H236474   3.288   5.164   5.897 -0.1912  0.0815 -0.5850
 4995TIP3   OH236475   1.695   1.822  15.193  0.2571 -0.0189  0.3274
 4995TIP3    H136476   1.666   1.855  15.108 -0.3370  2.4241  1.3801
 4995TIP3    H236477   1.614   1.804  15.241  0.5748 -0.5700  0.6657
 4996TIP3   OH236478   5.086   6.222   0.514 -0.2437 -0.2689  0.7368
 4996TIP3    H136479   5.035   6.174   0.449 -0.9619  0.2747  0.8858
 4996TIP3    H236480   5.174   6.228   0.476 -0.8432  0.7673 -0.5904
 4997TIP3   OH236481   0.096   3.189  15.080  0.2936  0.4598 -0.4196
 4997TIP3    H136482   0.108   3.145  14.996 -2.6090 -0.1436 -0.6093
 4997TIP3    H236483   0.167   3.254  15.083  1.7603 -0.9432 -2.3152
 4998TIP3   OH236484   3.660   4.296  13.114 -0.0456 -0.4609  0.5545
 4998TIP3    H136485   3.691   4.378  13.152 -1.1431 -0.5633  1.7451
 4998TIP3    H236486   3.621   4.249  13.187 -0.0870 -1.7440 -0.2529
 4999TIP3   OH236487   2.697   2.828  11.095 -0.4277 -0.2818 -0.1236
 4999TIP3    H136488   2.708   2.737  11.065 -0.4115 -1.0780  2.1204
 4999TIP3    H236489   2.707   2.880  11.015 -0.1502 -2.2177 -1.4408
 5000TIP3   OH236490   4.846   3.230  12.750 -0.2211 -0.6345  0.6157
 5000TIP3    H136491   4.770   3.174  12.737  0.1465 -0.8346 -0.7560
 5000TIP3    H236492   4.836   3.301  12.688  0.2401 -0.1450  1.0872
 5001TIP3   OH236493   5.383   5.318   4.653  0.2413  0.5476 -0.0669
 5001TIP3    H136494   5.373   5.281   4.741 -0.8921  1.6209  0.2982
 5001TIP3    H236495   5.465   5.367   4.657  1.2627 -1.0913 -0.2698
 5002TIP3   OH236496   5.512   2.542  12.410  0.1398 -0.3339 -0.5652
 5002TIP3    H136497   5.555   2.624  12.385 -0.0120 -0.0618  0.0329
 5002TIP3    H236498   5.528   2.483  12.337  0.5480  0.1234 -0.8528
 5003TIP3   OH236499   0.588   2.523  12.129  0.6122  0.7397  0.2450
 5003TIP3    H136500   0.507   2.483  12.160 -0.0269  2.4162  0.8520
 5003TIP3    H236501   0.629   2.455  12.076 -0.6230 -0.5457  0.8528
 5004TIP3   OH236502   2.151   3.916   6.788  0.3015 -0.3059 -0.6433
 5004TIP3    H136503   2.202   3.846   6.828  1.0589  0.2588 -0.6057
 5004TIP3    H236504   2.214   3.985   6.770 -0.5514  0.7004  0.0634
 5005TIP3   OH236505   1.464   3.020   2.258 -0.1297 -0.3612  0.0018
 5005TIP3    H136506   1.515   2.958   2.310 -1.2752 -0.7362  0.7176
 5005TIP3    H236507   1.487   3.000   2.167  3.0145  1.2610  0.3020
 5006TIP3   OH236508   6.446   3.287  10.692 -0.1787 -0.1232  0.5875
 5006TIP3    H136509   6.405   3.213  10.648  0.6388 -0.4795  0.4079
 5006TIP3    H236510   6.390   3.362  10.670 -0.6924 -0.5842  0.3015
 5007TIP3   OH236511   5.857   0.026   2.889  0.0264 -0.3463  0.2336
 5007TIP3    H136512   5.794   0.006   2.958  1.4508 -1.5063  1.2594
 5007TIP3    H236513   5.919  -0.046   2.891  0.1052 -0.4466 -2.3320
 5008TIP3   OH236514   1.829   0.301   4.855 -0.7709 -0.3175 -0.3983
 5008TIP3    H136515   1.890   0.352   4.909 -3.8916  0.8677  2.4203
 5008TIP3    H236516   1.823   0.216   4.899 -1.9028 -0.0227  0.0680
 5009TIP3   OH236517   5.960   1.092   0.312  0.4392 -0.0911  0.4675
 5009TIP3    H136518   5.889   1.072   0.373 -1.3713  0.5618 -1.2794
 5009TIP3    H236519   5.979   1.009   0.269  0.4470 -0.1881  0.6570
 5010TIP3   OH236520   5.474   5.278   1.241  0.4454 -0.1803  0.7186
 5010TIP3    H136521   5.512   5.349   1.292 -0.0886 -0.5852  1.7268
 5010TIP3    H236522   5.419   5.321   1.176  0.9048  0.3463  0.6777
 5011TIP3   OH236523   0.002   5.006  11.772 -0.2547  0.2789 -0.0036
 5011TIP3    H136524   0.043   4.920  11.780  0.7003  0.8274  1.3326
 5011TIP3    H236525  -0.077   5.000  11.826 -0.5300  0.0477 -0.4279
 5012TIP3   OH236526   4.290   6.733   6.510  0.1160  0.5697 -0.5398
 5012TIP3    H136527   4.226   6.763   6.574 -0.0838 -1.0108  0.0556
 5012TIP3    H236528   4.251   6.754   6.426 -0.2689  1.4035 -0.1687
 5013TIP3   OH236529   2.728   3.456  14.346  0.1393  0.0378  0.1237
 5013TIP3    H136530   2.687   3.525  14.397 -0.9807  0.2049 -0.9662
 5013TIP3    H236531   2.817   3.449  14.382  0.1626  1.7945  0.4899
 5014TIP3   OH236532   3.801   3.621   5.426  0.2168  0.5057  0.0288
 5014TIP3    H136533   3.751   3.587   5.352 -0.0008 -3.4118  1.7335
 5014TIP3    H236534   3.892   3.614   5.398  0.0663  1.7652 -0.8432
 5015TIP3   OH236535   0.912   2.690  15.725  0.3661 -0.2660  0.2063
 5015TIP3    H136536   0.911   2.723  15.815  1.4918  2.0004 -0.5381
 5015TIP3    H236537   0.849   2.745  15.679  2.1108  0.7995 -1.0267
 5016TIP3   OH236538   3.528   3.200   4.171  0.1376  0.3484  0.3723
 5016TIP3    H136539   3.442   3.158   4.164  0.4766 -0.4280  0.7588
 5016TIP3    H236540   3.585   3.133   4.209  1.2111  0.4288 -0.9833
 5017TIP3   OH236541   5.068   0.073  14.878  0.9896  0.5699 -0.1478
 5017TIP3    H136542   5.120   0.153  14.886  0.3817  0.9597  0.0205
 5017TIP3    H236543   5.046   0.067  14.786  1.3570  0.3835 -0.2259
 5018TIP3   OH236544   2.309   3.586  14.324 -0.2692  0.0209  0.2594
 5018TIP3    H136545   2.297   3.495  14.349 -1.0695 -0.0064 -0.1878
 5018TIP3    H236546   2.395   3.610  14.360  0.1387 -1.0289  0.0204
 5019TIP3   OH236547   0.969   2.224  12.674  0.2358 -0.5805 -0.3219
 5019TIP3    H136548   0.964   2.138  12.631  0.6250  0.0316 -1.6509
 5019TIP3    H236549   0.920   2.282  12.616  1.8166  0.5194 -0.6112
 5020TIP3   OH236550   1.650   6.447  11.411 -0.0646  0.7053 -0.2472
 5020TIP3    H136551   1.617   6.482  11.494  0.8549  1.2407 -0.0965
 5020TIP3    H236552   1.602   6.365  11.399 -2.0252  1.8151 -0.4363
 5021TIP3   OH236553   3.551   6.536   1.473  0.1515  0.0807 -0.5497
 5021TIP3    H136554   3.645   6.538   1.493  0.9517 -3.1783 -3.1962
 5021TIP3    H236555   3.523   6.448   1.498 -2.2316  0.9183 -0.0086
 5022TIP3   OH236556   3.666   2.926   1.669 -0.0049  0.1312 -0.0934
 5022TIP3    H136557   3.731   2.990   1.639 -1.9778  1.6828 -1.2913
 5022TIP3    H236558   3.648   2.873   1.592 -1.2604  0.7214 -0.2242
 5023TIP3   OH236559   6.634   5.214   4.270  0.2863 -0.2021 -0.2057
 5023TIP3    H136560   6.556   5.220   4.215  0.2400 -0.7591 -0.2056
 5023TIP3    H236561   6.626   5.129   4.315  1.0294 -0.4007 -0.4313
 5024TIP3   OH236562   3.200   3.998   2.736 -0.2415 -0.4712  0.8036
 5024TIP3    H136563   3.262   3.944   2.783  0.0744  0.2646  1.2495
 5024TIP3    H236564   3.114   3.964   2.762 -0.0530 -0.6460  1.2038
 5025TIP3   OH236565   1.648   4.228  15.539  0.3043  0.3287 -0.2507
 5025TIP3    H136566   1.672   4.236  15.632 -1.0080  0.3553  0.0980
 5025TIP3    H236567   1.679   4.140  15.515  0.6265  0.3095  0.2088
 5026TIP3   OH236568   0.372   0.530  14.611 -0.0423 -0.1614 -0.0116
 5026TIP3    H136569   0.312   0.567  14.547 -0.2275  1.8466  1.2434
 5026TIP3    H236570   0.316   0.501  14.683  0.3332 -0.0538  0.3325
 5027TIP3   OH236571   2.694   2.982  17.040 -0.0658 -0.1881 -0.6465
 5027TIP3    H136572   2.752   2.966  17.115 -1.3469  0.9718  0.6574
 5027TIP3    H236573   2.736   3.055  16.994 -0.3978  0.5814  0.2352
 5028TIP3   OH236574   5.528   6.689  14.065  0.4037 -0.1224  0.1891
 5028TIP3    H136575   5.527   6.750  13.992  0.4989  1.1816  1.2364
 5028TIP3    H236576   5.504   6.605  14.027  1.6843  0.2453 -1.5650
 5029TIP3   OH236577   6.412   2.272  16.125  0.0919 -0.6588  0.3156
 5029TIP3    H136578   6.425   2.341  16.060  0.2046 -0.8285  0.1560
 5029TIP3    H236579   6.412   2.317  16.209  1.1293 -0.5741  0.2821
 5030TIP3   OH236580   6.557   2.359   0.043  0.1358  0.5494  0.3693
 5030TIP3    H136581   6.511   2.443   0.040  0.1060  0.5133 -0.5056
 5030TIP3    H236582   6.631   2.370  -0.017 -1.1810 -0.7760 -1.6516
 5031TIP3   OH236583   0.842   2.534   0.409  0.4612  0.3562 -0.2503
 5031TIP3    H136584   0.899   2.468   0.370 -1.0105  0.6933 -3.2262
 5031TIP3    H236585   0.835   2.603   0.343 -0.5308  2.0544  1.4987
 5032TIP3   OH236586   2.435   1.493   2.940 -0.2643 -0.4961  0.4250
 5032TIP3    H136587   2.520   1.493   2.896 -0.4194  0.0932  0.1202
 5032TIP3    H236588   2.454   1.462   3.029  0.3472  0.1041  0.5105
 5033TIP3   OH236589   1.198   3.891   5.551 -1.0091  0.3347 -0.2716
 5033TIP3    H136590   1.216   3.820   5.612  1.0609  1.1407  0.1334
 5033TIP3    H236591   1.188   3.848   5.466  2.9121 -0.3884 -0.5683
 5034TIP3   OH236592   0.677   1.754  15.074 -0.2117 -0.5713 -0.4581
 5034TIP3    H136593   0.614   1.721  15.138 -0.0192 -0.6429 -0.3053
 5034TIP3    H236594   0.763   1.730  15.110  0.0486  1.7717  0.6543
 5035TIP3   OH236595   0.147   2.847  16.523  0.4771 -0.4474  0.0496
 5035TIP3    H136596   0.212   2.912  16.549 -0.0319  0.5115 -0.9930
 5035TIP3    H236597   0.177   2.765  16.562  1.8828  0.1338  0.2243
 5036TIP3   OH236598   5.501   5.486  12.582 -0.1578 -0.1220  0.2145
 5036TIP3    H136599   5.429   5.436  12.621 -1.2165  1.1784  0.0165
 5036TIP3    H236600   5.580   5.454  12.626 -0.7849 -1.9596  0.0629
 5037TIP3   OH236601   2.674   1.393  12.993 -0.0617  0.3067  0.5118
 5037TIP3    H136602   2.722   1.324  13.038 -0.5476  0.2031  0.8774
 5037TIP3    H236603   2.738   1.464  12.984  0.1996  0.1213  0.8684
 5038TIP3   OH236604   1.993   3.740   5.659 -0.3247 -0.6060 -0.1788
 5038TIP3    H136605   1.939   3.665   5.633 -1.7590  0.2230  0.3163
 5038TIP3    H236606   2.063   3.743   5.593 -1.3577 -1.1933 -1.3373
 5039TIP3   OH236607   0.405   0.128   2.732  0.0833  0.0146  0.0789
 5039TIP3    H136608   0.392   0.171   2.816 -1.0664  0.4267 -0.3001
 5039TIP3    H236609   0.500   0.130   2.719  0.4470 -1.4316  2.0633
 5040TIP3   OH236610   3.915   1.116   2.834 -0.2130  0.0983  0.8414
 5040TIP3    H136611   3.998   1.105   2.788 -0.5103 -1.7892  0.6845
 5040TIP3    H236612   3.903   1.035   2.883 -1.8116  0.4626  1.1337
 5041TIP3   OH236613   4.011   3.338  11.983 -0.3108  0.4386  0.2686
 5041TIP3    H136614   3.971   3.267  11.934  0.5147  0.3805 -0.3522
 5041TIP3    H236615   4.043   3.398  11.916  1.7155 -0.1224  0.6689
 5042TIP3   OH236616   5.167   2.733   2.189 -0.0621  0.0852 -0.0390
 5042TIP3    H136617   5.182   2.686   2.108  0.7999  0.3519 -0.0458
 5042TIP3    H236618   5.212   2.681   2.256 -1.6639 -0.7154  0.4694
 5043TIP3   OH236619   6.290   0.921  12.247  0.5112  0.0352  0.0331
 5043TIP3    H136620   6.294   0.832  12.282 -0.4195 -1.2649 -2.8747
 5043TIP3    H236621   6.196   0.940  12.241  0.6528  0.3893 -1.2607
 5044TIP3   OH236622   0.232   5.280   2.729  0.2604 -0.1560 -1.0089
 5044TIP3    H136623   0.305   5.253   2.786  1.4875  1.3362 -1.7967
 5044TIP3    H236624   0.214   5.371   2.755 -0.8418 -0.2642 -1.3435
 5045TIP3   OH236625   2.898   0.465  13.100 -0.1599 -0.4749 -0.1563
 5045TIP3    H136626   2.819   0.413  13.120 -0.2921  0.1938  1.1871
 5045TIP3    H236627   2.865   0.553  13.084  0.3529  0.0789  1.5362
 5046TIP3   OH236628   4.193   4.397  13.268 -0.4808 -0.0213 -0.0963
 5046TIP3    H136629   4.208   4.357  13.354  0.8677 -1.5130 -0.9752
 5046TIP3    H236630   4.117   4.350  13.233 -1.3876  0.9724  0.4649
 5047TIP3   OH236631   5.544   4.933  14.764 -0.4021 -0.2748 -0.1782
 5047TIP3    H136632   5.500   5.011  14.730  0.7662  0.9158  0.9772
 5047TIP3    H236633   5.591   4.963  14.842  1.9310 -1.6090 -0.9696
 5048TIP3   OH236634   2.107   1.138  10.781 -0.0307  0.1012  0.3751
 5048TIP3    H136635   2.136   1.166  10.694  2.4583  2.4825  1.8358
 5048TIP3    H236636   2.012   1.127  10.771  0.1553  0.2066 -2.6216
 5049TIP3   OH236637   4.856   3.988  16.594  0.1003 -0.0173  0.4774
 5049TIP3    H136638   4.936   4.019  16.636  0.5622 -0.0129 -0.3938
 5049TIP3    H236639   4.808   3.944  16.665  0.7371  0.2214  1.0722
 5050TIP3   OH236640   1.123   1.472  15.552  0.0581  0.4346  0.0187
 5050TIP3    H136641   1.168   1.543  15.506  3.2093  0.6470  3.0629
 5050TIP3    H236642   1.137   1.395  15.497 -0.1733  1.4157 -1.4788
 5051TIP3   OH236643   0.928   4.040   4.088 -0.0781 -0.4138 -0.5180
 5051TIP3    H136644   0.860   3.995   4.037  0.5110 -3.4022  1.0666
 5051TIP3    H236645   0.983   4.082   4.023 -1.7334 -0.4659 -2.0337
 5052TIP3   OH236646   4.493   2.532   4.009 -0.3104  0.0887  0.0417
 5052TIP3    H136647   4.510   2.593   4.081 -0.5342  2.0371 -1.4823
 5052TIP3    H236648   4.474   2.588   3.934 -2.5833 -1.8855 -0.9668
 5053TIP3   OH236649   6.385   2.582   4.269  0.5966  0.3577  0.1945
 5053TIP3    H136650   6.415   2.589   4.359  0.2424 -1.6858  0.5169
 5053TIP3    H236651   6.462   2.555   4.219  0.5339  0.3961  0.0755
 5054TIP3   OH236652   0.931   2.796  16.684 -0.3005  0.7764  0.2153
 5054TIP3    H136653   0.939   2.702  16.665  0.1414  1.3188 -2.7666
 5054TIP3    H236654   1.015   2.833  16.658 -1.0151  2.1961 -0.2029
 5055TIP3   OH236655   2.370   4.611  15.256  0.0516  0.1229 -0.9252
 5055TIP3    H136656   2.363   4.672  15.183 -1.0565 -0.3014 -1.2094
 5055TIP3    H236657   2.286   4.618  15.301 -0.1781 -1.2929 -1.0684
 5056TIP3   OH236658   1.361   5.217  13.654  0.1194 -0.0943  1.2271
 5056TIP3    H136659   1.276   5.261  13.651  0.5914  0.7621  0.2034
 5056TIP3    H236660   1.362   5.161  13.576  1.5585  1.9533 -0.3201
 5057TIP3   OH236661   4.182   1.745  13.554  0.0106 -0.7640  0.2302
 5057TIP3    H136662   4.165   1.684  13.482  0.9937  1.0868 -1.6672
 5057TIP3    H236663   4.095   1.776  13.580 -0.3624 -1.5075 -0.0934
 5058TIP3   OH236664   3.230   4.048  17.235 -0.0990  0.4694 -0.0027
 5058TIP3    H136665   3.203   4.107  17.164 -1.4724 -0.2115 -0.0862
 5058TIP3    H236666   3.219   3.960  17.199  0.9382  0.1354  0.4676
 5059TIP3   OH236667   5.761   1.564  16.946  0.1775  0.2510 -0.3787
 5059TIP3    H136668   5.815   1.600  16.876 -1.1938 -0.4493 -1.8704
 5059TIP3    H236669   5.672   1.589  16.922 -0.4138 -0.7686  0.6527
 5060TIP3   OH236670   1.830   3.346   2.386 -0.6089  1.1590 -0.1460
 5060TIP3    H136671   1.808   3.273   2.329  1.6748  1.5859 -1.7437
 5060TIP3    H236672   1.833   3.309   2.474 -1.1019 -0.2672 -0.7110
 5061TIP3   OH236673   5.279   5.245   4.923  0.1920 -0.2034  0.2070
 5061TIP3    H136674   5.283   5.275   5.014  0.8330 -1.7374  0.7341
 5061TIP3    H236675   5.185   5.244   4.902  0.0224 -0.0449  0.9290
 5062TIP3   OH236676   0.279   2.924  11.373  0.4708 -0.3135  0.3007
 5062TIP3    H136677   0.237   2.843  11.400  1.1641 -0.8060 -0.0737
 5062TIP3    H236678   0.350   2.896  11.315  1.3795  0.4854  0.9923
 5063TIP3   OH236679   1.419   4.476  15.686  0.0093  0.8758  0.1102
 5063TIP3    H136680   1.336   4.499  15.728 -0.2006 -0.7899  0.6777
 5063TIP3    H236681   1.394   4.443  15.600  0.2523  2.0143 -0.4182
 5064TIP3   OH236682   6.504   4.281   0.670 -0.1685  0.0225 -0.0488
 5064TIP3    H136683   6.482   4.364   0.713 -2.2162  0.4358 -1.6915
 5064TIP3    H236684   6.478   4.214   0.733 -2.2549  0.6198 -0.1775
 5065TIP3   OH236685   5.247   3.658  15.273 -0.6611 -0.3246  0.3281
 5065TIP3    H136686   5.312   3.645  15.343 -0.8283 -0.1414  0.5211
 5065TIP3    H236687   5.166   3.676  15.320 -1.4003 -2.8192  0.1555
 5066TIP3   OH236688   3.771   4.057   5.519  0.5718  0.0801 -0.1827
 5066TIP3    H136689   3.817   4.006   5.585  1.2781 -0.2013 -0.8746
 5066TIP3    H236690   3.725   4.125   5.568  1.9837  0.5719  0.4962
 5067TIP3   OH236691   5.307   0.197   2.556 -0.4319 -0.1813  0.0936
 5067TIP3    H136692   5.269   0.115   2.589 -2.6834  0.3496 -1.0375
 5067TIP3    H236693   5.238   0.262   2.567  1.3674  1.6828  1.1253
 5068TIP3   OH236694   6.132   3.054   5.092  0.3124  0.5613 -0.6340
 5068TIP3    H136695   6.181   3.019   5.018 -0.8771  0.4200 -1.3783
 5068TIP3    H236696   6.198   3.099   5.145  0.9005  2.8868 -3.0739
 5069TIP3   OH236697   1.345   5.055   5.375 -0.3436  0.2281 -0.3058
 5069TIP3    H136698   1.396   5.136   5.374  0.0390 -0.0050 -0.0507
 5069TIP3    H236699   1.298   5.058   5.458 -0.5745  0.3369 -0.4399
 5070TIP3   OH236700   4.440   5.463   1.102 -0.1176 -0.0820 -0.3932
 5070TIP3    H136701   4.500   5.536   1.085  1.0185 -0.2487  2.3420
 5070TIP3    H236702   4.354   5.504   1.107  0.1677  0.6619 -1.2914
 5071TIP3   OH236703   2.037   3.966   5.288  0.2544  0.5106  0.0424
 5071TIP3    H136704   1.949   3.967   5.325  0.2329 -3.5113  0.5359
 5071TIP3    H236705   2.029   3.915   5.207  2.1553 -0.4162  0.3729
 5072TIP3   OH236706   2.444   6.623   4.101 -0.2993 -0.2673 -0.5987
 5072TIP3    H136707   2.465   6.534   4.126 -2.0915 -0.2874  1.1205
 5072TIP3    H236708   2.529   6.665   4.085  0.9612 -1.0006  3.1844
 5073TIP3   OH236709   1.352   5.428  11.505  0.2732  0.0636 -0.3753
 5073TIP3    H136710   1.305   5.403  11.585  0.3017 -0.7555 -0.6059
 5073TIP3    H236711   1.287   5.476  11.453  0.1877  0.3978  0.0284
 5074TIP3   OH236712   0.077   5.037   0.266  0.3479 -0.0059  0.5466
 5074TIP3    H136713   0.099   5.110   0.324  2.0183  0.1832 -0.2719
 5074TIP3    H236714   0.149   4.975   0.277 -0.9459 -1.4928  1.0844
 5075TIP3   OH236715   6.121   5.907   1.835 -0.0227 -0.2195  0.7127
 5075TIP3    H136716   6.198   5.941   1.789  0.4223 -1.5317  0.4472
 5075TIP3    H236717   6.065   5.984   1.847  0.1340  0.3152 -1.4551
 5076TIP3   OH236718   4.213   4.662   3.505  0.4391  0.4122  0.1979
 5076TIP3    H136719   4.291   4.709   3.535  0.5229 -0.0973  0.8150
 5076TIP3    H236720   4.226   4.572   3.535 -0.4419  0.3421  0.4120
 5077TIP3   OH236721   0.018   1.613  17.146  0.0779  0.4877  0.0721
 5077TIP3    H136722  -0.028   1.696  17.156  1.3075  1.1317  0.6457
 5077TIP3    H236723   0.007   1.569  17.230  0.9666  0.9083  0.4258
 5078TIP3   OH236724   4.877   4.469  14.206 -0.3086  0.8093 -0.1713
 5078TIP3    H136725   4.847   4.396  14.152 -1.9625  0.9962  0.4072
 5078TIP3    H236726   4.968   4.482  14.181 -0.8281  0.5290 -2.4972
 5079TIP3   OH236727   5.152   2.239   1.003  0.0218  0.5262  0.5752
 5079TIP3    H136728   5.148   2.305   1.072  1.3980  1.0922  0.1447
 5079TIP3    H236729   5.245   2.216   0.997 -0.1019  0.3029 -0.9133
 5080TIP3   OH236730   3.276   3.551   6.269  0.5070 -0.1344  0.0580
 5080TIP3    H136731   3.262   3.471   6.320  1.6879  0.7114  1.8154
 5080TIP3    H236732   3.193   3.598   6.275  0.8959  0.3766  2.0720
 5081TIP3   OH236733   0.530   1.063  11.588  0.3205  0.4883 -0.1857
 5081TIP3    H136734   0.623   1.061  11.607  0.1090 -0.1207  0.9050
 5081TIP3    H236735   0.512   0.980  11.543  0.2836  0.5297 -0.2474
 5082TIP3   OH236736   2.430   3.329  13.405 -0.1061  0.3563  0.0384
 5082TIP3    H136737   2.517   3.338  13.442  0.4670  2.1700 -1.5576
 5082TIP3    H236738   2.371   3.340  13.480  0.9847 -1.4406  1.2274
 5083TIP3   OH236739   1.917   4.298   3.314  0.1878  0.3912 -0.1494
 5083TIP3    H136740   1.957   4.316   3.229  0.5689  0.9958  0.1508
 5083TIP3    H236741   1.985   4.319   3.377 -0.6067  1.5042  0.3746
 5084TIP3   OH236742   0.818   4.830   1.692 -0.1991 -0.3495  0.3684
 5084TIP3    H136743   0.873   4.777   1.750 -0.5493  1.7345  2.7963
 5084TIP3    H236744   0.865   4.833   1.609  2.3238 -0.3344  1.7185
 5085TIP3   OH236745   3.005   0.852   1.407 -0.1626  0.0602 -0.4543
 5085TIP3    H136746   3.021   0.944   1.388  2.6569 -0.3194 -0.4522
 5085TIP3    H236747   3.012   0.846   1.502  0.3545 -0.2368 -0.5068
 5086TIP3   OH236748   0.453   4.469  11.908 -0.2921 -0.4077  0.2537
 5086TIP3    H136749   0.402   4.542  11.874  0.0836 -0.0444  0.4699
 5086TIP3    H236750   0.428   4.395  11.852  0.8487  0.3372 -1.3263
 5087TIP3   OH236751   0.158   1.300   0.247  0.2912 -0.0561 -0.5650
 5087TIP3    H136752   0.226   1.247   0.205  0.3609  0.0517 -0.5881
 5087TIP3    H236753   0.111   1.341   0.174  1.1995  1.1273 -0.5246
 5088TIP3   OH236754   0.902   3.718   5.525  0.1961  0.3102 -0.1934
 5088TIP3    H136755   0.899   3.679   5.437 -1.1733  0.0661 -0.0725
 5088TIP3    H236756   0.842   3.792   5.519 -0.5987 -0.2407  0.7679
 5089TIP3   OH236757   4.097   4.464  15.958  0.1078  0.0497  0.2542
 5089TIP3    H136758   4.124   4.374  15.976 -0.5107 -0.0962  0.4620
 5089TIP3    H236759   4.060   4.495  16.040 -0.7225  0.1147 -0.1359
 5090TIP3   OH236760   1.732   1.329   2.947 -0.0849 -0.4991 -0.2085
 5090TIP3    H136761   1.766   1.407   2.903 -1.0171  0.2579  0.3581
 5090TIP3    H236762   1.682   1.364   3.022  1.1179 -1.7170  1.2225
 5091TIP3   OH236763   1.559   0.869  14.951  0.1499  0.2959 -0.0793
 5091TIP3    H136764   1.514   0.785  14.939 -2.1420  1.3268  0.7246
 5091TIP3    H236765   1.626   0.851  15.016 -0.1861 -0.9528 -0.0532
 5092TIP3   OH236766   6.287   1.768  16.366 -0.2227 -0.5232  0.1374
 5092TIP3    H136767   6.370   1.750  16.409 -0.8504  0.1282  1.6896
 5092TIP3    H236768   6.292   1.861  16.341  0.3036 -0.9935 -1.6464
 5093TIP3   OH236769   6.479   5.529   3.868 -0.1584 -0.7181 -0.3616
 5093TIP3    H136770   6.441   5.493   3.788 -1.1736 -1.5644  0.4734
 5093TIP3    H236771   6.414   5.591   3.900  0.5389  0.1219 -0.5278
 5094TIP3   OH236772   0.703   1.598   1.455 -0.1659 -0.1561 -0.4279
 5094TIP3    H136773   0.751   1.668   1.500 -0.3180 -0.5096  0.2959
 5094TIP3    H236774   0.728   1.518   1.501 -1.8481 -0.2936  0.3481
 5095TIP3   OH236775   6.005   1.551  12.337 -0.5217  0.4915 -0.4467
 5095TIP3    H136776   6.060   1.519  12.409 -2.3159  0.5760  1.0543
 5095TIP3    H236777   6.050   1.629  12.305 -0.6782  1.6920  2.0408
 5096TIP3   OH236778   5.417   3.635   6.119 -0.1697  0.2258  0.2044
 5096TIP3    H136779   5.470   3.600   6.047 -0.3722 -1.4894  0.8539
 5096TIP3    H236780   5.477   3.694   6.165  0.0984  1.0008 -1.0664
 5097TIP3   OH236781   6.434   0.414   0.723  0.0854 -0.3580 -0.7276
 5097TIP3    H136782   6.444   0.376   0.810  0.4980  0.9662 -0.1773
 5097TIP3    H236783   6.343   0.442   0.719  0.6187  1.6783  0.1961
 5098TIP3   OH236784   0.371   4.201  15.437 -0.0369 -0.3364  0.1499
 5098TIP3    H136785   0.447   4.156  15.475  0.0095 -0.1715  0.2531
 5098TIP3    H236786   0.344   4.145  15.364  0.0641 -0.4960  0.2347
 5099TIP3   OH236787   3.203   2.484  16.109  0.5625  0.1102 -0.7467
 5099TIP3    H136788   3.171   2.427  16.179 -0.9787  1.1559 -0.5633
 5099TIP3    H236789   3.233   2.424  16.041 -1.3113 -0.9569 -0.6973
 5100TIP3   OH236790   0.137   6.078   6.227 -0.7136 -0.3182  0.4011
 5100TIP3    H136791   0.128   5.985   6.203  0.0659 -0.0829 -0.9385
 5100TIP3    H236792   0.224   6.083   6.267 -1.4385 -0.4446  2.0665
 5101TIP3   OH236793   0.064   4.889  12.398 -0.1791  0.6263 -0.8299
 5101TIP3    H136794  -0.008   4.927  12.348 -1.4646  2.2955  2.0599
 5101TIP3    H236795   0.028   4.874  12.485  2.3477 -0.7092  0.0882
 5102TIP3   OH236796   1.974   4.360   3.921 -0.1022  0.0954 -0.4641
 5102TIP3    H136797   1.963   4.455   3.921 -1.6693 -0.0248  1.0432
 5102TIP3    H236798   1.904   4.328   3.864 -1.1593 -0.2191  0.9396
 5103TIP3   OH236799   3.197   3.777   0.265  0.3203  0.4366  0.3927
 5103TIP3    H136800   3.197   3.869   0.236  0.6968  0.8641  1.7004
 5103TIP3    H236801   3.113   3.742   0.233  0.2133  1.1946 -0.1958
 5104TIP3   OH236802   1.130   0.719  14.191  0.1498 -0.6306  0.2680
 5104TIP3    H136803   1.209   0.773  14.189 -0.3198  0.0297 -0.8248
 5104TIP3    H236804   1.140   0.660  14.116 -0.5908 -0.2563 -0.1283
 5105TIP3   OH236805   6.311   2.892  16.211 -0.0906  0.0811 -0.3231
 5105TIP3    H136806   6.317   2.982  16.245 -0.0369  0.4828 -1.3419
 5105TIP3    H236807   6.239   2.895  16.148 -1.1458 -0.9986  0.7890
 5106TIP3   OH236808   0.348   3.983  11.273 -0.9457 -0.4548  0.6257
 5106TIP3    H136809   0.376   4.039  11.346  1.5023  0.4263 -0.8751
 5106TIP3    H236810   0.321   4.045  11.205  1.7050 -0.9335 -1.0297
 5107TIP3   OH236811   4.286   4.373   1.399 -0.5262 -0.7816 -0.2666
 5107TIP3    H136812   4.206   4.393   1.448  0.0668  0.4806  0.2124
 5107TIP3    H236813   4.338   4.319   1.458 -0.0725  0.2399  0.2817
 5108TIP3   OH236814   1.148   6.434  16.541  0.3167  0.5662 -0.0847
 5108TIP3    H136815   1.065   6.457  16.584 -0.2129 -1.0735 -0.1709
 5108TIP3    H236816   1.164   6.505  16.479 -2.0566 -0.0325 -1.4894
 5109TIP3   OH236817   4.679   5.315  15.091  0.3273  0.4184  0.1319
 5109TIP3    H136818   4.774   5.317  15.088  0.3117  1.6349 -0.8646
 5109TIP3    H236819   4.656   5.222  15.093  1.5324  0.1223  0.5688
 5110TIP3   OH236820   5.779   5.378  15.288 -0.5621 -0.5095 -0.4949
 5110TIP3    H136821   5.794   5.284  15.301 -1.6845 -0.4660  1.6329
 5110TIP3    H236822   5.712   5.383  15.219  0.2009 -1.2069 -1.3049
 5111TIP3   OH236823   4.571   0.385   5.398 -0.2190  0.9226  0.7110
 5111TIP3    H136824   4.476   0.394   5.405 -0.2320 -0.0469  2.3816
 5111TIP3    H236825   4.589   0.296   5.428  1.3334  1.5681  1.8762
 5112TIP3   OH236826   1.432   5.774  12.219 -0.0101 -0.2175  0.4890
 5112TIP3    H136827   1.379   5.768  12.139 -0.0909  0.1627  0.5137
 5112TIP3    H236828   1.441   5.868  12.235  0.2062 -0.2900  0.7959
 5113TIP3   OH236829   4.991   2.831   5.501  0.0536 -0.2805  0.0072
 5113TIP3    H136830   4.920   2.889   5.474 -0.0170  0.1541  1.0954
 5113TIP3    H236831   4.947   2.760   5.548  0.2873 -0.3697  0.0902
 5114TIP3   OH236832   4.366   3.406   3.211  0.0423 -0.4324  0.0946
 5114TIP3    H136833   4.339   3.446   3.294 -0.0882 -2.3514  1.0387
 5114TIP3    H236834   4.303   3.439   3.147  0.4301  1.4482  0.6384
 5115TIP3   OH236835   2.821   2.449  15.277 -0.3948 -0.2553 -0.9410
 5115TIP3    H136836   2.836   2.485  15.190  2.1251  3.7393  0.9126
 5115TIP3    H236837   2.890   2.384  15.288  0.9863  1.1419 -1.0372
 5116TIP3   OH236838   6.374   0.586  12.734  0.0652 -0.8381  0.1835
 5116TIP3    H136839   6.371   0.652  12.665  2.3652  1.3410  2.0362
 5116TIP3    H236840   6.400   0.505  12.688 -2.3316 -0.4976 -2.0376
 5117TIP3   OH236841   0.955   4.138   0.603  0.2680 -0.2283 -0.4690
 5117TIP3    H136842   0.999   4.053   0.608 -2.1142 -1.6097 -1.5298
 5117TIP3    H236843   0.930   4.157   0.693 -1.6015 -2.0703 -0.5362
 5118TIP3   OH236844   1.373   6.031   4.537  0.0630 -0.0484 -0.3751
 5118TIP3    H136845   1.325   5.949   4.547 -0.0568 -0.3402 -2.6255
 5118TIP3    H236846   1.404   6.029   4.446 -0.1363  2.4849 -0.5635
 5119TIP3   OH236847   3.030   0.541   5.721  0.1198 -0.2141  0.0279
 5119TIP3    H136848   3.055   0.555   5.629 -1.1287 -0.0820 -0.3115
 5119TIP3    H236849   3.043   0.626   5.763  1.9224 -0.5859  0.3056
 5120TIP3   OH236850   5.273   1.511  16.037 -0.3666  0.5879 -0.8905
 5120TIP3    H136851   5.245   1.461  16.114  0.6555  0.4553 -0.5804
 5120TIP3    H236852   5.194   1.521  15.984 -0.8534 -0.2832 -0.3550
 5121TIP3   OH236853   5.670   3.414   2.395  0.1786  0.1587  0.4650
 5121TIP3    H136854   5.739   3.446   2.453 -1.3791 -0.9363  3.1139
 5121TIP3    H236855   5.599   3.390   2.454 -1.2477 -1.8132 -1.8691
 5122TIP3   OH236856   5.430   5.629   1.359  0.0388  0.6145  0.1121
 5122TIP3    H136857   5.445   5.566   1.430 -0.0027  0.3110 -0.1459
 5122TIP3    H236858   5.467   5.711   1.391  2.0163 -0.0365 -0.3862
 5123TIP3   OH236859   1.028   5.119  15.753 -0.1331 -0.5244 -0.5793
 5123TIP3    H136860   0.988   5.140  15.837  1.6116  0.4997  0.0232
 5123TIP3    H236861   0.962   5.065  15.709 -2.3088  1.3038  0.2252
 5124TIP3   OH236862   1.824   1.425  13.821  0.0177 -0.6093  0.0534
 5124TIP3    H136863   1.812   1.518  13.836 -0.7313 -0.9902  2.0888
 5124TIP3    H236864   1.914   1.408  13.847  0.2779 -0.3908 -0.6964
 5125TIP3   OH236865   2.886   5.154   3.891 -0.2552 -0.0600 -0.0234
 5125TIP3    H136866   2.943   5.214   3.940  0.8691 -0.7119 -0.4948
 5125TIP3    H236867   2.946   5.087   3.857 -1.3667 -0.9753 -0.2210
 5126TIP3   OH236868   6.779   1.945   0.476 -0.0976 -0.0158 -0.1218
 5126TIP3    H136869   6.699   1.987   0.446  0.7743  0.5587 -1.7927
 5126TIP3    H236870   6.790   1.869   0.418  2.6435  2.2015 -2.8500
 5127TIP3   OH236871   6.671   1.229  11.538 -0.0594 -0.1767  0.1346
 5127TIP3    H136872   6.743   1.176  11.504  0.0073  0.0933 -0.1513
 5127TIP3    H236873   6.624   1.259  11.460 -2.4836 -3.0444  0.3346
 5128TIP3   OH236874   2.739   2.198   1.059 -0.1830  0.1970  0.0857
 5128TIP3    H136875   2.792   2.264   1.014 -0.1869 -0.4757 -0.9654
 5128TIP3    H236876   2.800   2.127   1.077 -0.6612 -0.5310 -1.0173
 5129TIP3   OH236877   4.937   2.174   3.019 -0.5454  0.2438 -0.5118
 5129TIP3    H136878   5.014   2.160   3.073 -1.5452  3.7328  2.1930
 5129TIP3    H236879   4.867   2.126   3.063 -0.5485 -0.3472 -1.1508
 5130TIP3   OH236880   5.786   6.176  13.379  0.1134 -0.3527 -0.1042
 5130TIP3    H136881   5.763   6.260  13.339  0.6119  0.1832  0.7087
 5130TIP3    H236882   5.709   6.121  13.367 -0.9919  0.8827  1.1317
 5131TIP3   OH236883   3.702   6.413  13.191  0.0453 -0.3054 -0.2684
 5131TIP3    H136884   3.711   6.402  13.097  1.3486 -1.3802 -0.0548
 5131TIP3    H236885   3.618   6.371  13.212 -1.6692  2.3590 -1.2418
 5132TIP3   OH236886   6.424   5.970  11.831 -0.6492  0.0102 -0.3151
 5132TIP3    H136887   6.455   6.057  11.805 -1.7912  0.5851  0.1654
 5132TIP3    H236888   6.412   5.976  11.926  0.8460 -1.2026 -0.0241
 5133TIP3   OH236889   0.386   2.507   4.588 -0.0304 -0.3855  0.4016
 5133TIP3    H136890   0.459   2.493   4.648  0.6304  0.2994 -0.2228
 5133TIP3    H236891   0.423   2.561   4.518 -0.7404 -1.3192 -0.7187
 5134TIP3   OH236892   0.601   0.579  17.194  0.4780  0.3018 -0.1775
 5134TIP3    H136893   0.560   0.500  17.159  0.6076 -0.4312  1.2467
 5134TIP3    H236894   0.693   0.556  17.205  1.2619  1.7509 -2.8107
 5135TIP3   OH236895   0.643   3.426  15.673  0.7576 -0.2710 -0.2317
 5135TIP3    H136896   0.654   3.374  15.753 -2.5963 -1.1793 -0.2393
 5135TIP3    H236897   0.664   3.516  15.700 -1.6857 -0.2858  2.1754
 5136TIP3   OH236898   4.410   3.002  15.355  0.0046 -0.6548  0.0773
 5136TIP3    H136899   4.434   2.985  15.264 -1.8182 -1.2957 -0.3437
 5136TIP3    H236900   4.408   3.098  15.362  2.6194 -0.5468  0.2047
 5137TIP3   OH236901   3.990   2.980   4.287 -0.1775 -0.1062 -0.4033
 5137TIP3    H136902   3.952   2.956   4.203  1.1114 -1.1817 -0.7031
 5137TIP3    H236903   3.978   2.903   4.342 -1.1629  0.6453  0.4952
 5138TIP3   OH236904   5.531   3.154   3.667  0.8015  0.4753  0.0370
 5138TIP3    H136905   5.530   3.238   3.712  1.2857  0.4511  0.0948
 5138TIP3    H236906   5.581   3.096   3.724  1.5503  0.4849 -0.5916
 5139TIP3   OH236907   5.615   1.408   1.063 -0.5988 -0.3950 -0.4916
 5139TIP3    H136908   5.550   1.338   1.057 -1.3264  0.2558 -0.1872
 5139TIP3    H236909   5.646   1.419   0.973 -0.0354 -1.5177 -0.4517
 5140TIP3   OH236910   0.783   5.649  11.122 -0.2225 -0.2635 -0.3748
 5140TIP3    H136911   0.699   5.693  11.137  1.0167  2.1654 -0.2636
 5140TIP3    H236912   0.767   5.559  11.151 -2.9912 -0.1007 -1.0434
 5141TIP3   OH236913   0.358   6.026   5.225 -0.1916  0.1424  0.4290
 5141TIP3    H136914   0.345   5.931   5.228 -0.8795  0.2549  1.2062
 5141TIP3    H236915   0.417   6.044   5.298  1.6715  0.0687 -0.9950
 5142TIP3   OH236916   2.373   6.273   6.269  0.0965 -0.3759 -0.5012
 5142TIP3    H136917   2.395   6.183   6.242  0.7419 -0.4447  0.2174
 5142TIP3    H236918   2.292   6.263   6.319  0.1769 -0.5665 -0.4046
 5143TIP3   OH236919   3.568   5.611  10.308 -0.0899  0.1535  0.0491
 5143TIP3    H136920   3.514   5.555  10.365 -0.6142  0.6259  0.0201
 5143TIP3    H236921   3.653   5.566  10.305  0.0976  0.3564  1.5891
 5144TIP3   OH236922   3.814   3.278   0.316  0.4915 -0.0600  0.6862
 5144TIP3    H136923   3.880   3.298   0.250 -0.1220 -1.8065 -0.5613
 5144TIP3    H236924   3.864   3.248   0.392  1.1890  1.2884  0.7798
 5145TIP3   OH236925   5.845   5.114  15.319  0.5167  0.0206  0.4348
 5145TIP3    H136926   5.938   5.091  15.322  0.5645 -0.1638 -1.3051
 5145TIP3    H236927   5.799   5.034  15.345  0.8334  0.4701  2.5265
 5146TIP3   OH236928   3.102   3.557   1.911  0.3154  0.4411 -0.3524
 5146TIP3    H136929   3.018   3.598   1.933  0.5413  0.8888 -0.3355
 5146TIP3    H236930   3.096   3.470   1.951  0.8676  1.3498  1.9049
 5147TIP3   OH236931   3.282   3.835   4.347 -0.1247  0.3632  0.1946
 5147TIP3    H136932   3.230   3.903   4.305 -0.6544  0.4370  0.9427
 5147TIP3    H236933   3.357   3.882   4.385 -1.0797  0.7505  1.7142
 5148TIP3   OH236934   1.290   3.039  14.218  0.1063  0.0530  0.5792
 5148TIP3    H136935   1.233   2.962  14.223 -0.7450  0.6911  0.8707
 5148TIP3    H236936   1.375   3.008  14.251 -0.1998 -0.7765  0.6153
 5149TIP3   OH236937   0.186   5.139   1.118  0.2282 -0.6756  0.1065
 5149TIP3    H136938   0.132   5.188   1.056  1.0371  1.6625  1.1156
 5149TIP3    H236939   0.139   5.145   1.201  1.7700  1.1308  0.9287
 5150TIP3   OH236940   3.235   1.008   0.901  0.0600 -0.2300  0.2858
 5150TIP3    H136941   3.195   1.028   0.817  0.1066 -3.6146 -0.7047
 5150TIP3    H236942   3.302   1.075   0.913 -0.6904  0.9699 -1.8319
 5151TIP3   OH236943   4.724   6.377  11.925  0.1019 -0.1019  0.0291
 5151TIP3    H136944   4.802   6.337  11.965  0.0545 -0.4060 -0.1831
 5151TIP3    H236945   4.731   6.355  11.832 -1.0420 -1.4679  0.2404
 5152TIP3   OH236946   4.691   2.635  11.775 -0.1817 -0.0585  0.6976
 5152TIP3    H136947   4.753   2.602  11.839  0.5420  2.0008  1.1255
 5152TIP3    H236948   4.717   2.726  11.760 -1.9477  0.3050 -0.5317
 5153TIP3   OH236949   5.130   0.055  11.009  0.1080  0.0980 -0.3401
 5153TIP3    H136950   5.037   0.034  11.002 -0.3016  1.1848  1.1912
 5153TIP3    H236951   5.140   0.136  10.960  0.2888 -0.1060 -0.6424
 5154TIP3   OH236952   2.263   1.064   5.375  0.4723 -0.2196 -1.2385
 5154TIP3    H136953   2.354   1.091   5.382  0.6401 -0.9972 -0.1423
 5154TIP3    H236954   2.267   0.969   5.362 -0.1836 -0.4954  0.3638
 5155TIP3   OH236955   1.295   3.247  16.916 -0.2517 -0.1741  0.4152
 5155TIP3    H136956   1.232   3.176  16.918  1.4320 -1.7509  1.0865
 5155TIP3    H236957   1.352   3.227  16.842  1.4487 -0.7119  1.7911
 5156TIP3   OH236958   4.623   0.430   0.355  0.1752 -0.6936 -0.4467
 5156TIP3    H136959   4.674   0.511   0.367  1.2973 -1.3789 -0.4172
 5156TIP3    H236960   4.556   0.433   0.423 -1.4851  1.4424 -2.0321
 5157TIP3   OH236961   0.737   3.079   4.872 -0.1837  0.7633 -0.6464
 5157TIP3    H136962   0.754   3.155   4.928 -1.0368 -1.3146  2.7066
 5157TIP3    H236963   0.819   3.030   4.874 -0.7126 -0.1128  0.1656
 5158TIP3   OH236964   6.393   2.435  16.342 -0.6353  0.1728 -0.1318
 5158TIP3    H136965   6.430   2.522  16.354  0.5737 -0.3620  0.2169
 5158TIP3    H236966   6.306   2.440  16.382 -0.0666  0.8551  1.0709
 5159TIP3   OH236967   3.528   4.817   0.123 -0.5681 -0.1611  0.1798
 5159TIP3    H136968   3.470   4.892   0.114 -0.5865 -0.1154  0.6605
 5159TIP3    H236969   3.540   4.785   0.033 -1.0043  0.0775  0.0344
 5160TIP3   OH236970   0.704   2.035   3.447 -0.0541  0.2131  0.0627
 5160TIP3    H136971   0.731   2.002   3.533 -0.6492 -2.5625 -0.7420
 5160TIP3    H236972   0.712   1.961   3.388 -1.9397  1.3755 -1.8184
 5161TIP3   OH236973   3.430   2.974   3.209 -0.0996  0.1751  0.0705
 5161TIP3    H136974   3.382   3.038   3.263 -1.3633  1.2922 -2.2195
 5161TIP3    H236975   3.461   3.025   3.135  1.2855 -1.3784 -0.4624
 5162TIP3   OH236976   3.272   4.028   0.807 -0.3027  0.0720 -0.5464
 5162TIP3    H136977   3.299   4.076   0.885 -1.5612 -0.4737  0.2666
 5162TIP3    H236978   3.275   3.936   0.834 -0.6586 -0.1275 -1.1667
 5163TIP3   OH236979   5.017   0.534  12.561 -0.1209  0.8922  0.0059
 5163TIP3    H136980   5.100   0.490  12.582  0.1011  2.0210  1.7386
 5163TIP3    H236981   5.026   0.559  12.469  1.5515  1.1356  0.1928
 5164TIP3   OH236982   6.052   0.403   5.516 -0.4071  0.2364  0.2259
 5164TIP3    H136983   6.034   0.310   5.532 -0.8255  0.3202  0.2694
 5164TIP3    H236984   6.126   0.423   5.573 -0.9533  0.1737  0.9723
 5165TIP3   OH236985   0.560   0.488   5.870  0.3484  0.4388 -0.3491
 5165TIP3    H136986   0.591   0.559   5.925  1.3842  0.7278 -1.2671
 5165TIP3    H236987   0.625   0.419   5.880 -1.3281 -0.9810  1.5810
 5166TIP3   OH236988   4.521   1.459   0.260  0.0451  0.3194  0.3696
 5166TIP3    H136989   4.530   1.418   0.173  1.2317 -1.2866  1.1892
 5166TIP3    H236990   4.601   1.510   0.271 -1.3251  2.8569 -0.5477
 5167TIP3   OH236991   2.307   2.713  16.956  0.1999  0.5283  0.1555
 5167TIP3    H136992   2.359   2.735  16.878 -0.6251  0.6265 -0.3794
 5167TIP3    H236993   2.244   2.785  16.964  2.4861  2.4443  2.9951
 5168TIP3   OH236994   1.719   1.108  12.549  0.2702 -0.3084  0.0445
 5168TIP3    H136995   1.632   1.097  12.588  0.1207 -1.3896 -0.5387
 5168TIP3    H236996   1.707   1.177  12.484 -0.3623 -0.9473 -0.5497
 5169TIP3   OH236997   0.701   6.428  12.031 -0.1206  0.4408 -0.6238
 5169TIP3    H136998   0.730   6.357  12.088 -0.0503  0.4782 -0.6133
 5169TIP3    H236999   0.782   6.471  12.003 -0.2088  1.3976  0.4971
 5170TIP3   OH237000   4.062   6.379   0.753 -0.1760  0.7848  0.5073
 5170TIP3    H137001   4.053   6.356   0.661 -0.6719 -0.0707  0.7617
 5170TIP3    H237002   4.152   6.411   0.761  0.1478  0.0572 -0.1029
 5171TIP3   OH237003   2.763   5.533   2.772 -0.1583  0.1365  0.0298
 5171TIP3    H137004   2.833   5.596   2.755  1.0121 -1.2250 -0.3758
 5171TIP3    H237005   2.793   5.484   2.849  0.8310 -2.4262 -1.8551
 5172TIP3   OH237006   4.927   5.251  11.287  0.2345 -0.1273  0.2725
 5172TIP3    H137007   4.919   5.342  11.314  0.9945  0.5385 -1.5917
 5172TIP3    H237008   4.845   5.210  11.315  0.2361  0.8916  1.8831
 5173TIP3   OH237009   0.364   4.267  13.580  0.3138  0.1646 -0.5704
 5173TIP3    H137010   0.407   4.185  13.557 -1.0734 -0.8441  0.3203
 5173TIP3    H237011   0.358   4.265  13.676 -1.8357  0.2038 -0.6748
 5174TIP3   OH237012   1.718   6.096   6.497  0.3370  0.2109 -0.2924
 5174TIP3    H137013   1.766   6.156   6.439 -0.6638  0.2973 -1.0481
 5174TIP3    H237014   1.708   6.144   6.578  0.9827  0.4321 -0.3394
 5175TIP3   OH237015   2.492   6.136  12.183 -0.3255  0.1560 -0.2329
 5175TIP3    H137016   2.474   6.091  12.100 -0.1126  0.5556 -0.5007
 5175TIP3    H237017   2.504   6.065  12.247 -1.4373 -0.1394 -0.3333
 5176TIP3   OH237018   0.045   1.521   2.379  0.6527  0.7227 -0.2337
 5176TIP3    H137019   0.055   1.526   2.474 -2.3571  1.3964  0.1269
 5176TIP3    H237020   0.109   1.585   2.346  1.8552  0.3742  1.2899
 5177TIP3   OH237021   6.730   6.745   1.007 -0.0270 -0.2491 -0.0419
 5177TIP3    H137022   6.723   6.668   0.951 -0.0997 -0.2287 -0.0618
 5177TIP3    H237023   6.683   6.814   0.959  0.0045 -0.2027 -0.0069
 5178TIP3   OH237024   4.234   6.786   3.675  0.3697 -0.7145 -0.1756
 5178TIP3    H137025   4.284   6.833   3.608 -0.3202 -0.1445 -0.3115
 5178TIP3    H237026   4.173   6.852   3.710 -1.6507 -1.8400 -1.3751
 5179TIP3   OH237027   4.083   4.971  15.451  0.5381  0.2540 -0.1102
 5179TIP3    H137028   4.014   5.022  15.411 -1.0977 -1.4221  0.4258
 5179TIP3    H237029   4.089   5.004  15.541  0.0283  0.0142  0.0110
 5180TIP3   OH237030   2.632   5.725  12.619  0.1877  0.1516  0.2220
 5180TIP3    H137031   2.603   5.661  12.554  1.0902 -0.0383 -0.0137
 5180TIP3    H237032   2.719   5.752  12.589 -0.1352  1.4228  0.3804
 5181TIP3   OH237033   2.493   5.313   5.797  0.1906  0.0788 -0.2505
 5181TIP3    H137034   2.511   5.317   5.891 -0.6983 -0.9597 -0.0138
 5181TIP3    H237035   2.414   5.366   5.786  1.0280  1.2985 -0.6473
 5182TIP3   OH237036   4.895   3.117  15.347  0.1317 -0.3049  0.0543
 5182TIP3    H137037   4.834   3.084  15.413 -0.3940  0.1757 -0.1940
 5182TIP3    H237038   4.901   3.046  15.283 -0.1213 -0.3719  0.1036
 5183TIP3   OH237039   6.737   2.498   3.734 -0.6666  0.1140  0.6812
 5183TIP3    H137040   6.692   2.492   3.649 -0.2230 -2.6798  0.5251
 5183TIP3    H237041   6.827   2.522   3.712 -0.7257  0.1025  0.4225
 5184TIP3   OH237042   0.529   3.263  16.913 -0.4823 -0.0378 -0.0019
 5184TIP3    H137043   0.498   3.285  17.001  1.9735  0.0917  0.9111
 5184TIP3    H237044   0.594   3.194  16.927  0.5407  0.5351 -1.6291
 5185TIP3   OH237045   5.188   2.040   5.331  0.6896 -0.5582 -0.0501
 5185TIP3    H137046   5.137   2.105   5.283  1.3796  1.0441  1.2869
 5185TIP3    H237047   5.274   2.080   5.341  0.3732 -0.4290  3.1537
 5186TIP3   OH237048   2.022   0.890  14.832  0.4326 -0.0005 -0.1179
 5186TIP3    H137049   2.107   0.893  14.876  0.3725 -1.2819  0.1184
 5186TIP3    H237050   2.030   0.953  14.761  0.6842  1.8285  1.4405
 5187TIP3   OH237051   2.370   0.423  10.662  0.1071  0.3365 -0.1482
 5187TIP3    H137052   2.276   0.414  10.680  0.5400 -1.6101  1.4536
 5187TIP3    H237053   2.394   0.507  10.701 -0.4960 -0.3632  1.8598
 5188TIP3   OH237054   3.515   0.799   5.549 -1.1976 -0.6325  0.1416
 5188TIP3    H137055   3.450   0.736   5.579 -1.3273 -0.8750 -0.6105
 5188TIP3    H237056   3.586   0.745   5.514 -1.5036 -0.3856 -0.9230
 5189TIP3   OH237057   6.500   2.170   6.019 -0.1878 -0.6573  0.0105
 5189TIP3    H137058   6.539   2.115   6.087 -0.6845 -0.8511  0.1400
 5189TIP3    H237059   6.478   2.109   5.949 -0.3793 -0.5624 -0.0111
 5190TIP3   OH237060   0.312   4.071   2.042 -0.1050  0.2647 -0.4192
 5190TIP3    H137061   0.346   4.117   2.119  1.5460 -1.2093 -0.2120
 5190TIP3    H237062   0.219   4.057   2.061 -0.2232  1.8256  0.3141
 5191TIP3   OH237063   3.280   4.472   2.974 -0.5506 -0.0889 -0.7526
 5191TIP3    H137064   3.291   4.380   2.948 -2.4497 -1.0891  1.5292
 5191TIP3    H237065   3.227   4.510   2.904  0.3443 -0.6869 -1.7825
 5192TIP3   OH237066   3.835   0.005   0.112 -0.0401  0.4761 -0.1203
 5192TIP3    H137067   3.765   0.071   0.116 -0.4119  0.0528  2.9999
 5192TIP3    H237068   3.792  -0.076   0.138  1.3311 -0.0826  0.4905
 5193TIP3   OH237069   4.022   0.407  15.677 -0.5453  0.8010  0.2705
 5193TIP3    H137070   4.100   0.359  15.705 -0.4611  0.7723 -0.0044
 5193TIP3    H237071   4.024   0.489  15.727 -0.0433  1.0401 -0.1304
 5194TIP3   OH237072   3.532   2.600  12.370 -0.0232 -0.1964 -0.0789
 5194TIP3    H137073   3.487   2.642  12.297  1.3800 -0.5643 -1.1988
 5194TIP3    H237074   3.466   2.543  12.409 -0.5199 -0.8203 -1.7453
 5195TIP3   OH237075   1.393   1.485  13.180  0.2993  0.2187  0.3864
 5195TIP3    H137076   1.368   1.405  13.135 -1.5723  1.0963 -0.2667
 5195TIP3    H237077   1.425   1.543  13.111 -1.8236  1.2867  0.2278
 5196TIP3   OH237078   0.147   2.816  14.079 -0.5323  0.1877  0.4000
 5196TIP3    H137079   0.161   2.750  14.147  3.4033  0.0794 -0.3201
 5196TIP3    H237080   0.088   2.774  14.016 -0.9721 -1.2200  1.6846
 5197TIP3   OH237081   6.511   1.352  12.008  0.1469  0.4878  0.4140
 5197TIP3    H137082   6.496   1.316  12.095  1.4136  2.2018  1.4083
 5197TIP3    H237083   6.446   1.421  11.999  0.3291  0.6352  0.2099
 5198TIP3   OH237084   5.724   1.517  12.024 -0.4271 -0.5779  0.2183
 5198TIP3    H137085   5.782   1.593  12.022 -0.2282 -0.7222 -1.7392
 5198TIP3    H237086   5.701   1.502  11.932 -0.6489 -2.7413  0.5671
 5199TIP3   OH237087   3.489   5.254   1.062 -0.9125 -0.1282  0.1492
 5199TIP3    H137088   3.507   5.167   1.095  1.3273  0.6171  1.0586
 5199TIP3    H237089   3.484   5.243   0.967 -0.6040 -1.2349  0.2512
 5200TIP3   OH237090   4.345   6.769  16.977  0.3999  0.1044  0.6542
 5200TIP3    H137091   4.277   6.787  17.041 -1.7958  1.1741 -1.7814
 5200TIP3    H237092   4.396   6.850  16.972  0.8179 -0.1159  1.3060
 5201TIP3   OH237093   5.502   1.769   1.609  0.1600  0.3277 -0.5942
 5201TIP3    H137094   5.474   1.829   1.678 -0.1670  0.3312 -0.7256
 5201TIP3    H237095   5.437   1.781   1.539  0.3063  0.0955 -0.7733
 5202TIP3   OH237096   3.795   3.313  15.784  0.4152  0.2777  0.2275
 5202TIP3    H137097   3.827   3.351  15.702 -2.3695  0.5819 -0.8081
 5202TIP3    H237098   3.768   3.388  15.837  1.8329  0.0579  1.3486
 5203TIP3   OH237099   6.010   0.723  12.650 -0.8293 -0.7430  0.5576
 5203TIP3    H137100   6.017   0.716  12.745 -1.1826  0.2632  0.6745
 5203TIP3    H237101   6.011   0.817  12.633  2.6246 -0.8557 -0.7139
 5204TIP3   OH237102   3.952   2.121   4.615 -0.4108 -0.4047 -0.1167
 5204TIP3    H137103   3.932   2.027   4.609  1.2411 -0.8218  0.4828
 5204TIP3    H237104   3.898   2.152   4.687 -1.6254 -0.6745 -0.8658
 5205TIP3   OH237105   5.377   5.714   2.898 -0.1499 -0.5855  0.2753
 5205TIP3    H137106   5.297   5.736   2.944  0.7126 -1.9723  2.6270
 5205TIP3    H237107   5.437   5.685   2.967  1.9802 -0.7001 -1.5192
 5206TIP3   OH237108   0.542   3.311  15.462  0.2238  0.0644  0.3292
 5206TIP3    H137109   0.573   3.371  15.530  0.1615  0.4505  0.0185
 5206TIP3    H237110   0.593   3.333  15.385  1.6209 -1.6048  0.7092
 5207TIP3   OH237111   0.583   1.698   4.565  0.3167 -0.4958 -0.1774
 5207TIP3    H137112   0.504   1.737   4.601  0.9752  0.0544  0.7221
 5207TIP3    H237113   0.615   1.762   4.501  1.3011  0.4130  1.1712
 5208TIP3   OH237114   6.239   3.619  11.965  0.3703 -0.5754 -0.4181
 5208TIP3    H137115   6.304   3.672  11.919 -1.9558  2.7183 -0.2587
 5208TIP3    H237116   6.196   3.568  11.897  0.8438 -0.2005 -1.0035
 5209TIP3   OH237117   4.669   4.708  10.149  0.7896 -0.2423  0.1052
 5209TIP3    H137118   4.647   4.665  10.232  2.0263 -1.8657 -0.3511
 5209TIP3    H237119   4.764   4.720  10.152  0.6148  1.5632 -0.2539
 5210TIP3   OH237120   1.866   6.303  16.436  0.2587 -0.0289 -0.6022
 5210TIP3    H137121   1.797   6.306  16.502 -1.0319  1.1943 -1.9424
 5210TIP3    H237122   1.866   6.391  16.397  3.7513  0.5909  0.4747
 5211TIP3   OH237123   4.143   6.531  11.052 -0.7439  0.0985  0.3851
 5211TIP3    H137124   4.166   6.471  11.124 -0.9223 -0.3249  0.0938
 5211TIP3    H237125   4.094   6.476  10.990  1.2124 -0.0849 -1.0972
 5212TIP3   OH237126   0.153   0.695  14.499 -0.0114 -0.0462  0.2121
 5212TIP3    H137127   0.163   0.774  14.445  0.1010 -0.1842  0.0276
 5212TIP3    H237128   0.081   0.647  14.458  1.0831 -0.9255 -0.7971
 5213TIP3   OH237129   0.636   4.077   1.275 -0.3624 -0.3199  0.2841
 5213TIP3    H137130   0.701   4.103   1.340  0.0676  0.0058 -0.2700
 5213TIP3    H237131   0.665   3.991   1.245 -0.6244 -0.5207  0.6042
 5214TIP3   OH237132   2.353   2.844   3.642  0.3678  0.2970 -0.4196
 5214TIP3    H137133   2.425   2.874   3.586  0.7616 -0.2398 -0.2215
 5214TIP3    H237134   2.379   2.755   3.667 -0.0685  0.3293  0.1631
 5215TIP3   OH237135   0.063   0.165   1.060 -0.1539 -0.1981 -0.2943
 5215TIP3    H137136   0.001   0.094   1.044  0.1609 -0.4086 -0.5899
 5215TIP3    H237137   0.072   0.209   0.975 -0.4416  0.2752 -0.0849
 5216TIP3   OH237138   3.454   0.294  11.337  0.4192  0.0480  0.2281
 5216TIP3    H137139   3.530   0.324  11.288  0.2551 -0.5429 -0.4115
 5216TIP3    H237140   3.486   0.278  11.425  0.7336  1.0790  0.3106
 5217TIP3   OH237141   1.497   5.077   0.130 -0.2602  0.1413  0.2798
 5217TIP3    H137142   1.450   5.160   0.133 -0.3276  0.1133  0.0359
 5217TIP3    H237143   1.532   5.065   0.219  0.8466  1.0638  0.0002
 5218TIP3   OH237144   2.912   5.104   4.763  0.4901 -0.0086 -0.1827
 5218TIP3    H137145   2.935   5.193   4.788  1.1767  0.6749 -2.9081
 5218TIP3    H237146   2.991   5.069   4.722 -0.3938 -1.1023 -1.0445
 5219TIP3   OH237147   3.186   5.249  13.602 -0.5399 -0.0635  0.2020
 5219TIP3    H137148   3.106   5.241  13.550 -1.0484 -0.1892  0.9837
 5219TIP3    H237149   3.250   5.193  13.557 -1.4140 -1.3779  0.5479
 5220TIP3   OH237150   4.896   1.392   6.488 -0.2326 -0.0058 -0.3576
 5220TIP3    H137151   4.842   1.466   6.517  2.8890  1.5551  2.0586
 5220TIP3    H237152   4.967   1.432   6.439 -0.3645 -1.8689 -2.2034
 5221TIP3   OH237153   5.487   6.173   0.819  0.0061 -0.1616  0.4654
 5221TIP3    H137154   5.469   6.201   0.909 -1.9493  2.3760 -0.5779
 5221TIP3    H237155   5.532   6.248   0.780 -1.4153 -0.1639 -1.2972
 5222TIP3   OH237156   2.956   4.920   0.936  0.0243  0.4667 -0.1418
 5222TIP3    H137157   2.892   4.991   0.938  1.3221  1.6588  0.3927
 5222TIP3    H237158   3.028   4.954   0.884  0.7492 -0.3899  0.2808
 5223TIP3   OH237159   0.586   3.736   0.346 -0.0678 -0.0605 -0.0807
 5223TIP3    H137160   0.520   3.802   0.327 -0.0662  0.0668  0.3553
 5223TIP3    H237161   0.589   3.682   0.267 -0.5935  0.0153 -0.1534
 5224TIP3   OH237162   2.561   6.511   5.878 -0.3836 -0.2656 -0.3507
 5224TIP3    H137163   2.634   6.458   5.909 -1.8109 -1.8089  0.5266
 5224TIP3    H237164   2.507   6.524   5.956 -0.7621  1.3857 -0.8434
 5225TIP3   OH237165   5.282   3.705  14.770  0.0633  0.0747  0.0042
 5225TIP3    H137166   5.288   3.623  14.721 -1.0523 -0.8944  1.3933
 5225TIP3    H237167   5.195   3.739  14.750 -0.0149  0.1883  0.5128
 5226TIP3   OH237168   2.306   5.368  14.159  0.1774 -0.2046  0.0521
 5226TIP3    H137169   2.396   5.337  14.157  0.1075 -0.4441  0.5243
 5226TIP3    H237170   2.311   5.453  14.202 -0.0924 -1.2012  2.1766
 5227TIP3   OH237171   4.492   3.096  14.159 -0.6610 -0.2277  0.2428
 5227TIP3    H137172   4.453   3.055  14.081  1.1174 -1.6449  0.0245
 5227TIP3    H237173   4.579   3.056  14.166 -0.2667  0.8480  2.2118
 5228TIP3   OH237174   0.163   5.115  13.823  0.0367 -0.1751  0.7392
 5228TIP3    H137175   0.212   5.193  13.796 -0.6611  0.3097  0.8444
 5228TIP3    H237176   0.224   5.043  13.808  0.3573  0.2785 -0.3062
 5229TIP3   OH237177   3.801   6.531   5.069  0.1681 -0.1004 -0.6181
 5229TIP3    H137178   3.812   6.623   5.093 -2.1189 -0.1145  0.7471
 5229TIP3    H237179   3.887   6.492   5.085  0.5081  1.2881  1.2610
 5230TIP3   OH237180   4.279   2.344  12.495  0.4347  0.1370 -0.2926
 5230TIP3    H137181   4.342   2.284  12.535  1.2010  0.7132 -0.6126
 5230TIP3    H237182   4.249   2.398  12.567 -1.6875 -1.7896  0.3965
 5231TIP3   OH237183   0.743   2.325   3.460 -0.2542 -0.3778 -0.6897
 5231TIP3    H137184   0.697   2.241   3.469  0.2515 -0.5579  0.5130
 5231TIP3    H237185   0.756   2.354   3.550  0.6915  0.3742 -1.0525
 5232TIP3   OH237186   0.561   4.006  14.807  0.0451  0.5863  0.0256
 5232TIP3    H137187   0.603   4.087  14.778  0.2445  0.5409  0.1895
 5232TIP3    H237188   0.612   3.978  14.883  0.0652  0.2272 -0.1181
 5233TIP3   OH237189   3.643   1.374  14.810 -0.7639 -0.5113  0.4587
 5233TIP3    H137190   3.614   1.416  14.729 -0.2603  0.6380  0.8426
 5233TIP3    H237191   3.733   1.405  14.821 -1.0087 -0.2136  1.7342
 5234TIP3   OH237192   6.752   2.270   3.382  0.3239  0.0929 -0.4839
 5234TIP3    H137193   6.789   2.356   3.401 -1.0168  0.3621  1.1598
 5234TIP3    H237194   6.669   2.268   3.431  0.7478 -2.4620  0.3040
 5235TIP3   OH237195   0.602   2.043   5.128  0.3254  0.0539 -0.2532
 5235TIP3    H137196   0.552   2.071   5.051 -2.2515  0.9981  1.6496
 5235TIP3    H237197   0.687   2.017   5.092 -1.4581 -1.7478 -3.7202
 5236TIP3   OH237198   1.893   0.491  14.381  0.8689  0.0283  0.1665
 5236TIP3    H137199   1.962   0.470  14.318 -1.5217 -0.7172 -2.4061
 5236TIP3    H237200   1.825   0.425  14.365 -0.6433  0.9506  2.2881
 5237TIP3   OH237201   2.543   5.368  16.157  0.3500 -1.2169  0.1329
 5237TIP3    H137202   2.542   5.402  16.068 -3.8088 -2.0319 -0.3612
 5237TIP3    H237203   2.623   5.317  16.163  0.4382 -1.7182 -3.4038
 5238TIP3   OH237204   4.215   3.588   1.997 -0.2057 -0.4297  0.3021
 5238TIP3    H137205   4.242   3.628   1.915 -0.4287 -0.4954  0.1959
 5238TIP3    H237206   4.189   3.499   1.973  0.9434 -0.8760  0.6384
 5239TIP3   OH237207   1.524   1.616   1.155 -0.7657  0.5620 -0.5097
 5239TIP3    H137208   1.497   1.525   1.143  0.7773  0.0506 -0.3535
 5239TIP3    H237209   1.446   1.660   1.188 -1.1854 -1.0074  0.7250
 5240TIP3   OH237210   1.476   3.689  17.197 -0.0877 -0.2494  0.7068
 5240TIP3    H137211   1.441   3.619  17.141 -0.6430 -0.5686  1.4281
 5240TIP3    H237212   1.441   3.770  17.159 -0.5258 -0.4681  0.6419
 5241TIP3   OH237213   1.780   5.426  11.561 -0.3543  0.1357 -0.3181
 5241TIP3    H137214   1.815   5.406  11.475 -0.9010  0.5234 -0.6382
 5241TIP3    H237215   1.816   5.512  11.582 -0.8219  0.3802 -0.4966
 5242TIP3   OH237216   2.734   3.220  16.451  0.0353  0.0525 -0.1562
 5242TIP3    H137217   2.819   3.262  16.464 -1.2790  3.7589 -2.2252
 5242TIP3    H237218   2.683   3.242  16.529 -0.4688  2.0409 -0.9918
 5243TIP3   OH237219   0.349   3.317   1.680  0.4594 -0.1195  0.1958
 5243TIP3    H137220   0.295   3.281   1.750 -1.7203  0.8152 -0.9071
 5243TIP3    H237221   0.420   3.363   1.725 -0.0934 -0.6979  1.7191
 5244TIP3   OH237222   3.742   6.525  14.909 -0.6335  0.2027 -0.0155
 5244TIP3    H137223   3.782   6.464  14.970  0.5091 -0.4534 -1.3595
 5244TIP3    H237224   3.797   6.603  14.914  1.4758 -0.9766 -2.4401
 5245TIP3   OH237225   2.379   1.836  16.915 -0.1979  0.0474  0.3581
 5245TIP3    H137226   2.439   1.798  16.979  0.0167  1.1308  0.8072
 5245TIP3    H237227   2.322   1.893  16.966 -1.0934 -0.3398 -0.1862
 5246TIP3   OH237228   4.081   2.937  13.104  0.5037 -0.1369  0.1977
 5246TIP3    H137229   4.173   2.947  13.128  1.3819 -0.2586 -2.7013
 5246TIP3    H237230   4.068   2.843  13.098  0.7001 -0.1122 -0.9293
 5247TIP3   OH237231   1.455   4.923   1.417  0.2655 -0.5915 -0.6151
 5247TIP3    H137232   1.432   4.842   1.462 -1.9851 -0.8357 -2.0249
 5247TIP3    H237233   1.471   4.896   1.326  1.2564  0.3228 -0.7311
 5248TIP3   OH237234   5.059   6.748  11.778 -0.0082  0.3978  0.2564
 5248TIP3    H137235   5.117   6.795  11.839  0.4924  1.5209 -1.0305
 5248TIP3    H237236   5.093   6.770  11.692 -0.9829 -0.7999 -0.4632
 5249TIP3   OH237237   2.967   6.788  12.213 -0.2626 -0.0674  0.2056
 5249TIP3    H137238   2.880   6.751  12.204  0.3085 -1.1395 -1.2261
 5249TIP3    H237239   3.014   6.760  12.135  0.7498  2.2619 -0.1048
 5250TIP3   OH237240   3.789   6.626   2.864 -0.1233 -0.0976 -0.0715
 5250TIP3    H137241   3.842   6.609   2.786  0.7495  3.0147 -0.2887
 5250TIP3    H237242   3.808   6.552   2.922  3.5731  0.2162 -0.6228
 5251TIP3   OH237243   4.449   4.944   5.187  0.9360  0.9570 -0.0288
 5251TIP3    H137244   4.504   4.881   5.234  0.2969  1.1811  1.0538
 5251TIP3    H237245   4.509   5.015   5.165  1.0858  1.2389  1.2226
 5252TIP3   OH237246   0.480   0.872   3.432 -0.3421 -0.0620  0.6098
 5252TIP3    H137247   0.503   0.805   3.496  0.1227  1.2672  1.8793
 5252TIP3    H237248   0.551   0.936   3.436 -0.1301 -0.0895 -1.4911
 5253TIP3   OH237249   5.100   3.518  16.261  0.1125 -0.0805  0.3889
 5253TIP3    H137250   5.028   3.561  16.306 -0.0763 -0.3847  0.3844
 5253TIP3    H237251   5.177   3.532  16.317 -0.1656 -0.6591  0.9274
 5254TIP3   OH237252   6.106   5.147  15.631 -0.5247 -0.0403  0.0591
 5254TIP3    H137253   6.113   5.096  15.550 -1.2102  2.2194 -1.4892
 5254TIP3    H237254   6.014   5.138  15.657 -0.1539 -1.3544  1.0717
 5255TIP3   OH237255   3.640   4.801   5.764  0.8483  0.4455 -0.4234
 5255TIP3    H137256   3.631   4.885   5.721  0.3608 -0.7494 -2.8157
 5255TIP3    H237257   3.560   4.753   5.742  0.7316 -0.3803  1.5785
 5256TIP3   OH237258   5.179   5.050   2.020  0.0093  0.0202 -0.2550
 5256TIP3    H137259   5.270   5.031   2.039  0.1357  0.4126 -0.4636
 5256TIP3    H237260   5.178   5.080   1.929 -0.1789  0.9666  0.0407
 5257TIP3   OH237261   1.396   4.727   6.026  0.6340 -0.9147 -0.3190
 5257TIP3    H137262   1.382   4.641   5.985 -0.3434 -0.7921 -0.2577
 5257TIP3    H237263   1.309   4.765   6.032  1.1159  0.3429 -0.8972
 5258TIP3   OH237264   0.033   0.995  15.355 -0.6396 -0.4076  0.2592
 5258TIP3    H137265   0.062   0.910  15.323 -2.0758 -0.9482  0.3357
 5258TIP3    H237266  -0.010   0.977  15.439 -1.4393  0.3161  0.0208
 5259TIP3   OH237267   4.971   2.957   1.639 -0.8641  0.9032  0.3990
 5259TIP3    H137268   4.983   2.911   1.556  0.1639 -1.1765  1.6060
 5259TIP3    H237269   4.889   2.924   1.674 -0.8754  1.1375  0.5979
 5260TIP3   OH237270   3.228   5.564  12.330 -0.7734 -0.2987  0.6235
 5260TIP3    H137271   3.156   5.604  12.280  0.8609  1.5225 -0.3943
 5260TIP3    H237272   3.265   5.636  12.381  1.4461 -0.7168 -0.2689
 5261TIP3   OH237273   1.001   2.525  16.984  0.8822 -0.2607  0.2234
 5261TIP3    H137274   0.922   2.484  17.018  1.3272  0.1601  1.8733
 5261TIP3    H237275   0.991   2.522  16.889 -0.9648 -0.4790  0.3875
 5262TIP3   OH237276   6.185   3.813   3.586  0.6334  0.1110  0.2245
 5262TIP3    H137277   6.187   3.720   3.563  0.9933  0.4275 -1.1507
 5262TIP3    H237278   6.095   3.840   3.568  0.8301  0.2807 -0.5714
 5263TIP3   OH237279   2.234   0.681   2.825 -0.5940 -0.3913  0.0992
 5263TIP3    H137280   2.286   0.634   2.890 -0.8660  0.4741  0.9643
 5263TIP3    H237281   2.145   0.678   2.858 -0.3005  2.8581  1.5652
 5264TIP3   OH237282   1.442   4.399  14.710  0.9622 -0.1146  0.0394
 5264TIP3    H137283   1.483   4.372  14.792 -0.0687 -0.0609  0.5916
 5264TIP3    H237284   1.436   4.495  14.717  1.1601 -0.0818 -0.2388
 5265TIP3   OH237285   0.561   4.177  11.809 -0.7421  0.1852  0.5253
 5265TIP3    H137286   0.544   4.104  11.868  0.4882 -0.0454  0.6202
 5265TIP3    H237287   0.534   4.144  11.723  1.2448 -0.9998  0.2989
 5266TIP3   OH237288   5.831   1.573  11.566  0.3602 -0.5349  0.4059
 5266TIP3    H137289   5.839   1.604  11.476  0.6068 -1.4417  0.1109
 5266TIP3    H237290   5.880   1.636  11.618 -0.8222  0.7088  0.0726
 5267TIP3   OH237291   3.693   5.027   2.820 -0.7602 -0.1605 -0.1653
 5267TIP3    H137292   3.687   4.977   2.901 -1.6083 -2.4257 -1.5221
 5267TIP3    H237293   3.781   5.065   2.821 -0.1331 -1.5577  1.0578
 5268TIP3   OH237294   4.059   6.393   4.988 -0.0579 -0.7673  0.1641
 5268TIP3    H137295   4.054   6.416   4.895  1.6539 -0.6151  0.0699
 5268TIP3    H237296   4.112   6.313   4.990  3.3866  1.3315  1.1913
 5269TIP3   OH237297   5.369   0.230   5.215  0.1692  0.3537  0.3808
 5269TIP3    H137298   5.446   0.236   5.159  1.1253 -3.1326  1.1214
 5269TIP3    H237299   5.309   0.173   5.166 -0.9163  0.9656  0.9581
 5270TIP3   OH237300   4.748   1.351  14.946 -1.0099  0.5016 -0.0237
 5270TIP3    H137301   4.665   1.391  14.972 -1.0694  0.3122  0.0767
 5270TIP3    H237302   4.774   1.298  15.021 -0.4936  1.0392  0.1800
 5271TIP3   OH237303   0.780   3.795   5.900  0.2124 -0.1000 -0.9599
 5271TIP3    H137304   0.870   3.827   5.904  0.6038 -1.1293 -1.1586
 5271TIP3    H237305   0.736   3.854   5.839  0.3000  1.4143  0.3706
 5272TIP3   OH237306   1.086   4.274  15.517 -0.7031 -0.3384  0.5211
 5272TIP3    H137307   1.171   4.294  15.479 -1.4757 -1.3874 -1.9332
 5272TIP3    H237308   1.102   4.199  15.574  0.0553 -0.3109  0.3582
 5273TIP3   OH237309   3.694   6.249  11.892 -0.0106 -0.3252  0.0961
 5273TIP3    H137310   3.783   6.212  11.898  0.6128  1.2422  1.0810
 5273TIP3    H237311   3.681   6.293  11.976 -1.4234  0.1257 -0.3445
 5274TIP3   OH237312   3.728   6.252  16.943  0.1415  0.1058  0.3197
 5274TIP3    H137313   3.646   6.214  16.974  0.8666 -0.9618  0.9767
 5274TIP3    H237314   3.796   6.196  16.978  1.2201  1.4706  0.5209
 5275TIP3   OH237315   6.612   6.482  12.774 -0.2078  0.1613  0.5643
 5275TIP3    H137316   6.651   6.417  12.832  2.4978  0.3637 -0.8649
 5275TIP3    H237317   6.677   6.553  12.771 -0.9244  0.7968 -1.5093
 5276TIP3   OH237318   0.544   1.851  10.903 -0.1562 -0.2943  0.1061
 5276TIP3    H137319   0.542   1.946  10.887  0.7105 -0.5628 -1.9225
 5276TIP3    H237320   0.454   1.829  10.928 -1.2555  0.6190 -2.6515
 5277TIP3   OH237321   5.168   6.465  11.110 -0.3588 -0.0768 -0.7372
 5277TIP3    H137322   5.109   6.458  11.034 -2.0624  3.2361  0.0801
 5277TIP3    H237323   5.247   6.506  11.074 -1.2174  1.6271 -0.8166
 5278TIP3   OH237324   0.637   4.774  13.234 -0.0088  0.1561 -0.0326
 5278TIP3    H137325   0.727   4.742  13.239 -0.2304 -0.3116  1.7449
 5278TIP3    H237326   0.583   4.696  13.246 -0.6129  0.6789  0.7818
 5279TIP3   OH237327   2.804   5.046  12.743  0.0005 -0.0169  0.3139
 5279TIP3    H137328   2.745   5.110  12.705  0.8700  0.2535 -0.6356
 5279TIP3    H237329   2.762   5.019  12.825 -0.1203  2.1437  1.0050
 5280TIP3   OH237330   3.759   4.110   4.218  0.0475 -0.7175  0.9449
 5280TIP3    H137331   3.783   4.020   4.200 -1.2889 -1.2210  1.5388
 5280TIP3    H237332   3.815   4.135   4.292  0.8428 -0.8380  0.3987
 5281TIP3   OH237333   3.071   6.039  12.937 -0.5137  0.1971 -0.4123
 5281TIP3    H137334   3.095   5.965  12.881  0.6120  0.4725 -0.3172
 5281TIP3    H237335   3.067   6.003  13.025 -0.2524  0.1955 -0.4026
 5282TIP3   OH237336   4.744   2.002   6.702  0.1067  0.5979 -0.3050
 5282TIP3    H137337   4.676   2.065   6.678 -1.1832 -1.3977 -2.2467
 5282TIP3    H237338   4.809   2.010   6.632 -0.4520 -0.6953 -1.0067
 5283TIP3   OH237339   3.051   1.272  15.495 -0.0626 -0.3089  0.0876
 5283TIP3    H137340   3.063   1.204  15.561 -0.7268 -0.1279  0.4032
 5283TIP3    H237341   3.108   1.246  15.423 -1.7961 -2.2976 -0.6450
 5284TIP3   OH237342   5.039   2.461   2.412 -0.4718 -0.4614  1.0822
 5284TIP3    H137343   4.963   2.414   2.449  0.4546 -1.9680  1.1700
 5284TIP3    H237344   5.002   2.515   2.342 -1.6630 -1.0234  1.2516
 5285TIP3   OH237345   2.166   6.048   1.692  0.3041  0.4052  0.4158
 5285TIP3    H137346   2.248   6.018   1.654 -0.7672 -0.0864 -1.6095
 5285TIP3    H237347   2.149   5.987   1.764  0.8384 -0.5549 -0.2558
 5286TIP3   OH237348   6.506   2.765   6.120  0.0198  0.3936 -0.4612
 5286TIP3    H137349   6.444   2.694   6.140  1.2755 -0.2959  1.1409
 5286TIP3    H237350   6.472   2.840   6.169 -0.0766  0.2819 -0.3543
 5287TIP3   OH237351   6.313   0.166   3.123  0.2774  0.1286  0.0695
 5287TIP3    H137352   6.306   0.101   3.192  0.0453  0.0497 -0.0283
 5287TIP3    H237353   6.253   0.236   3.149 -3.8174 -2.0717 -2.4833
 5288TIP3   OH237354   5.628   0.526  16.787  0.2166 -0.0836  0.7135
 5288TIP3    H137355   5.586   0.442  16.805  0.6158 -0.4550 -0.0279
 5288TIP3    H237356   5.657   0.519  16.696 -0.0529  0.9978  0.5335
 5289TIP3   OH237357   0.547   3.542  14.158 -0.1372 -0.5846  0.1877
 5289TIP3    H137358   0.575   3.598  14.231  0.1326 -1.9037  1.1373
 5289TIP3    H237359   0.453   3.530  14.172 -1.1454  2.8976 -2.3488
 5290TIP3   OH237360   6.506   3.650   0.170 -0.5486  0.0902 -0.2577
 5290TIP3    H137361   6.502   3.586   0.099 -0.4311 -0.4364  0.2020
 5290TIP3    H237362   6.443   3.717   0.146  0.4451  0.6059 -1.5299
 5291TIP3   OH237363   5.812   3.353   5.653 -0.2464  0.0093 -0.3106
 5291TIP3    H137364   5.840   3.266   5.627  1.4265  0.4145  0.0171
 5291TIP3    H237365   5.795   3.345   5.747 -0.0135  0.0461 -0.2643
 5292TIP3   OH237366   6.744   0.041   3.615 -0.0694  0.1167 -0.4580
 5292TIP3    H137367   6.756   0.117   3.672 -2.4208  0.8364 -0.8088
 5292TIP3    H237368   6.747  -0.034   3.674  0.6149  0.6076  0.1463
 5293TIP3   OH237369   0.417   2.673  11.663 -0.6919 -0.2626 -0.3389
 5293TIP3    H137370   0.340   2.617  11.663 -0.7331 -0.2585 -1.9547
 5293TIP3    H237371   0.393   2.748  11.716 -1.1344 -1.1013  0.6882
 5294TIP3   OH237372   5.781   3.706   3.920  0.2448 -0.6294 -0.7147
 5294TIP3    H137373   5.862   3.664   3.891  0.7180  0.4369 -0.9593
 5294TIP3    H237374   5.769   3.676   4.010  0.1937 -1.8350 -1.1004
 5295TIP3   OH237375   4.012   3.552   6.638  0.0851 -0.1707 -0.0926
 5295TIP3    H137376   3.968   3.492   6.699 -0.9685  0.5647 -0.1015
 5295TIP3    H237377   3.986   3.639   6.668 -0.2040  0.2154 -1.4207
 5296TIP3   OH237378   1.879   3.912   0.092  0.0489  0.8794  0.2882
 5296TIP3    H137379   1.863   3.857   0.016 -0.0975 -0.0560  0.9726
 5296TIP3    H237380   1.948   3.972   0.064 -0.5794  1.0981 -0.8301
 5297TIP3   OH237381   6.794   2.156   4.522 -0.3807  0.1294  0.0300
 5297TIP3    H137382   6.756   2.120   4.603 -0.7403  1.0256  0.2698
 5297TIP3    H237383   6.868   2.209   4.551 -0.1219 -0.0589 -0.2829
 5298TIP3   OH237384   5.845   3.393  15.674  0.1075  0.0494  0.1470
 5298TIP3    H137385   5.906   3.349  15.615 -0.5158 -0.0046 -0.4630
 5298TIP3    H237386   5.900   3.456  15.721  0.7654 -0.4897  0.1165
 5299TIP3   OH237387   4.610   5.469   5.624 -0.1103  0.0758  0.4078
 5299TIP3    H137388   4.544   5.491   5.689  0.5789 -1.3074  1.6221
 5299TIP3    H237389   4.682   5.530   5.641 -0.7549  1.1623 -0.5156
 5300TIP3   OH237390   4.874   1.038  14.024 -0.1141  0.0394 -0.3490
 5300TIP3    H137391   4.857   1.132  14.016 -0.5698 -0.0752 -0.7774
 5300TIP3    H237392   4.952   1.023  13.972 -0.2901  0.1106 -0.6362
 5301TIP3   OH237393   5.763   5.157   4.282  0.1942 -0.0933 -0.2864
 5301TIP3    H137394   5.844   5.135   4.236  0.3631  0.7844 -0.4218
 5301TIP3    H237395   5.734   5.074   4.320  1.1554 -0.4179 -0.2317
 5302TIP3   OH237396   5.059   2.579  11.076 -0.5587  0.1773 -0.5808
 5302TIP3    H137397   5.094   2.605  11.162 -1.0457 -0.0139 -0.3232
 5302TIP3    H237398   5.128   2.525  11.037  0.4711  1.7978 -1.1128
 5303TIP3   OH237399   2.110   6.560  16.476  0.2809 -0.1676 -0.2760
 5303TIP3    H137400   2.171   6.630  16.453  0.2799  0.1053  0.4923
 5303TIP3    H237401   2.157   6.479  16.456  1.5628 -0.0134  1.7431
 5304TIP3   OH237402   4.712   0.684  14.402 -0.2772 -0.0370  0.3819
 5304TIP3    H137403   4.757   0.666  14.485 -0.1730  0.6409  0.4789
 5304TIP3    H237404   4.730   0.777  14.385 -1.7693  0.2999  0.5099
 5305TIP3   OH237405   0.895   3.954  16.207  0.0473 -0.2161  0.5221
 5305TIP3    H137406   0.880   3.860  16.199 -1.9079 -0.1263  2.1722
 5305TIP3    H237407   0.913   3.968  16.300  3.0004  0.7845 -0.0859
 5306TIP3   OH237408   0.010   3.567  14.254  0.1805 -0.1605 -0.6235
 5306TIP3    H137409  -0.057   3.596  14.192  0.9875 -0.6755 -1.7745
 5306TIP3    H237410   0.030   3.645  14.306 -2.6460 -0.4363  1.0839
 5307TIP3   OH237411   1.731   0.751   4.232  0.0088  0.0603 -0.0454
 5307TIP3    H137412   1.739   0.681   4.167 -0.2685 -0.9860  1.0137
 5307TIP3    H237413   1.777   0.718   4.309 -0.6008  0.8132  0.6609
 5308TIP3   OH237414   6.556   0.996   2.951 -0.6833 -0.0888 -0.1632
 5308TIP3    H137415   6.500   0.964   3.022 -1.3347  2.0133  0.3468
 5308TIP3    H237416   6.610   1.063   2.992  0.8625 -0.7123 -1.0935
 5309TIP3   OH237417   2.865   1.617  14.900  0.3732 -0.1590 -0.3519
 5309TIP3    H137418   2.829   1.568  14.974  0.9502  0.4792  0.3650
 5309TIP3    H237419   2.957   1.590  14.895  0.6651  0.7398 -0.0270
 5310TIP3   OH237420   1.601   5.237   2.101 -0.2681  0.4811 -0.0599
 5310TIP3    H137421   1.634   5.305   2.160  0.0627  0.7286 -0.5160
 5310TIP3    H237422   1.517   5.211   2.138  0.1375  0.3178  0.7576
 5311TIP3   OH237423   6.613   3.467   2.168 -0.0809 -0.0113 -0.2728
 5311TIP3    H137424   6.681   3.430   2.111 -0.3153  0.6075 -0.9748
 5311TIP3    H237425   6.564   3.391   2.200  1.0103 -0.4689  0.3360
 5312TIP3   OH237426   2.903   5.643  12.945  0.1306  0.7169 -0.3967
 5312TIP3    H137427   2.972   5.578  12.934 -1.7657 -1.2635 -1.3622
 5312TIP3    H237428   2.923   5.686  13.028  2.5685  0.3718 -0.7226
 5313TIP3   OH237429   5.981   0.827  14.494  0.1750  0.5243  0.0970
 5313TIP3    H137430   5.999   0.759  14.558  1.8341 -1.2175 -2.0524
 5313TIP3    H237431   6.068   0.855  14.464 -0.4879 -0.2895 -2.8678
 5314TIP3   OH237432   1.471   5.273   3.523  0.0086  0.3571  0.1994
 5314TIP3    H137433   1.498   5.343   3.464 -1.7474  0.5068 -0.4727
 5314TIP3    H237434   1.462   5.196   3.467  0.5852 -0.0904  0.6981
 5315TIP3   OH237435   2.568   6.093   6.420  0.2680 -0.1777 -0.2016
 5315TIP3    H137436   2.649   6.055   6.383 -0.7387 -2.3554 -0.3074
 5315TIP3    H237437   2.590   6.111   6.511  0.7290 -1.3085 -0.0664
 5316TIP3   OH237438   2.523   6.335  14.586 -0.6586 -0.2804 -0.2381
 5316TIP3    H137439   2.562   6.416  14.552  1.8181 -0.4364  1.9203
 5316TIP3    H237440   2.448   6.363  14.637 -2.0307  0.2615 -2.4150
 5317TIP3   OH237441   4.140   1.469  13.502  0.3655  0.8465 -0.1111
 5317TIP3    H137442   4.191   1.389  13.489 -1.2394  0.1053 -2.1839
 5317TIP3    H237443   4.162   1.524  13.427 -2.0208  0.4115 -1.1802
 5318TIP3   OH237444   3.517   0.183  16.654  0.9639 -0.0008  0.3772
 5318TIP3    H137445   3.569   0.122  16.601  2.7666  1.3094  0.5385
 5318TIP3    H237446   3.582   0.241  16.694 -0.6118  1.3736  1.0472
 5319TIP3   OH237447   1.388   2.083   0.530 -0.0197 -0.0595  0.0370
 5319TIP3    H137448   1.436   2.132   0.596  0.5755 -1.6501  0.8105
 5319TIP3    H237449   1.452   2.025   0.490 -0.9822 -1.2486  0.1448
 5320TIP3   OH237450   1.216   5.761   5.770  0.1970  0.0327 -0.0561
 5320TIP3    H137451   1.202   5.675   5.810  1.4814 -0.1737 -0.0014
 5320TIP3    H237452   1.145   5.770   5.706  0.8211 -1.6740 -1.0525
 5321TIP3   OH237453   6.324   3.142   6.368  0.2462 -0.1292 -0.2369
 5321TIP3    H137454   6.257   3.082   6.402  0.9686 -1.0127 -0.3290
 5321TIP3    H237455   6.390   3.085   6.329  1.1825  0.7004  0.0708
 5322TIP3   OH237456   2.343   3.451   5.555 -0.3280 -0.5376  0.2653
 5322TIP3    H137457   2.386   3.529   5.592  0.4055 -1.7234  2.0658
 5322TIP3    H237458   2.406   3.380   5.570 -1.3107 -1.6352 -0.5988
 5323TIP3   OH237459   2.120   4.073   2.991  0.5345  0.0556 -0.1965
 5323TIP3    H137460   2.113   4.069   2.896  1.8998 -0.9528 -0.2944
 5323TIP3    H237461   2.062   4.003   3.023  0.3957  0.1169 -0.3193
 5324TIP3   OH237462   3.306   4.726   1.670  0.2709 -0.3698  0.5120
 5324TIP3    H137463   3.230   4.671   1.684  1.1701 -1.5449  0.9432
 5324TIP3    H237464   3.365   4.673   1.617 -0.0038  1.2750 -1.5666
 5325TIP3   OH237465   4.624   5.217   4.061  0.0562  0.1929 -0.4688
 5325TIP3    H137466   4.713   5.207   4.095  0.2286  0.3553 -0.8547
 5325TIP3    H237467   4.636   5.259   3.975 -0.2234 -1.8755 -1.5902
 5326TIP3   OH237468   6.182   6.740   5.509 -0.3533 -0.1369  0.5883
 5326TIP3    H137469   6.179   6.646   5.491  3.0232  0.0975 -2.2266
 5326TIP3    H237470   6.262   6.753   5.559 -1.0268  1.2237  1.3718
 5327TIP3   OH237471   2.916   4.925   4.205 -0.1148 -0.2021  0.4224
 5327TIP3    H137472   2.877   4.840   4.224 -1.7387 -0.6847 -3.9273
 5327TIP3    H237473   2.842   4.983   4.187  0.9703  2.1181  2.7053
 5328TIP3   OH237474   5.352   5.595  15.981  0.2452 -0.0373 -0.0975
 5328TIP3    H137475   5.341   5.500  15.972 -2.0230  0.1244  0.4126
 5328TIP3    H237476   5.328   5.614  16.071  1.1809  0.9985 -0.0356
 5329TIP3   OH237477   1.792   1.574  15.073 -0.0377 -0.5268  0.9087
 5329TIP3    H137478   1.847   1.518  15.127  0.6896 -0.2468  0.4776
 5329TIP3    H237479   1.729   1.613  15.134 -0.0118 -1.1540  1.3409
 5330TIP3   OH237480   3.910   4.714  16.029 -0.0246 -0.4629 -0.8086
 5330TIP3    H137481   3.905   4.733  16.122  0.8718 -0.3084 -0.7816
 5330TIP3    H237482   3.833   4.660  16.011 -0.1767 -0.5342  0.0284
 5331TIP3   OH237483   1.067   0.074  16.969 -0.5428  0.1337  0.6749
 5331TIP3    H137484   0.995   0.075  16.907  0.6557  0.0696 -0.7827
 5331TIP3    H237485   1.059   0.155  17.018 -0.9364  0.6763 -0.2796
 5332TIP3   OH237486   2.898   4.648  12.360 -0.1480 -0.1826  0.3047
 5332TIP3    H137487   2.881   4.645  12.266 -0.6952 -1.0019  0.4174
 5332TIP3    H237488   2.830   4.706  12.395  0.4415  0.6330  0.1276
 5333TIP3   OH237489   2.135   3.431   2.444  0.1039  0.4828 -0.5409
 5333TIP3    H137490   2.188   3.446   2.522  0.1202 -2.1322  0.0554
 5333TIP3    H237491   2.046   3.449   2.472  0.0775 -0.6985  0.2343
 5334TIP3   OH237492   1.866   4.979   0.807  0.2616 -0.1868  0.0769
 5334TIP3    H137493   1.900   4.901   0.763 -2.2574 -0.8943 -0.7972
 5334TIP3    H237494   1.907   4.977   0.894  2.2960 -0.9514 -0.8289
 5335TIP3   OH237495   5.525   3.242   2.191  0.0974  0.2150 -0.1316
 5335TIP3    H137496   5.568   3.306   2.248 -1.0412 -0.1945  1.2548
 5335TIP3    H237497   5.442   3.284   2.167  0.8403  0.6716 -2.1162
 5336TIP3   OH237498   1.759   5.496  16.151  0.0238 -0.1854 -0.2850
 5336TIP3    H137499   1.694   5.534  16.211  0.2708  0.1386 -0.2223
 5336TIP3    H237500   1.759   5.403  16.173  0.6878  0.0432  0.7807
 5337TIP3   OH237501   6.024   4.467   3.047 -0.6692  0.0015 -0.0285
 5337TIP3    H137502   6.059   4.468   2.958 -1.4461 -1.2101 -0.3869
 5337TIP3    H237503   5.943   4.416   3.039 -0.6464 -0.2937  1.4078
 5338TIP3   OH237504   5.291   4.920  12.967  0.1841  0.7598 -0.0257
 5338TIP3    H137505   5.321   4.959  13.049  1.4797  1.7094 -0.9162
 5338TIP3    H237506   5.245   4.991  12.922  0.1855  0.4788 -0.4764
 5339TIP3   OH237507   4.269   0.047  14.493 -0.3160 -0.2084 -0.1191
 5339TIP3    H137508   4.330   0.039  14.567 -1.2054  0.8404  0.7712
 5339TIP3    H237509   4.307   0.115  14.438 -0.1943 -0.2241 -0.0548
 5340TIP3   OH237510   3.425   2.872   4.383 -0.5710  0.3621 -0.3877
 5340TIP3    H137511   3.513   2.889   4.348 -0.7251  0.3142 -0.8083
 5340TIP3    H237512   3.407   2.946   4.440 -0.5885  0.7956 -0.9493
 5341TIP3   OH237513   3.815   0.124  11.922  0.6720 -0.2331 -0.0811
 5341TIP3    H137514   3.828   0.038  11.960  1.6666  0.6536  1.6921
 5341TIP3    H237515   3.809   0.183  11.997  0.5886  1.3139 -1.2588
 5342TIP3   OH237516   5.466   0.569  16.284 -0.1916  0.5217 -0.0227
 5342TIP3    H137517   5.467   0.474  16.276 -0.2819  0.5353 -0.1898
 5342TIP3    H237518   5.375   0.591  16.300  0.0508  0.4465  1.6399
 5343TIP3   OH237519   2.880   6.787   1.745 -0.4837  0.4125  0.0289
 5343TIP3    H137520   2.957   6.842   1.752  1.3230 -2.0350  0.8051
 5343TIP3    H237521   2.898   6.728   1.672 -1.8599  0.1040 -0.0968
 5344TIP3   OH237522   1.862   1.139   4.952 -0.0328  0.4264 -0.1325
 5344TIP3    H137523   1.796   1.156   4.885 -0.9482 -0.3831  0.5261
 5344TIP3    H237524   1.826   1.178   5.032  0.9040  1.1286 -0.0436
 5345TIP3   OH237525   1.042   5.219  12.182  0.3233 -0.3705  0.1542
 5345TIP3    H137526   1.032   5.312  12.203  0.4043 -0.4013  0.3305
 5345TIP3    H237527   1.113   5.190  12.239  0.3004 -0.5397  0.0947
 5346TIP3   OH237528   3.124   4.691  12.490 -0.2624 -0.8278 -0.2596
 5346TIP3    H137529   3.040   4.689  12.444 -0.1196 -0.5435 -0.5373
 5346TIP3    H237530   3.175   4.758  12.444 -0.8592  1.0424  1.6072
 5347TIP3   OH237531   1.200   4.781  15.655  0.1062 -0.0488  0.4500
 5347TIP3    H137532   1.192   4.749  15.565  1.1001 -2.0785  1.0207
 5347TIP3    H237533   1.295   4.790  15.669  0.0864 -1.4575  1.8028
 5348TIP3   OH237534   3.206   3.367   5.230 -0.1938  0.1707 -0.0776
 5348TIP3    H137535   3.114   3.392   5.221 -0.6885 -1.1343  1.1231
 5348TIP3    H237536   3.219   3.356   5.324  0.8872 -0.7074 -0.3141
 5349TIP3   OH237537   5.715   2.599  14.437 -0.0716  0.5725 -0.2361
 5349TIP3    H137538   5.792   2.645  14.402 -0.5106  2.3469  0.9942
 5349TIP3    H237539   5.642   2.658  14.418 -0.7826  0.0208  0.7263
 5350TIP3   OH237540   5.189   1.240   6.401  0.2966  0.4183  0.8496
 5350TIP3    H137541   5.152   1.328   6.411 -0.7258 -0.1689  2.9206
 5350TIP3    H237542   5.283   1.253   6.403  0.2531  1.6878 -1.7025
 5351TIP3   OH237543   2.518   1.995   2.039  0.1868  0.6479 -0.0919
 5351TIP3    H137544   2.574   1.926   2.075 -0.6783  0.7274  1.4913
 5351TIP3    H237545   2.578   2.066   2.018  0.7454  0.5603  1.1238
 5352TIP3   OH237546   2.430   0.041   0.303 -0.2445 -0.0999  0.0346
 5352TIP3    H137547   2.418   0.136   0.298 -2.9389 -0.4536 -2.1222
 5352TIP3    H237548   2.513   0.031   0.351  0.7442  3.3166 -0.6471
 5353TIP3   OH237549   3.248   4.813  16.429 -0.5780 -0.4036 -0.5329
 5353TIP3    H137550   3.250   4.752  16.503  0.2841  0.5277  0.2439
 5353TIP3    H237551   3.269   4.898  16.468  1.4827 -0.1418 -2.0989
 5354TIP3   OH237552   2.286   2.125   4.422  0.6100 -0.2025 -0.2536
 5354TIP3    H137553   2.242   2.041   4.423  0.6676 -0.2468 -0.8440
 5354TIP3    H237554   2.258   2.168   4.502 -1.0082  0.0232 -0.8981
 5355TIP3   OH237555   4.334   3.381   5.631  0.2622  0.2502 -0.3045
 5355TIP3    H137556   4.327   3.415   5.720  2.4827  2.9828 -1.0244
 5355TIP3    H237557   4.251   3.403   5.589  0.0777  1.0718  0.4737
 5356TIP3   OH237558   0.125   6.733  15.912 -0.3502 -0.2089 -0.2530
 5356TIP3    H137559   0.045   6.694  15.947 -0.9158  0.3952 -0.8647
 5356TIP3    H237560   0.097   6.784  15.836  0.3024  1.6635  0.6790
 5357TIP3   OH237561   6.748   2.553  16.728 -0.3998 -0.2068 -0.0010
 5357TIP3    H137562   6.660   2.588  16.741 -0.8085 -0.7064 -1.2683
 5357TIP3    H237563   6.735   2.461  16.704  0.5584 -0.7105  1.2906
 5358TIP3   OH237564   5.450   3.502  16.852 -0.6564 -0.1204 -0.6682
 5358TIP3    H137565   5.378   3.468  16.800 -1.5039  0.3096  0.1919
 5358TIP3    H237566   5.433   3.595  16.860 -1.7958 -0.4512  2.1501
 5359TIP3   OH237567   5.033   6.396  13.395  0.7635 -0.9427  0.0272
 5359TIP3    H137568   5.021   6.474  13.450  0.2910 -1.1030  0.1480
 5359TIP3    H237569   5.070   6.331  13.454  0.2608 -1.1131  0.1513
 5360TIP3   OH237570   0.488   5.725  11.160  0.1252 -0.5516 -0.4464
 5360TIP3    H137571   0.433   5.693  11.231  0.7861 -2.4519 -0.7248
 5360TIP3    H237572   0.430   5.731  11.085 -0.3978  0.6932  0.0309
 5361TIP3   OH237573   5.524   4.779   3.700  0.6173  0.1283 -0.5562
 5361TIP3    H137574   5.578   4.736   3.766 -0.9644  0.1122  0.7655
 5361TIP3    H237575   5.576   4.856   3.674  1.4966 -0.1465  0.3128
 5362TIP3   OH237576   5.335   3.554  11.827 -0.3841 -0.2289  0.2756
 5362TIP3    H137577   5.298   3.491  11.765 -1.8676 -0.2264  1.1094
 5362TIP3    H237578   5.381   3.500  11.891 -0.0712 -0.3252 -0.0263
 5363TIP3   OH237579   2.512   0.800   5.665  0.2907  0.2691 -0.7363
 5363TIP3    H137580   2.550   0.715   5.687  0.3352  0.4587 -0.0440
 5363TIP3    H237581   2.523   0.852   5.745 -1.6403  0.2541 -0.4203
 5364TIP3   OH237582   2.269   3.280  11.780  0.6522  0.6077 -0.0019
 5364TIP3    H137583   2.227   3.194  11.772  1.7797  0.0647 -0.3712
 5364TIP3    H237584   2.199   3.339  11.804  0.1948 -0.7764  2.3859
 5365TIP3   OH237585   1.511   5.067  11.778  0.0840  0.3592  0.5361
 5365TIP3    H137586   1.492   5.002  11.711  0.4845 -0.8923  1.6051
 5365TIP3    H237587   1.569   5.023  11.840  1.4538  2.1416  0.6152
 5366TIP3   OH237588   5.292   6.502   6.026  0.1979 -0.0475 -0.4473
 5366TIP3    H137589   5.218   6.549   6.065 -0.2514 -0.1710 -1.1357
 5366TIP3    H237590   5.267   6.410   6.030 -0.3733  0.0089 -2.0495
 5367TIP3   OH237591   6.644   3.727  11.743 -0.0413 -0.6633 -0.1805
 5367TIP3    H137592   6.628   3.633  11.738 -2.2412 -0.4685  1.5954
 5367TIP3    H237593   6.557   3.767  11.743  0.7317  1.2013  1.1840
 5368TIP3   OH237594   4.129   0.745   1.371  0.4933 -0.4404 -0.4279
 5368TIP3    H137595   4.154   0.762   1.281  0.8348  0.4647 -0.1774
 5368TIP3    H237596   4.098   0.830   1.404  1.5635 -0.4557  0.6753
 5369TIP3   OH237597   3.060   4.585   6.339 -0.3894 -0.5971 -0.0930
 5369TIP3    H137598   3.122   4.589   6.266 -1.5642 -2.7564 -1.2988
 5369TIP3    H237599   3.033   4.676   6.353  0.3599 -0.0586 -1.8919
 5370TIP3   OH237600   2.190   6.273   3.539 -0.1492  0.1784  0.6218
 5370TIP3    H137601   2.105   6.258   3.582 -0.1314 -1.2408  0.2141
 5370TIP3    H237602   2.171   6.262   3.446  0.6866 -1.3560  0.5989
 5371TIP3   OH237603   2.712   0.160  15.173  0.3254 -0.0554  0.1461
 5371TIP3    H137604   2.705   0.134  15.265 -1.5085 -0.4292 -0.0745
 5371TIP3    H237605   2.776   0.231  15.173  0.4249 -0.1222  1.6890
 5372TIP3   OH237606   3.764   3.508   4.902 -0.3330 -0.6836  0.2342
 5372TIP3    H137607   3.771   3.442   4.833  0.0762  0.4465 -0.8232
 5372TIP3    H237608   3.684   3.556   4.882  0.8749  1.0380 -0.7492
 5373TIP3   OH237609   5.389   5.041   1.452  0.3786 -0.4667 -0.0157
 5373TIP3    H137610   5.442   4.974   1.410  2.2602  0.7138  0.3884
 5373TIP3    H237611   5.420   5.124   1.416 -1.3657  0.2691  0.0691
 5374TIP3   OH237612   4.213   5.289   5.157 -0.4497  0.1100 -0.0002
 5374TIP3    H137613   4.230   5.196   5.168 -0.6426  0.2144  1.3254
 5374TIP3    H237614   4.271   5.332   5.221  0.1582  0.9589 -1.0633
 5375TIP3   OH237615   0.266   1.611   5.105 -0.2941 -0.0948 -0.2378
 5375TIP3    H137616   0.318   1.626   5.184  1.3461  1.0905 -1.4769
 5375TIP3    H237617   0.177   1.634   5.131  0.4900  2.0653  0.8003
 5376TIP3   OH237618   6.644   5.620   0.349 -0.3581 -0.7817 -0.4993
 5376TIP3    H137619   6.616   5.699   0.397  0.8884 -1.0985  0.8436
 5376TIP3    H237620   6.645   5.647   0.257  1.0538  1.1477 -0.0054
 5377TIP3   OH237621   3.737   4.477   4.590  0.7046 -0.0195  0.3461
 5377TIP3    H137622   3.716   4.519   4.674 -1.6931 -3.0506  1.4853
 5377TIP3    H237623   3.704   4.538   4.524 -0.3592  1.0398  1.7712
 5378TIP3   OH237624   3.902   6.495  10.253  0.1253  0.2448  0.4720
 5378TIP3    H137625   3.876   6.572  10.202 -1.9336 -0.8654 -0.3122
 5378TIP3    H237626   3.956   6.444  10.193  0.2413  0.3806  0.4624
 5379TIP3   OH237627   0.069   1.151  12.546  0.1009  0.4052  0.2469
 5379TIP3    H137628   0.118   1.079  12.587  0.2900  0.2343 -0.2593
 5379TIP3    H237629   0.054   1.214  12.616  1.2172  0.5452  0.3848
 5380TIP3   OH237630   6.662   5.466   2.699  0.3329 -0.1938  0.1518
 5380TIP3    H137631   6.594   5.425   2.646 -0.5673  2.8973 -1.3831
 5380TIP3    H237632   6.616   5.495   2.778  0.2735  0.2822 -0.0524
 5381TIP3   OH237633   6.196   5.395   4.173  0.6400  0.0409 -0.0227
 5381TIP3    H137634   6.221   5.487   4.183  0.0943  0.2460 -0.4611
 5381TIP3    H237635   6.101   5.398   4.162  0.5864 -0.6013  0.2599
 5382TIP3   OH237636   4.583   0.512  13.535 -0.0629  0.0494  0.4142
 5382TIP3    H137637   4.583   0.452  13.460  0.3027 -0.5354  0.8727
 5382TIP3    H237638   4.635   0.587  13.506 -1.4021  0.6432 -0.5452
 5383TIP3   OH237639   1.142   1.791   4.006  0.2884 -0.5312  0.5110
 5383TIP3    H137640   1.075   1.859   4.013 -0.7151 -1.4535  0.2342
 5383TIP3    H237641   1.117   1.726   4.071 -0.0778 -1.6847 -0.7345
 5384TIP3   OH237642   3.322   6.211  15.667 -0.2026 -0.2609 -0.2187
 5384TIP3    H137643   3.230   6.190  15.679 -0.6141 -0.4457 -3.0607
 5384TIP3    H237644   3.336   6.206  15.573  2.0856  2.4029 -0.1539
 5385TIP3   OH237645   4.088   6.207  13.657 -0.0209  0.5404 -0.3278
 5385TIP3    H137646   4.053   6.281  13.608 -2.5483 -0.8443 -0.7641
 5385TIP3    H237647   4.038   6.206  13.739  0.1889 -0.4664 -0.1897
 5386TIP3   OH237648   6.147   5.216  12.218 -0.5609  0.0014 -0.6374
 5386TIP3    H137649   6.066   5.180  12.182 -0.6604 -1.3415  0.7986
 5386TIP3    H237650   6.216   5.164  12.179 -0.4061  0.8275 -1.4909
 5387TIP3   OH237651   6.337   2.838  14.163 -0.0284  0.0674 -1.0305
 5387TIP3    H137652   6.377   2.875  14.084 -0.1756  2.1656 -0.2029
 5387TIP3    H237653   6.411   2.802  14.212  0.6141  1.8821 -0.5688
 5388TIP3   OH237654   6.083   2.760  17.002 -0.2128 -0.0188 -0.0797
 5388TIP3    H137655   6.161   2.713  17.032  0.6049  0.7979 -0.8289
 5388TIP3    H237656   6.101   2.778  16.909 -0.7122  1.2990  0.0491
 5389TIP3   OH237657   2.996   5.906  14.607  0.0626  0.3597  0.4730
 5389TIP3    H137658   2.919   5.875  14.560  1.1793 -1.1669 -0.4634
 5389TIP3    H237659   2.970   5.907  14.699 -1.1843  0.2845  0.1388
 5390TIP3   OH237660   3.776   5.306  15.578 -0.2695 -0.9925 -0.5391
 5390TIP3    H137661   3.796   5.245  15.649 -0.0466 -0.2500  0.0472
 5390TIP3    H237662   3.861   5.341  15.552 -0.5228  0.2235  0.1886
 5391TIP3   OH237663   6.653   1.607   5.522  0.5966 -0.2858 -0.5230
 5391TIP3    H137664   6.639   1.540   5.589  0.6859 -1.3189 -1.4844
 5391TIP3    H237665   6.748   1.610   5.511  0.7983  1.8123  1.2329
 5392TIP3   OH237666   3.545   1.896   0.042 -1.1164  0.7719  0.7402
 5392TIP3    H137667   3.571   1.805   0.058  0.4186  1.1621  0.6533
 5392TIP3    H237668   3.623   1.947   0.062 -2.2569  2.1902  1.7672
 5393TIP3   OH237669   6.657   2.738  13.383 -0.1454  0.2069  0.3087
 5393TIP3    H137670   6.593   2.677  13.347 -0.7749  1.8038 -1.4565
 5393TIP3    H237671   6.608   2.820  13.394  1.3517  1.2186 -0.2485
 5394TIP3   OH237672   4.587   4.830  14.874  0.3304 -0.4451  0.2595
 5394TIP3    H137673   4.554   4.743  14.853  0.4181 -0.5922  0.7397
 5394TIP3    H237674   4.670   4.837  14.826 -0.4593 -0.0008 -1.1178
 5395TIP3   OH237675   2.293   3.504   2.232 -0.6502  0.1099  0.5127
 5395TIP3    H137676   2.256   3.463   2.310  0.0167 -1.3049  0.1105
 5395TIP3    H237677   2.341   3.434   2.188  0.5605  1.3292 -0.1888
 5396TIP3   OH237678   0.075   3.857  16.138  0.1092  0.6199  0.1121
 5396TIP3    H137679   0.014   3.787  16.115 -1.6847  2.7847 -2.4603
 5396TIP3    H237680   0.033   3.903  16.211  1.0898 -0.6860  1.5326
 5397TIP3   OH237681   0.375   5.029   5.286 -0.1824 -0.1386  0.2465
 5397TIP3    H137682   0.333   4.995   5.365  0.3788  0.9931  1.0633
 5397TIP3    H237683   0.409   5.114   5.313  2.1051 -0.7523 -0.5423
 5398TIP3   OH237684   1.681   6.194   0.775  0.2603  0.6804  0.4988
 5398TIP3    H137685   1.775   6.211   0.784  0.5076  0.8580 -1.8535
 5398TIP3    H237686   1.639   6.265   0.824  1.3687  1.9448 -0.3084
 5399TIP3   OH237687   4.713   0.195   5.026  0.1625  0.4488 -0.2802
 5399TIP3    H137688   4.638   0.159   4.979  0.9961  1.9318 -2.9551
 5399TIP3    H237689   4.687   0.284   5.049  1.1772  1.1907 -1.7463
 5400TIP3   OH237690   4.329   6.448   0.798  0.1569  0.0929  0.0517
 5400TIP3    H137691   4.352   6.531   0.839  1.7566  0.6594 -1.8531
 5400TIP3    H237692   4.397   6.387   0.827  0.4092  0.0983 -0.5212
 5401TIP3   OH237693   5.260   5.354   5.249  0.7739 -0.2455  0.4804
 5401TIP3    H137694   5.249   5.302   5.328 -0.6492  0.1084  0.5389
 5401TIP3    H237695   5.179   5.405   5.242  1.2051  0.3113 -0.7715
 5402TIP3   OH237696   3.855   4.150   5.825  0.2348 -0.1828 -0.2090
 5402TIP3    H137697   3.924   4.130   5.762 -0.8274  0.4142 -1.6227
 5402TIP3    H237698   3.821   4.235   5.798 -0.7150 -0.2340  0.7529
 5403TIP3   OH237699   3.583   1.787   5.281 -0.0829 -0.0387 -0.3012
 5403TIP3    H137700   3.643   1.832   5.222 -1.8006  1.8826 -0.7012
 5403TIP3    H237701   3.634   1.772   5.360  1.1122  0.9828 -0.8487
 5404TIP3   OH237702   5.869   0.771  15.986  0.7490 -0.0755  0.3545
 5404TIP3    H137703   5.946   0.809  16.027  0.4318  1.0668 -0.0772
 5404TIP3    H237704   5.806   0.842  15.982  0.3767 -0.4440 -1.0871
 5405TIP3   OH237705   2.903   1.218   3.270  0.0617  0.6806 -0.0916
 5405TIP3    H137706   2.944   1.235   3.355 -0.0113  1.2843 -0.1711
 5405TIP3    H237707   2.813   1.193   3.292  0.4636 -0.6732  0.0827
 5406TIP3   OH237708   0.041   5.752   3.959  0.1255 -0.4734 -0.3222
 5406TIP3    H137709   0.014   5.796   3.878 -2.6777 -1.7391 -0.1890
 5406TIP3    H237710  -0.038   5.710   3.991  1.9103 -2.8636  1.3025
 5407TIP3   OH237711   0.456   2.547  13.143  0.6057  0.0686  0.0382
 5407TIP3    H137712   0.506   2.544  13.224  1.0160 -1.7499 -0.2516
 5407TIP3    H237713   0.511   2.597  13.083  0.4130  1.2071  0.7781
 5408TIP3   OH237714   1.510   6.687  12.112  0.0818  0.7659  0.2863
 5408TIP3    H137715   1.518   6.609  12.166  0.2180  1.7292  1.7250
 5408TIP3    H237716   1.436   6.669  12.053 -0.9470  0.1823  1.7103
 5409TIP3   OH237717   3.867   5.152   2.561 -0.3296  0.1929  0.4467
 5409TIP3    H137718   3.912   5.069   2.545  0.0697  0.3361  0.8119
 5409TIP3    H237719   3.933   5.208   2.600  0.1111  1.5016 -1.9678
 5410TIP3   OH237720   6.747   2.731  16.302  0.2670 -0.0087  0.2260
 5410TIP3    H137721   6.711   2.765  16.220 -1.5661 -2.3420 -0.0514
 5410TIP3    H237722   6.841   2.747  16.295  0.0015  1.0854 -1.7014
 5411TIP3   OH237723   3.661   5.702  12.605 -0.0989  0.1466  0.4607
 5411TIP3    H137724   3.705   5.622  12.634 -0.1187 -1.2096 -2.7911
 5411TIP3    H237725   3.576   5.672  12.574  0.1793  1.2531 -1.5305
 5412TIP3   OH237726   2.623   4.945  10.862  0.2614  0.3629  0.0273
 5412TIP3    H137727   2.578   4.864  10.885  0.0560  0.4791  0.0385
 5412TIP3    H237728   2.593   4.965  10.773  3.0416 -1.4926 -1.4868
 5413TIP3   OH237729   1.409   1.337   5.211 -0.2052  0.3127 -0.0900
 5413TIP3    H137730   1.449   1.250   5.212  1.4670  1.0566 -0.2795
 5413TIP3    H237731   1.363   1.342   5.295  1.5990  0.0929  0.9554
 5414TIP3   OH237732   6.668   3.182   2.290 -1.0769 -0.5116  0.2408
 5414TIP3    H137733   6.606   3.194   2.362  0.5325 -1.7069  1.9295
 5414TIP3    H237734   6.650   3.093   2.258 -2.4239  0.3377 -1.5801
 5415TIP3   OH237735   6.736   4.070   4.341 -0.2858  0.4248 -0.0064
 5415TIP3    H137736   6.664   4.051   4.281  0.3268 -0.2584 -0.5406
 5415TIP3    H237737   6.694   4.084   4.425 -1.0050 -0.6217 -0.1757
 5416TIP3   OH237738   5.910   6.433   1.709  0.6731 -0.2999  0.4695
 5416TIP3    H137739   5.947   6.448   1.796 -1.1942  1.9824  0.9652
 5416TIP3    H237740   5.950   6.501   1.654 -0.9382  0.7262  0.4951
 5417TIP3   OH237741   4.909   1.833   4.357  0.2692  0.2722  0.0353
 5417TIP3    H137742   4.990   1.821   4.406  0.5910  0.9455 -0.3182
 5417TIP3    H237743   4.841   1.843   4.424  0.6632  0.8974  0.3511
 5418TIP3   OH237744   4.833   2.865  11.673 -0.2588  0.7403 -0.0433
 5418TIP3    H137745   4.921   2.890  11.701 -0.1820  0.6930 -0.2412
 5418TIP3    H237746   4.777   2.937  11.702 -0.1397  0.8183 -0.0076
 5419TIP3   OH237747   0.664   5.994   5.923  0.3594 -0.2966 -0.1469
 5419TIP3    H137748   0.726   6.010   5.994 -0.0234  0.0221  0.1261
 5419TIP3    H237749   0.664   5.899   5.911 -0.6981 -0.5274  1.3420
 5420TIP3   OH237750   1.589   1.376  13.950 -0.1935 -0.5368 -0.2344
 5420TIP3    H137751   1.674   1.377  13.907 -0.3997  1.9343 -0.7068
 5420TIP3    H237752   1.599   1.313  14.021  2.6876  1.0417  0.9198
 5421TIP3   OH237753   0.538   2.228  16.566  0.4680  0.2961  0.0685
 5421TIP3    H137754   0.613   2.212  16.510  1.4636  2.3512  0.7389
 5421TIP3    H237755   0.474   2.271  16.510 -0.5024 -1.8986 -0.6352
 5422TIP3   OH237756   5.378   0.632   0.462 -0.2326 -0.8164  0.7340
 5422TIP3    H137757   5.300   0.687   0.456  0.9042  0.7836 -0.3967
 5422TIP3    H237758   5.352   0.549   0.421 -1.6902 -0.7883  1.5478
 5423TIP3   OH237759   4.118   1.468   1.315 -0.2600 -0.2938  0.4305
 5423TIP3    H137760   4.170   1.438   1.389 -0.5106  1.0039  1.1684
 5423TIP3    H237761   4.027   1.463   1.345 -0.5760 -2.1824 -0.7140
 5424TIP3   OH237762   3.636   2.594   5.893 -0.8689 -0.3123  0.3199
 5424TIP3    H137763   3.655   2.538   5.968 -0.5430 -0.2000  0.3263
 5424TIP3    H237764   3.701   2.665   5.900  0.5469 -1.3784 -1.2017
 5425TIP3   OH237765   2.418   5.723   1.152 -0.0580 -0.3831  0.4291
 5425TIP3    H137766   2.397   5.669   1.228 -0.0292 -1.3361 -0.2298
 5425TIP3    H237767   2.462   5.664   1.092 -1.5912 -0.0955 -1.0531
 5426TIP3   OH237768   1.069   2.355   0.765  0.4500  0.4667  0.3192
 5426TIP3    H137769   1.069   2.267   0.726  1.7900  0.8539 -0.6216
 5426TIP3    H237770   0.977   2.371   0.788  0.3865 -1.8401  2.1024
 5427TIP3   OH237771   1.486   6.008   4.275 -0.3243  0.0603 -0.5119
 5427TIP3    H137772   1.406   5.960   4.255  0.8541 -1.6648 -1.3444
 5427TIP3    H237773   1.555   5.959   4.230  1.0501  2.2233 -0.9394
 5428TIP3   OH237774   6.082   1.963   4.562  0.5202  0.3188  0.2565
 5428TIP3    H137775   6.089   2.055   4.587 -1.5537  0.3835  0.7613
 5428TIP3    H237776   6.125   1.958   4.476  0.0623  1.9012 -0.0957
 5429TIP3   OH237777   5.195   6.189   2.150  0.0140  0.8207 -0.1964
 5429TIP3    H137778   5.144   6.270   2.140 -1.0690  0.0183 -1.5022
 5429TIP3    H237779   5.253   6.187   2.075 -0.9275 -0.2514 -0.9300
 5430TIP3   OH237780   1.189   0.174  16.640  0.1383  0.0226  0.1237
 5430TIP3    H137781   1.285   0.165  16.634  0.0164 -1.1123 -0.4057
 5430TIP3    H237782   1.164   0.217  16.558  0.1233 -0.4026 -0.0980
 5431TIP3   OH237783   2.320   6.563  16.147  0.0947 -0.2170 -0.1748
 5431TIP3    H137784   2.296   6.546  16.056  0.4908 -0.9864 -0.1478
 5431TIP3    H237785   2.316   6.658  16.156 -2.2599 -0.2568 -0.3279
 5432TIP3   OH237786   5.981   4.117  15.269  0.6396 -0.1723 -0.7002
 5432TIP3    H137787   6.029   4.198  15.251  0.3801 -0.3859 -2.5326
 5432TIP3    H237788   6.000   4.061  15.194 -0.4317 -1.2291 -0.2060
 5433TIP3   OH237789   5.242   4.599   3.042 -0.1080 -0.2971  0.0018
 5433TIP3    H137790   5.181   4.527   3.024 -0.4628  0.2282 -1.0264
 5433TIP3    H237791   5.289   4.573   3.120 -0.9303 -1.1964  0.2079
 5434TIP3   OH237792   4.073   0.292   5.510  0.0081 -0.2327  0.1017
 5434TIP3    H137793   4.005   0.226   5.500  0.0890 -0.2609 -0.2568
 5434TIP3    H237794   4.067   0.319   5.602  0.7594 -1.5848  0.5660
 5435TIP3   OH237795   3.012   4.621  15.400  0.8355 -0.2008 -0.1943
 5435TIP3    H137796   3.039   4.604  15.310  4.0961  0.9670  0.4514
 5435TIP3    H237797   3.086   4.593  15.453 -1.0836 -1.0475  2.1998
 5436TIP3   OH237798   4.350   6.112  12.152  0.1224 -0.0811  0.2544
 5436TIP3    H137799   4.440   6.088  12.129 -0.1742  1.1845 -2.6466
 5436TIP3    H237800   4.354   6.206  12.169 -0.3371 -0.3761  2.2263
 5437TIP3   OH237801   6.343   1.969  14.743  0.6902  0.0650 -0.3550
 5437TIP3    H137802   6.259   1.977  14.787  0.9802 -0.3536  0.2924
 5437TIP3    H237803   6.384   1.891  14.782  1.8727  0.9217  0.1921
 5438TIP3   OH237804   6.531   2.993  14.549  0.8673  0.1410 -0.3235
 5438TIP3    H137805   6.589   3.052  14.502 -0.4633  0.7606 -1.2333
 5438TIP3    H237806   6.540   3.019  14.641 -1.6676  3.6862 -0.8956
 5439TIP3   OH237807   5.972   4.308   1.324 -0.2972  0.0624 -1.0083
 5439TIP3    H137808   5.935   4.272   1.405 -2.0586 -1.7714 -2.5229
 5439TIP3    H237809   6.066   4.288   1.331 -0.3107  0.4062  0.7811
 5440TIP3   OH237810   2.447   6.119  16.701 -0.1539 -0.3603 -0.1354
 5440TIP3    H137811   2.486   6.036  16.672  1.8034  0.2671  0.5434
 5440TIP3    H237812   2.520   6.167  16.740 -1.1134  1.9465 -1.0400
 5441TIP3   OH237813   1.594   5.507   6.626 -0.2657 -0.1062  0.1815
 5441TIP3    H137814   1.500   5.521   6.638 -0.2595 -0.5058  0.7454
 5441TIP3    H237815   1.624   5.476   6.712  0.0517 -1.6947 -0.4607
 5442TIP3   OH237816   5.644   5.878  16.788  0.5444  0.2480  0.5907
 5442TIP3    H137817   5.708   5.819  16.748  0.2126  0.5087 -0.3628
 5442TIP3    H237818   5.649   5.859  16.882  0.3889 -1.3396  0.3023
 5443TIP3   OH237819   6.397   2.664   4.538 -0.0798 -0.8282  0.4290
 5443TIP3    H137820   6.443   2.661   4.622 -0.1721 -2.6864  0.4608
 5443TIP3    H237821   6.436   2.737   4.492  0.3460 -0.0989  1.8817
 5444TIP3   OH237822   3.668   4.784   6.546 -0.6601  0.5728  0.3636
 5444TIP3    H137823   3.617   4.714   6.587  0.3775  0.2000  1.0772
 5444TIP3    H237824   3.661   4.857   6.607 -0.6267  0.6340  0.2939
 5445TIP3   OH237825   4.839   6.713   3.117  0.4608  0.0861  0.3892
 5445TIP3    H137826   4.821   6.678   3.029  1.4434 -0.8085  0.5245
 5445TIP3    H237827   4.926   6.752   3.110  0.3440  0.4256  0.8443
 5446TIP3   OH237828   0.419   4.588  14.960 -0.2811 -0.0180 -0.4563
 5446TIP3    H137829   0.443   4.541  14.880 -0.2652  1.9907 -1.6957
 5446TIP3    H237830   0.323   4.587  14.960 -0.2835  0.1736 -0.6228
 5447TIP3   OH237831   1.622   1.935   4.286  0.1757  0.5715  0.1070
 5447TIP3    H137832   1.679   1.870   4.326 -0.1246  0.0944 -0.2279
 5447TIP3    H237833   1.570   1.970   4.359  0.8847  1.0125  0.4116
 5448TIP3   OH237834   5.397   1.531   2.357  0.0892 -0.0069  0.1485
 5448TIP3    H137835   5.315   1.569   2.387 -0.0232  2.2364 -2.5322
 5448TIP3    H237836   5.463   1.597   2.380  0.4275  0.2762 -1.4897
 5449TIP3   OH237837   5.072   3.169  11.084  0.2926 -0.0574  0.2232
 5449TIP3    H137838   5.141   3.230  11.060 -0.6444  1.7729  1.9245
 5449TIP3    H237839   5.015   3.165  11.006  0.2242  1.4855  0.1682
 5450TIP3   OH237840   4.915   2.054   0.830  0.2074 -0.4750 -0.1568
 5450TIP3    H137841   4.971   2.067   0.907  3.8046  2.9219 -2.9483
 5450TIP3    H237842   4.960   1.988   0.778 -0.3477 -0.3082 -0.8656
 5451TIP3   OH237843   4.847   6.331  11.695  0.2326 -0.2946  0.1339
 5451TIP3    H137844   4.839   6.307  11.603  0.8531  1.6919 -0.4804
 5451TIP3    H237845   4.938   6.359  11.705 -0.5782  2.5531  0.5185
 5452TIP3   OH237846   6.616   5.917  11.466  0.0389 -0.2016 -0.5667
 5452TIP3    H137847   6.600   5.876  11.381  1.7434 -0.1822 -0.9212
 5452TIP3    H237848   6.529   5.924  11.506 -0.5239 -2.4351 -1.2791
 5453TIP3   OH237849   4.958   5.017  17.207  0.1074 -0.2942 -0.0315
 5453TIP3    H137850   4.904   5.048  17.280 -1.0225 -1.6945 -0.2295
 5453TIP3    H237851   5.013   4.948  17.246 -1.4253 -1.9760 -0.7133
 5454TIP3   OH237852   0.955   1.846   0.094 -0.5506  0.0474  0.1728
 5454TIP3    H137853   0.969   1.763   0.049 -2.6805  0.6248 -1.7403
 5454TIP3    H237854   0.888   1.826   0.160  1.0117 -0.3175  1.7212
 5455TIP3   OH237855   6.412   0.433  16.146 -0.0588  0.1991  0.3704
 5455TIP3    H137856   6.368   0.437  16.231  1.9797  0.7274  1.4769
 5455TIP3    H237857   6.480   0.366  16.158  0.5103  0.5629 -0.7102
 5456TIP3   OH237858   0.368   1.580  12.717  0.4535  0.1309 -0.5259
 5456TIP3    H137859   0.276   1.597  12.695 -0.3166 -0.4361  1.8959
 5456TIP3    H237860   0.371   1.485  12.730  0.4402  0.4799  2.8380
 5457TIP3   OH237861   5.304   4.373   3.712  0.0564  0.3154 -0.4155
 5457TIP3    H137862   5.253   4.295   3.734  1.0802  0.0066  1.0210
 5457TIP3    H237863   5.340   4.354   3.626  0.6700 -1.0429  0.1018
 5458TIP3   OH237864   4.491   3.100   3.748 -0.3316 -0.2368 -0.0444
 5458TIP3    H137865   4.571   3.048   3.760  1.4250  2.1605 -0.7219
 5458TIP3    H237866   4.424   3.034   3.728  2.1873 -2.2349 -3.0913
 5459TIP3   OH237867   4.005   3.026   0.709  0.6142  0.1136 -0.1603
 5459TIP3    H137868   4.022   3.062   0.622 -1.5768 -1.5973 -1.3778
 5459TIP3    H237869   4.054   2.943   0.711 -2.0209 -1.5877 -1.1999
 5460TIP3   OH237870   2.403   3.203   5.705  0.2031 -0.0716  0.2963
 5460TIP3    H137871   2.485   3.217   5.659  0.0272 -0.6841 -0.2211
 5460TIP3    H237872   2.372   3.119   5.672 -0.9175  0.4212  0.0746
 5461TIP3   OH237873   1.142   5.542   1.561 -0.4850 -0.5992  0.1978
 5461TIP3    H137874   1.229   5.502   1.557 -0.5579 -0.6893 -1.0221
 5461TIP3    H237875   1.083   5.469   1.580 -0.5554 -1.0376 -1.4837
 5462TIP3   OH237876   5.888   4.445  12.961  0.5351  0.3108  0.5580
 5462TIP3    H137877   5.857   4.355  12.968  0.7989  0.3246  2.5517
 5462TIP3    H237878   5.810   4.496  12.941  0.3533 -0.3192 -0.4132
 5463TIP3   OH237879   2.974   4.217   1.724 -0.4144 -0.4323 -0.4130
 5463TIP3    H137880   2.951   4.310   1.719 -0.1912 -0.4300 -2.5310
 5463TIP3    H237881   2.953   4.191   1.813 -1.0285  1.5108  0.0497
 5464TIP3   OH237882   3.646   4.138  12.307 -0.1384 -0.1715  0.1005
 5464TIP3    H137883   3.730   4.137  12.353 -0.2792  0.6867  0.3858
 5464TIP3    H237884   3.601   4.215  12.341 -0.6962 -0.1451 -0.6781
 5465TIP3   OH237885   1.420   4.482   0.008  0.2455 -0.5963  0.2326
 5465TIP3    H137886   1.346   4.433   0.043  1.7530 -1.5253  2.3262
 5465TIP3    H237887   1.497   4.430   0.033  1.6081 -1.2393 -4.2944
 5466TIP3   OH237888   3.268   6.331   1.357  0.3840 -0.2172  0.1188
 5466TIP3    H137889   3.190   6.278   1.342  0.0172  0.2456  0.3261
 5466TIP3    H237890   3.241   6.420   1.335  0.3415  0.2134  1.7564
 5467TIP3   OH237891   1.801   1.976  11.716  0.6144 -0.8586  0.4430
 5467TIP3    H137892   1.754   1.934  11.644 -0.4969  1.0965 -0.0798
 5467TIP3    H237893   1.831   2.060  11.679 -1.4965  1.0211  2.6174
 5468TIP3   OH237894   0.079   0.849   5.702 -0.4451  0.2343  0.6778
 5468TIP3    H137895   0.132   0.780   5.741 -1.0969 -0.9049 -0.4027
 5468TIP3    H237896   0.141   0.904   5.655 -0.2580 -2.0654 -2.0658
 5469TIP3   OH237897   1.264   3.640   3.165 -0.2208  0.4025 -0.8521
 5469TIP3    H137898   1.291   3.726   3.134 -0.0118  0.9455  0.7409
 5469TIP3    H237899   1.235   3.593   3.086  1.5273  1.2251 -2.0250
 5470TIP3   OH237900   4.274   4.871   6.431  0.2206 -0.3722 -0.3664
 5470TIP3    H137901   4.361   4.884   6.471  0.5072 -0.2410 -1.0092
 5470TIP3    H237902   4.258   4.953   6.385 -0.1099 -0.5173 -0.5064
 5471TIP3   OH237903   1.337   0.019   1.591 -0.1691 -0.4395 -0.9527
 5471TIP3    H137904   1.287   0.035   1.671  1.0891 -0.6465 -0.1017
 5471TIP3    H237905   1.310   0.090   1.531  1.2801  1.7217  0.8057
 5472TIP3   OH237906   1.461   1.524  16.465 -0.4276  0.6003  0.3149
 5472TIP3    H137907   1.522   1.581  16.417  1.9640 -0.8193  1.4574
 5472TIP3    H237908   1.518   1.464  16.512 -2.8079 -1.6255  0.5430
 5473TIP3   OH237909   6.214   5.653  11.955 -0.1463 -0.3948  0.6886
 5473TIP3    H137910   6.309   5.653  11.968  0.0795 -3.4876 -0.2099
 5473TIP3    H237911   6.188   5.562  11.966 -2.6477 -0.0680 -1.4004
 5474TIP3   OH237912   3.870   5.487  15.242 -1.0476  0.3511 -0.2492
 5474TIP3    H137913   3.883   5.536  15.161 -0.0287 -1.5148 -1.2818
 5474TIP3    H237914   3.871   5.395  15.215  0.1397 -0.3728  1.9785
 5475TIP3   OH237915   2.517   5.228  11.509 -0.5859  0.3135 -0.1374
 5475TIP3    H137916   2.478   5.310  11.537 -0.2609  0.1002  1.0100
 5475TIP3    H237917   2.449   5.162  11.527 -0.4546  0.2037 -0.0356
 5476TIP3   OH237918   4.816   3.757   3.836 -0.7401  0.7757 -0.4575
 5476TIP3    H137919   4.866   3.745   3.754  1.1468 -0.1496  0.7445
 5476TIP3    H237920   4.878   3.799   3.895 -1.6263  0.2011  0.9123
 5477TIP3   OH237921   2.716   4.303  16.325 -0.1326  0.3327  0.5608
 5477TIP3    H137922   2.780   4.356  16.279  1.2844 -1.6271  0.1579
 5477TIP3    H237923   2.765   4.228  16.357 -1.9536 -0.5201  1.5019
 5478TIP3   OH237924   5.910   0.337  11.676  0.2519 -0.1446  0.5423
 5478TIP3    H137925   5.957   0.254  11.669 -1.1176 -0.8128 -1.3324
 5478TIP3    H237926   5.962   0.398  11.623  0.2117 -0.2891  0.3391
 5479TIP3   OH237927   0.053   6.123  17.194 -0.3873  0.2540  0.0545
 5479TIP3    H137928   0.015   6.071  17.264  2.6047 -0.6306  1.1873
 5479TIP3    H237929   0.039   6.214  17.219 -0.9185 -0.0484  0.8608
 5480TIP3   OH237930   1.603   1.499  10.587  0.0641 -0.9558 -0.2191
 5480TIP3    H137931   1.643   1.586  10.591 -1.5989 -0.0104 -2.2049
 5480TIP3    H237932   1.554   1.491  10.669 -0.6723  0.5006 -0.4815
 5481TIP3   OH237933   6.058   5.183   5.361  0.3376 -0.2902 -0.4830
 5481TIP3    H137934   6.007   5.253   5.320  2.8713  1.6134 -0.5620
 5481TIP3    H237935   6.030   5.184   5.453 -1.7974 -1.2744 -1.0603
 5482TIP3   OH237936   5.341   2.137   3.876 -0.0923 -0.5333 -0.0313
 5482TIP3    H137937   5.375   2.207   3.820 -1.7037  0.2689 -0.0694
 5482TIP3    H237938   5.389   2.146   3.958  1.5133 -1.0220 -0.8743
 5483TIP3   OH237939   6.702   5.161   5.664  0.0372  0.2087 -0.3351
 5483TIP3    H137940   6.627   5.171   5.723 -0.8338 -0.4249 -1.2973
 5483TIP3    H237941   6.738   5.075   5.685  0.7949  0.6943  0.4312
 5484TIP3   OH237942   3.909   3.837  14.635 -0.3983  0.1561  0.3329
 5484TIP3    H137943   3.848   3.765  14.654 -1.1739  0.3460 -1.2365
 5484TIP3    H237944   3.963   3.804  14.564 -0.6793  1.0649 -0.3139
 5485TIP3   OH237945   2.606   4.733  15.647  0.6942 -0.8728 -0.2521
 5485TIP3    H137946   2.698   4.715  15.668  0.4683 -1.9387 -0.1280
 5485TIP3    H237947   2.568   4.760  15.731  0.8613 -0.5806 -0.2710
 5486TIP3   OH237948   5.700   5.206  14.321 -0.1573 -0.4335 -0.1217
 5486TIP3    H137949   5.605   5.210  14.327 -0.3300 -3.8962  1.7213
 5486TIP3    H237950   5.718   5.163  14.238 -0.2087  0.0447 -0.3801
 5487TIP3   OH237951   2.858   2.502   1.434  0.6175 -0.1549  0.2977
 5487TIP3    H137952   2.891   2.504   1.344  0.8893  0.2232  0.4030
 5487TIP3    H237953   2.816   2.416   1.442  2.1288 -0.9060  0.3613
 5488TIP3   OH237954   2.221   2.455   1.835  0.3340 -0.4017 -0.0783
 5488TIP3    H137955   2.128   2.430   1.843  0.0475  0.5870 -0.2166
 5488TIP3    H237956   2.238   2.451   1.741  1.1416 -3.0022  0.1187
 5489TIP3   OH237957   4.847   0.174   3.091  0.0651  0.1094  0.5911
 5489TIP3    H137958   4.809   0.104   3.145 -1.2672  1.0519  0.9068
 5489TIP3    H237959   4.772   0.228   3.065  0.8882  0.5890 -0.8848
 5490TIP3   OH237960   5.522   4.085   2.777  0.4342 -0.5002 -0.0245
 5490TIP3    H137961   5.531   4.120   2.688  1.0264  0.0185  0.2373
 5490TIP3    H237962   5.428   4.089   2.794  0.3176 -0.5557 -0.6014
 5491TIP3   OH237963   6.512   3.344   1.859  0.2019 -0.1052  0.1281
 5491TIP3    H137964   6.453   3.269   1.869 -0.5195  0.5066  0.5890
 5491TIP3    H237965   6.587   3.323   1.915 -0.4994  0.0097  1.1227
 5492TIP3   OH237966   0.759   0.566   5.296  0.1584 -0.3196 -0.1485
 5492TIP3    H137967   0.718   0.556   5.210 -1.9847 -0.9651  0.8550
 5492TIP3    H237968   0.817   0.641   5.287 -1.1643  0.5666 -1.7729
 5493TIP3   OH237969   0.371   1.027  14.229 -0.4812 -0.2929  0.3001
 5493TIP3    H137970   0.412   1.111  14.209 -0.2940  0.1089  2.1148
 5493TIP3    H237971   0.385   0.973  14.151  0.8471  0.8138 -0.2707
 5494TIP3   OH237972   0.032   6.808  14.356  0.0418 -0.6316 -0.5375
 5494TIP3    H137973   0.093   6.857  14.410 -0.6567 -1.6387  1.2472
 5494TIP3    H237974  -0.020   6.875  14.312 -1.2731  0.3663  2.2730
 5495TIP3   OH237975   2.563   2.536  12.987  0.4068 -0.2349  0.0100
 5495TIP3    H137976   2.490   2.488  12.949  1.3459  0.1976 -2.5167
 5495TIP3    H237977   2.629   2.469  13.006  0.3427 -0.3384 -0.1350
 5496TIP3   OH237978   0.815   5.599  10.794 -0.7231  0.2040  0.3696
 5496TIP3    H137979   0.899   5.596  10.838  0.3944  0.6550 -1.6165
 5496TIP3    H237980   0.771   5.675  10.833 -0.1394  0.1023  1.2647
 5497TIP3   OH237981   5.151   3.195  15.286  0.0550 -0.1650  0.5906
 5497TIP3    H137982   5.060   3.183  15.315 -0.8094 -0.4493 -1.9466
 5497TIP3    H237983   5.199   3.123  15.326 -0.8034  0.0137  2.0111
 5498TIP3   OH237984   0.900   2.167  16.024  0.6198 -0.2372  0.0933
 5498TIP3    H137985   0.966   2.098  16.034  0.8049 -0.0671  0.0408
 5498TIP3    H237986   0.816   2.120  16.021  0.6349 -0.3889  1.3337
 5499TIP3   OH237987   5.226   4.062   2.004 -0.7039  0.0658  1.1171
 5499TIP3    H137988   5.292   4.085   2.070 -0.3353  0.3425  0.6624
 5499TIP3    H237989   5.237   4.128   1.936 -2.1812  0.7451  1.5123
 5500TIP3   OH237990   2.547   3.480  15.483 -0.2514  0.1810 -0.5484
 5500TIP3    H137991   2.476   3.542  15.467 -1.0873 -1.2231 -2.7247
 5500TIP3    H237992   2.506   3.410  15.534 -0.4721 -0.5788 -1.7156
 5501TIP3   OH237993   0.299   0.836   4.085  0.4924 -0.5267 -0.4198
 5501TIP3    H137994   0.276   0.775   4.015  0.6333 -1.0361 -0.0365
 5501TIP3    H237995   0.221   0.890   4.097 -0.2152 -1.6383  0.2603
 5502TIP3   OH237996   1.372   3.473  13.117  0.7023  0.3846 -0.3803
 5502TIP3    H137997   1.367   3.454  13.211 -0.2726  0.4088 -0.4246
 5502TIP3    H237998   1.441   3.539  13.110 -0.8494  2.1816  0.5973
 5503TIP3   OH237999   5.223   2.047  15.547 -0.0847 -0.0747  0.0940
 5503TIP3    H138000   5.135   2.012  15.562  0.7573 -1.3871  2.6178
 5503TIP3    H238001   5.209   2.131  15.504 -2.5407 -0.3385  0.2594
 5504TIP3   OH238002   0.733   5.582   1.632  0.1441  0.4804 -0.8243
 5504TIP3    H138003   0.781   5.618   1.706  0.6951 -1.4900 -0.1626
 5504TIP3    H238004   0.680   5.655   1.600  0.5249  1.6032  0.9646
 5505TIP3   OH238005   1.727   6.764   4.703 -0.8807  0.2641  0.5108
 5505TIP3    H138006   1.734   6.695   4.637 -1.0272  0.4731  0.2768
 5505TIP3    H238007   1.688   6.838   4.657 -1.0244  0.3981  0.8423
 5506TIP3   OH238008   5.320   1.945  10.841 -0.1713 -0.1318  0.1062
 5506TIP3    H138009   5.317   1.989  10.756  1.1492  1.2553  0.7435
 5506TIP3    H238010   5.385   1.875  10.829  1.0352  0.9234  0.3354
 5507TIP3   OH238011   2.925   6.683  13.464 -0.3432 -0.2570 -0.5440
 5507TIP3    H138012   2.989   6.745  13.430 -0.5084 -0.1666 -0.6957
 5507TIP3    H238013   2.889   6.640  13.386 -0.0783 -0.6982 -0.4299
 5508TIP3   OH238014   4.910   3.432   4.527  0.0369  0.4002  0.3128
 5508TIP3    H138015   4.897   3.490   4.602  0.1750  0.5231  0.2437
 5508TIP3    H238016   4.944   3.490   4.458 -2.2274  0.7705 -0.5891
 5509TIP3   OH238017   1.136   5.371  16.131 -0.3711  0.0454 -0.0007
 5509TIP3    H138018   1.118   5.415  16.214  1.5106  1.4025 -0.2431
 5509TIP3    H238019   1.225   5.399  16.108  0.2137 -2.4834 -1.1103
 5510TIP3   OH238020   1.626   4.482  16.627  0.4509 -0.0005 -0.2602
 5510TIP3    H138021   1.570   4.433  16.567  0.1896  0.6124 -0.5234
 5510TIP3    H238022   1.658   4.416  16.689 -0.9614 -0.2915  0.2016
 5511TIP3   OH238023   2.627   4.667   4.201  0.1302 -0.1665 -0.0958
 5511TIP3    H138024   2.720   4.647   4.210  0.1536 -0.1371 -0.2858
 5511TIP3    H238025   2.617   4.753   4.241  0.1028 -0.3692  0.3445
 5512TIP3   OH238026   0.395   6.437   3.382 -0.0528  0.3937  0.2881
 5512TIP3    H138027   0.314   6.488   3.392  0.6919  1.6341  0.2473
 5512TIP3    H238028   0.415   6.443   3.289 -0.4815 -0.8373  0.1060
 5513TIP3   OH238029   1.413   0.219  13.859 -0.8317  0.1223  0.0138
 5513TIP3    H138030   1.404   0.292  13.920  0.5730 -0.5791  1.1244
 5513TIP3    H238031   1.368   0.248  13.780 -1.0554  1.8256  0.7204
 5514TIP3   OH238032   3.769   2.541   0.280  0.1549  0.0245 -0.2132
 5514TIP3    H138033   3.848   2.540   0.335  0.7470  0.3518 -1.0374
 5514TIP3    H238034   3.715   2.609   0.319  1.3583  1.5423 -1.0674
 5515TIP3   OH238035   5.762   5.422   3.780 -0.1342 -0.5566  0.1926
 5515TIP3    H138036   5.772   5.389   3.869 -0.8049  0.6700  0.7488
 5515TIP3    H238037   5.722   5.350   3.731  0.3276 -1.2690  0.8509
 5516TIP3   OH238038   3.729   4.154   3.869  0.1452 -0.2935  0.1001
 5516TIP3    H138039   3.759   4.245   3.871  0.9500 -0.5485 -0.0864
 5516TIP3    H238040   3.718   4.135   3.775 -1.9502  0.2067  0.1767
 5517TIP3   OH238041   6.528   6.804  16.119  0.2171  0.8316  0.9066
 5517TIP3    H138042   6.458   6.802  16.184  0.9138 -1.3689  1.6605
 5517TIP3    H238043   6.579   6.725  16.135 -0.6297 -0.9029 -3.4533
 5518TIP3   OH238044   6.457   4.655   2.767  0.1560  0.1142 -0.2523
 5518TIP3    H138045   6.454   4.618   2.855  1.5591 -0.9810 -0.6245
 5518TIP3    H238046   6.376   4.705   2.759  1.2738  2.6498  2.6612
 5519TIP3   OH238047   6.067   3.893   1.950 -0.4332  0.2141  0.5040
 5519TIP3    H138048   6.001   3.826   1.933  0.4494 -0.4467 -0.4276
 5519TIP3    H238049   6.016   3.974   1.960 -1.4951 -0.5275  1.4502
 5520TIP3   OH238050   3.470   3.361   2.330  0.4770  0.3838 -0.0068
 5520TIP3    H138051   3.544   3.419   2.347  0.5184  0.2121  0.4298
 5520TIP3    H238052   3.491   3.319   2.247  0.5117  0.8867 -0.2557
 5521TIP3   OH238053   4.372   1.588  12.477 -0.0731  0.7425  0.3908
 5521TIP3    H138054   4.307   1.657  12.464  2.1295  2.9669  0.3320
 5521TIP3    H238055   4.368   1.535  12.397 -0.3336  2.1577 -0.5586
 5522TIP3   OH238056   3.629   4.876  12.617  0.1749  0.6231  1.0071
 5522TIP3    H138057   3.564   4.854  12.683 -0.8451  0.6252  0.0217
 5522TIP3    H238058   3.579   4.906  12.541  1.2274 -0.6324 -0.2658
 5523TIP3   OH238059   5.856   2.856  14.313  0.1594 -0.1022  0.0804
 5523TIP3    H138060   5.818   2.927  14.260 -2.8609  0.1701  2.3496
 5523TIP3    H238061   5.951   2.864  14.299 -0.2231  2.7642 -1.7105
 5524TIP3   OH238062   5.166   3.105   3.600 -0.6287  0.0413  0.2006
 5524TIP3    H138063   5.223   3.180   3.582  0.3309 -0.6051  0.4522
 5524TIP3    H238064   5.090   3.143   3.644 -0.2231  0.8831  0.1997
 5525TIP3   OH238065   5.829   5.891  16.372  0.1510 -0.0111 -0.1677
 5525TIP3    H138066   5.869   5.806  16.389 -0.5152 -0.1778  0.6311
 5525TIP3    H238067   5.894   5.955  16.401 -0.7635 -0.2751  2.7857
 5526TIP3   OH238068   3.822   0.562   3.212 -0.0762 -0.1685 -0.1730
 5526TIP3    H138069   3.880   0.590   3.141  1.7357 -0.5215  1.1013
 5526TIP3    H238070   3.795   0.473   3.187  1.8008 -0.9075  0.2571
 5527TIP3   OH238071   4.626   2.567  13.468  0.4806  0.6439 -0.0856
 5527TIP3    H138072   4.598   2.527  13.550  1.1639  1.1071  0.3835
 5527TIP3    H238073   4.648   2.494  13.410 -1.6588  0.2469 -0.4822
 5528TIP3   OH238074   2.598   4.522   6.146  0.3509  0.3122  0.0759
 5528TIP3    H138075   2.548   4.458   6.197  2.2875 -0.7895  0.6784
 5528TIP3    H238076   2.536   4.594   6.132 -1.3558 -0.9256  0.8650
 5529TIP3   OH238077   5.553   6.338  15.582  0.1774  0.0053 -0.4827
 5529TIP3    H138078   5.639   6.312  15.549  0.1141 -0.1028 -0.5611
 5529TIP3    H238079   5.569   6.421  15.627 -0.1640  1.5316 -2.9740
 5530TIP3   OH238080   2.325   1.171   0.820  0.8043 -0.8568  0.3296
 5530TIP3    H138081   2.336   1.206   0.732 -0.3872  1.5409  1.0477
 5530TIP3    H238082   2.391   1.216   0.872 -0.2916 -0.1599  1.1558
 5531TIP3   OH238083   5.241   1.402  15.263  0.2683 -0.1307  0.1732
 5531TIP3    H138084   5.181   1.377  15.193  0.1911  0.2343  0.1087
 5531TIP3    H238085   5.320   1.431  15.217 -0.2130  1.2597  0.1899
 5532TIP3   OH238086   4.620   5.906   5.836 -0.5145 -0.1741 -0.2351
 5532TIP3    H138087   4.584   5.940   5.918 -1.2143  3.6796 -1.9158
 5532TIP3    H238088   4.712   5.890   5.855 -0.8454 -0.1757  1.5105
 5533TIP3   OH238089   4.665   0.091  15.620 -0.0817  0.3482  0.5008
 5533TIP3    H138090   4.657   0.167  15.678  4.0954  1.8857 -0.5794
 5533TIP3    H238091   4.751   0.053  15.642  0.3323 -0.7954 -2.6365
 5534TIP3   OH238092   2.964   2.773  12.616  0.0840 -0.0653  0.0393
 5534TIP3    H138093   2.877   2.810  12.603 -0.3095 -1.1581 -0.5586
 5534TIP3    H238094   3.000   2.821  12.691 -1.0702  0.3156  0.3632
 5535TIP3   OH238095   5.744   1.982  13.070 -0.3108 -0.5796  0.0544
 5535TIP3    H138096   5.702   2.067  13.076  1.8737  0.5648  0.2118
 5535TIP3    H238097   5.761   1.970  12.977 -1.7766 -1.4859 -0.1219
 5536TIP3   OH238098   5.281   1.797  14.246 -0.6616  0.3368 -0.3335
 5536TIP3    H138099   5.292   1.707  14.215 -0.5272  0.2282  0.0212
 5536TIP3    H238100   5.189   1.803  14.272 -0.0649 -0.5517  2.2527
 5537TIP3   OH238101   2.373   4.958  11.982  0.4695 -0.4826 -0.0728
 5537TIP3    H138102   2.298   5.017  11.986  0.9685  0.1637 -0.0405
 5537TIP3    H238103   2.337   4.871  11.999 -0.1194 -0.0525  0.9640
 5538TIP3   OH238104   5.134   2.721  14.355 -0.6027 -0.3242 -0.2189
 5538TIP3    H138105   5.126   2.812  14.326 -0.7060  0.0360  0.8806
 5538TIP3    H238106   5.135   2.670  14.274 -0.5742  0.6490 -0.8529
 5539TIP3   OH238107   5.477   2.305   0.551  0.3230 -0.2025 -0.4776
 5539TIP3    H138108   5.438   2.263   0.627  1.8701  0.0478  0.5049
 5539TIP3    H238109   5.532   2.374   0.587  1.2388 -0.1905 -1.7969
 5540TIP3   OH238110   0.231   2.735  15.073  0.1358  0.2231 -0.1365
 5540TIP3    H138111   0.147   2.703  15.041  0.6128 -0.8192 -0.3731
 5540TIP3    H238112   0.266   2.664  15.127  1.5392  0.0078 -1.2563
 5541TIP3   OH238113   4.545   5.095   0.696 -0.3842 -0.1205 -0.0162
 5541TIP3    H138114   4.501   5.022   0.652  0.4082  0.0990 -1.1948
 5541TIP3    H238115   4.510   5.174   0.654 -0.2415  0.1312  0.3292
 5542TIP3   OH238116   3.943   2.332   1.536 -0.0971  0.2603 -0.0758
 5542TIP3    H138117   3.989   2.254   1.568  1.8378  1.6484  0.7645
 5542TIP3    H238118   3.880   2.353   1.605  1.0544  0.7736  0.8572
 5543TIP3   OH238119   5.010   1.632   6.023  0.4002 -0.2555 -0.0194
 5543TIP3    H138120   4.990   1.554   6.076 -2.7892  1.1213  1.0352
 5543TIP3    H238121   5.042   1.696   6.086  0.8814 -0.0009 -0.5184
 5544TIP3   OH238122   1.180   0.752  15.989 -0.2248  0.0204 -0.0619
 5544TIP3    H138123   1.229   0.819  16.037  1.0488 -0.7646 -0.2351
 5544TIP3    H238124   1.095   0.748  16.034  0.2750  0.5988  0.9734
 5545TIP3   OH238125   3.129   2.655  12.130 -0.2998  0.4359  0.5149
 5545TIP3    H138126   3.193   2.720  12.102 -1.8570  1.8851  0.0981
 5545TIP3    H238127   3.117   2.672  12.224 -0.2767  0.3592  0.5312
 5546TIP3   OH238128   3.987   1.842   0.402 -0.1891  0.0421  0.3289
 5546TIP3    H138129   4.027   1.776   0.459 -0.0348 -2.1200 -2.0845
 5546TIP3    H238130   3.900   1.808   0.383 -0.8370  1.5280  0.4863
 5547TIP3   OH238131   0.721   1.979   4.093  0.0862  0.4939 -0.3351
 5547TIP3    H138132   0.636   2.016   4.068 -2.0798 -1.7856  2.7960
 5547TIP3    H238133   0.734   1.906   4.032 -0.1714  0.8512 -0.8289
 5548TIP3   OH238134   4.522   4.122  16.610  0.4458 -0.2910 -0.7801
 5548TIP3    H138135   4.542   4.215  16.613 -1.6623  0.2043  1.1716
 5548TIP3    H238136   4.604   4.080  16.584  2.2827  1.8875  1.0526
 5549TIP3   OH238137   0.490   3.076  11.692  0.5859 -0.0935  0.1186
 5549TIP3    H138138   0.450   3.011  11.749 -0.2544  2.1787  2.3077
 5549TIP3    H238139   0.422   3.143  11.680  1.2976  0.3082 -2.3078
 5550TIP3   OH238140   2.083   6.223   0.448 -0.1396  0.0025 -0.2100
 5550TIP3    H138141   2.030   6.228   0.368  0.2792  0.3134 -0.4745
 5550TIP3    H238142   2.025   6.183   0.513 -0.6328  0.1571 -0.5477
 5551TIP3   OH238143   3.038   5.312   2.058  0.2873 -0.9878  0.8044
 5551TIP3    H138144   2.962   5.338   2.111 -0.2489 -0.9783  0.0416
 5551TIP3    H238145   3.110   5.309   2.121 -0.3576 -1.0890  1.5680
 5552TIP3   OH238146   0.205   6.654  15.609  0.5029 -0.2197  0.2078
 5552TIP3    H138147   0.250   6.723  15.659  1.8877  0.6517 -2.0851
 5552TIP3    H238148   0.112   6.672  15.623  0.8230  2.1613 -0.3073
 5553TIP3   OH238149   2.335   1.405  15.136  0.1744 -0.1895 -0.1230
 5553TIP3    H138150   2.405   1.411  15.201  0.2340  1.0591 -0.2924
 5553TIP3    H238151   2.305   1.314  15.143  0.5415 -0.2374  1.2688
 5554TIP3   OH238152   5.959   4.407   5.368 -0.0840 -0.0582  0.4844
 5554TIP3    H138153   5.924   4.320   5.384  3.3389 -1.4414  1.4392
 5554TIP3    H238154   6.010   4.398   5.287  0.4287  0.9956  0.6720
 5555TIP3   OH238155   3.023   3.523  14.284 -0.0850  0.2837  0.5193
 5555TIP3    H138156   2.985   3.516  14.196  1.2803 -0.3880 -0.0442
 5555TIP3    H238157   3.099   3.465  14.282  1.8309  2.6402  1.1342
 5556TIP3   OH238158   5.673   2.603  13.569  0.6910 -0.1198  0.3486
 5556TIP3    H138159   5.657   2.515  13.604  1.0455  0.5923  2.4488
 5556TIP3    H238160   5.604   2.657  13.609  1.6994  0.9147  0.7630
 5557TIP3   OH238161   4.735   0.336   3.631  0.0485 -0.5659 -0.0823
 5557TIP3    H138162   4.769   0.247   3.641  0.0623 -0.5992 -0.4090
 5557TIP3    H238163   4.679   0.332   3.554  0.2074 -0.2461 -0.2164
 5558TIP3   OH238164   0.689   1.964  15.955  0.1448 -0.4379 -0.3790
 5558TIP3    H138165   0.619   1.903  15.932 -0.3933  0.2066 -0.5038
 5558TIP3    H238166   0.718   1.935  16.042  0.7391 -1.5950 -0.9435
 5559TIP3   OH238167   5.031   1.626   3.063 -0.0729  0.3869 -0.1972
 5559TIP3    H138168   5.060   1.695   3.122  2.0807  0.0136 -0.7249
 5559TIP3    H238169   5.069   1.650   2.978 -3.5616  1.2272 -1.6774
 5560TIP3   OH238170   6.577   1.934   1.757 -0.5270 -0.6831  0.0082
 5560TIP3    H138171   6.558   2.009   1.701 -0.3869  0.9669  2.0430
 5560TIP3    H238172   6.658   1.959   1.802 -1.0584 -1.5591  1.5164
 5561TIP3   OH238173   4.304   0.218   0.819  0.0641 -0.6339 -0.2806
 5561TIP3    H138174   4.294   0.193   0.911 -0.9269  0.8816  0.0550
 5561TIP3    H238175   4.342   0.306   0.822  1.6698 -1.2475 -1.3762
 5562TIP3   OH238176   4.202   2.722   5.340 -0.4303 -0.0677 -0.2553
 5562TIP3    H138177   4.256   2.676   5.404 -1.1080 -1.6871 -0.8029
 5562TIP3    H238178   4.239   2.810   5.337 -0.5975  0.1841  2.6035
 5563TIP3   OH238179   3.432   1.028  12.694  0.4515 -0.5600  0.0489
 5563TIP3    H138180   3.488   0.975  12.751  1.3888 -0.4082 -0.6932
 5563TIP3    H238181   3.484   1.039  12.614 -0.6883 -0.4819 -0.6972
 5564TIP3   OH238182   5.338   0.112  14.730  0.0483 -0.1382 -0.3622
 5564TIP3    H138183   5.427   0.088  14.703 -0.3718  0.4822 -2.4823
 5564TIP3    H238184   5.285   0.034  14.714 -0.2552  0.3202 -1.6798
 5565TIP3   OH238185   4.481   6.747  13.766 -0.5896  0.3746  0.1304
 5565TIP3    H138186   4.523   6.832  13.768  0.6556 -0.1479 -1.3301
 5565TIP3    H238187   4.448   6.739  13.676 -0.4746 -0.7608  0.1743
 5566TIP3   OH238188   3.432   1.472   2.473  0.0248 -0.2323 -0.0503
 5566TIP3    H138189   3.428   1.512   2.559  1.8107  1.8099 -0.8180
 5566TIP3    H238190   3.523   1.445   2.462 -0.5283 -2.0244 -0.6829
 5567TIP3   OH238191   5.522   1.622   5.594 -0.3851  0.0263  0.2329
 5567TIP3    H138192   5.433   1.634   5.627  0.3226  2.0252  1.6701
 5567TIP3    H238193   5.544   1.706   5.553  1.4679  0.3079  1.6450
 5568TIP3   OH238194   5.486   6.090  15.045  0.5026 -0.2118 -0.3109
 5568TIP3    H138195   5.472   6.038  14.966  2.9644 -1.2309 -0.1873
 5568TIP3    H238196   5.499   6.179  15.013 -2.3009  0.1732 -0.6475
 5569TIP3   OH238197   1.376   4.299   6.731  0.1595  0.1860 -0.4606
 5569TIP3    H138198   1.391   4.323   6.823  1.8359 -0.3296 -0.5574
 5569TIP3    H238199   1.403   4.208   6.725  0.0148  0.1974 -1.4524
 5570TIP3   OH238200   5.420   1.910  17.148 -0.0348  0.2007  0.0687
 5570TIP3    H138201   5.505   1.920  17.105  0.3484 -0.8357  0.5559
 5570TIP3    H238202   5.441   1.911  17.242 -0.2740 -2.1431  0.2007
 5571TIP3   OH238203   0.167   3.555   5.136  0.3659 -0.4695 -0.0635
 5571TIP3    H138204   0.115   3.528   5.212 -2.2642  2.5073 -0.5650
 5571TIP3    H238205   0.227   3.621   5.171  0.2732 -0.2467 -0.3271
 5572TIP3   OH238206   0.546   6.059  16.844 -0.1796 -0.2022 -0.2581
 5572TIP3    H138207   0.523   6.053  16.751  0.4583  0.0279 -0.4337
 5572TIP3    H238208   0.610   5.990  16.858  0.3872  0.3245 -0.1990
 5573TIP3   OH238209   2.203   6.241  11.340  0.7233 -0.8271  0.2031
 5573TIP3    H138210   2.129   6.279  11.292  0.4509 -0.1213  1.1622
 5573TIP3    H238211   2.273   6.238  11.275  0.7722  1.4027  0.0957
 5574TIP3   OH238212   0.178   1.775   0.742 -0.3114 -0.2983 -0.5892
 5574TIP3    H138213   0.240   1.818   0.683 -0.9624  0.4493 -0.7458
 5574TIP3    H238214   0.117   1.730   0.684  0.4357 -1.5860 -0.4260
 5575TIP3   OH238215   3.500   5.805   1.298 -0.2842  0.1005  0.3552
 5575TIP3    H138216   3.435   5.819   1.367 -0.3696  0.9051  0.1271
 5575TIP3    H238217   3.579   5.779   1.345 -1.2700 -2.9800  0.5204
 5576TIP3   OH238218   4.137   5.563  13.019 -0.3512 -0.0048  0.5066
 5576TIP3    H138219   4.206   5.629  13.010  0.9970 -1.4289 -0.1372
 5576TIP3    H238220   4.136   5.542  13.113 -0.5469  0.6666  0.6590
 5577TIP3   OH238221   2.909   1.025   0.347  0.1532  0.1944  0.0132
 5577TIP3    H138222   3.002   1.010   0.366  0.3606  0.6780 -0.5730
 5577TIP3    H238223   2.910   1.084   0.271 -0.6199  1.2512  0.7982
 5578TIP3   OH238224   0.321   4.713  16.569 -0.3308 -0.4102  0.5793
 5578TIP3    H138225   0.300   4.714  16.663 -0.4447 -0.0527  0.5481
 5578TIP3    H238226   0.252   4.764  16.528 -0.1418 -0.3564  0.3263
 5579TIP3   OH238227   2.201   4.027  15.774  0.0562  0.6770  0.5554
 5579TIP3    H138228   2.153   3.955  15.815  0.5621  0.4362  0.7253
 5579TIP3    H238229   2.291   4.015  15.802  0.7924 -0.5659 -2.0528
 5580TIP3   OH238230   3.375   0.746  16.930  0.4374 -0.3666 -0.4240
 5580TIP3    H138231   3.284   0.755  16.901 -0.3823 -0.6960  1.8673
 5580TIP3    H238232   3.402   0.660  16.898  0.0212 -0.2019 -1.2509
 5581TIP3   OH238233   0.152   0.091   1.304  0.3286 -0.0511 -0.3183
 5581TIP3    H138234   0.115   0.123   1.222  1.6255  0.4302 -0.7412
 5581TIP3    H238235   0.098   0.016   1.327  0.5038 -0.7841 -2.1207
 5582TIP3   OH238236   2.896   1.206   1.153  0.0521  0.1768  0.0589
 5582TIP3    H138237   2.906   1.115   1.125 -1.9859  0.1958 -0.9499
 5582TIP3    H238238   2.975   1.250   1.122  0.8327 -1.1510  0.1284
 5583TIP3   OH238239   5.271   3.903  13.172 -0.0892 -0.6971 -0.1498
 5583TIP3    H138240   5.341   3.949  13.219 -0.1904  1.2911 -1.8263
 5583TIP3    H238241   5.316   3.831  13.128  0.4633 -0.9267  0.7527
 5584TIP3   OH238242   3.180   4.943  17.058 -0.3651  0.2839 -0.0400
 5584TIP3    H138243   3.172   4.850  17.039 -1.2495  0.6220 -1.4929
 5584TIP3    H238244   3.243   4.976  16.993  2.3681  0.2172  2.3743
 5585TIP3   OH238245   2.351   1.787   3.166  0.5181  0.3157  0.2888
 5585TIP3    H138246   2.439   1.767   3.135  0.5382  0.6335  0.1412
 5585TIP3    H238247   2.364   1.829   3.251  0.5742  1.4299 -0.2506
 5586TIP3   OH238248   0.560   4.679   2.106 -0.3198 -0.2677  0.2903
 5586TIP3    H138249   0.513   4.750   2.063  1.6722  0.6034 -0.5946
 5586TIP3    H238250   0.573   4.614   2.038  1.3143  0.3391 -0.0365
 5587TIP3   OH238251   2.453   0.350   5.339  0.0329  0.1716 -0.3285
 5587TIP3    H138252   2.519   0.281   5.349 -0.5964 -0.4280 -0.2321
 5587TIP3    H238253   2.500   0.422   5.298  0.3839 -0.8017 -1.7273
 5588TIP3   OH238254   4.248   1.540   0.734  0.1343  0.1132  0.0203
 5588TIP3    H138255   4.331   1.557   0.779  0.6119 -2.6069  0.2789
 5588TIP3    H238256   4.274   1.507   0.648 -0.7381  0.4776 -0.3959
 5589TIP3   OH238257   3.253   5.165  14.743 -0.4574  0.1030 -0.5360
 5589TIP3    H138258   3.253   5.258  14.766 -1.2140  0.2752 -1.2013
 5589TIP3    H238259   3.173   5.130  14.781 -0.1723 -0.2836 -0.2825
 5590TIP3   OH238260   3.741   4.997   6.179 -0.4284  0.0123  0.0722
 5590TIP3    H138261   3.831   4.977   6.206 -1.0280 -1.3087  1.1688
 5590TIP3    H238262   3.717   5.073   6.232 -0.2274 -0.1101  0.3423
 5591TIP3   OH238263   5.943   3.978  14.474  0.0828  0.4233 -0.9856
 5591TIP3    H138264   5.974   3.908  14.415 -0.5758 -0.7349 -0.0077
 5591TIP3    H238265   5.876   4.024  14.423 -0.5493 -0.6252 -1.1345
 5592TIP3   OH238266   3.301   4.145  12.108  0.3963  0.3358  0.1440
 5592TIP3    H138267   3.206   4.141  12.121  0.4566 -3.4490  0.4652
 5592TIP3    H238268   3.336   4.075  12.163  2.9762 -0.9024 -2.7607
 5593TIP3   OH238269   1.359   5.652   4.229 -0.1148 -0.5718  0.2139
 5593TIP3    H138270   1.296   5.580   4.226 -0.7921 -0.0375  1.0436
 5593TIP3    H238271   1.319   5.722   4.177 -0.6792  0.0984  1.4805
 5594TIP3   OH238272   2.069   6.745  11.025  0.0230 -0.3689 -0.0824
 5594TIP3    H138273   2.135   6.759  10.958 -0.6355  2.0226 -0.3182
 5594TIP3    H238274   2.119   6.721  11.103  0.9388 -1.0309 -0.8447
 5595TIP3   OH238275   5.786   5.947   0.941 -0.0837  0.5675  0.1198
 5595TIP3    H138276   5.756   5.927   0.852 -0.9589  0.2595  0.4825
 5595TIP3    H238277   5.707   5.969   0.989  0.2969  0.0038  1.0166
 5596TIP3   OH238278   2.843   4.811  16.128  0.7025  0.2942  0.4760
 5596TIP3    H138279   2.839   4.891  16.075 -0.3902  0.1725  0.3596
 5596TIP3    H238280   2.757   4.771  16.118  1.1615 -0.7922  0.7134
 5597TIP3   OH238281   0.690   0.451  12.168  0.0038  0.1906  0.2386
 5597TIP3    H138282   0.778   0.477  12.142  0.0562  1.4818  1.5883
 5597TIP3    H238283   0.683   0.478  12.259 -1.5824 -0.4596  0.3367
 5598TIP3   OH238284   2.643   2.151   0.664  0.6974  0.0882 -0.1811
 5598TIP3    H138285   2.696   2.081   0.703 -0.6835 -0.2572  1.1934
 5598TIP3    H238286   2.604   2.110   0.587 -0.8076 -1.0280  1.0944
 5599TIP3   OH238287   0.906   1.714  15.193 -0.2666 -0.1073 -0.2311
 5599TIP3    H138288   0.910   1.755  15.279  0.3760  0.6727 -0.6134
 5599TIP3    H238289   0.930   1.623  15.208 -0.9366 -0.1755  0.5204
 5600TIP3   OH238290   6.198   5.421  13.273 -0.3345  0.8062  0.2734
 5600TIP3    H138291   6.205   5.418  13.177  0.1406  1.4001  0.2845
 5600TIP3    H238292   6.261   5.356  13.304 -0.7895  0.3100  0.1808
 5601TIP3   OH238293   1.943   0.052   4.231 -0.0945 -0.3843  0.8328
 5601TIP3    H138294   2.029   0.093   4.227 -1.3319  2.3814 -3.0165
 5601TIP3    H238295   1.957  -0.036   4.195  1.1809 -0.2331  0.9113
 5602TIP3   OH238296   5.678   0.479  12.076 -0.2491 -0.3030  0.0753
 5602TIP3    H138297   5.590   0.487  12.114 -0.7924  0.8365 -1.3620
 5602TIP3    H238298   5.733   0.451  12.150 -1.5452  0.3221  1.3334
 5603TIP3   OH238299   3.516   0.832  16.635  0.1463  0.2204  0.1440
 5603TIP3    H138300   3.533   0.864  16.547 -1.0765 -0.3650 -0.3357
 5603TIP3    H238301   3.580   0.762  16.648 -0.0302 -0.0750 -0.5157
 5604TIP3   OH238302   0.053   3.871  11.309  0.0306  0.9405  0.4522
 5604TIP3    H138303   0.084   3.840  11.395 -1.9606  1.3201  1.3525
 5604TIP3    H238304   0.054   3.967  11.317 -1.2083  0.9597  0.4578
 5605TIP3   OH238305   6.644   5.964  12.911 -0.1583  0.0270 -0.0403
 5605TIP3    H138306   6.698   6.004  12.979  0.9214  0.3971 -1.0637
 5605TIP3    H238307   6.632   5.874  12.941  2.3046 -0.5164 -0.4130
 5606TIP3   OH238308   1.827   3.632  12.969 -0.1242 -0.5561  0.1599
 5606TIP3    H138309   1.770   3.623  12.892  0.3941  2.2481 -0.6712
 5606TIP3    H238310   1.916   3.619  12.934  0.0101 -0.9079  0.6255
 5607TIP3   OH238311   3.793   4.969  11.210  0.4743 -0.0994 -0.0234
 5607TIP3    H138312   3.737   4.896  11.186 -0.5591  0.5794  0.2516
 5607TIP3    H238313   3.864   4.968  11.145  0.1315 -0.9412 -0.3989
 5608TIP3   OH238314   3.335   0.870   2.818 -0.6178 -0.8491 -0.0328
 5608TIP3    H138315   3.263   0.808   2.811 -1.1360 -0.2422 -0.1635
 5608TIP3    H238316   3.412   0.815   2.832 -1.0263 -1.5355 -0.4003
 5609TIP3   OH238317   5.924   0.542  16.871  0.1013  0.4639  0.2185
 5609TIP3    H138318   5.957   0.520  16.784  0.9332 -1.7296  1.0255
 5609TIP3    H238319   5.846   0.596  16.854 -0.3935 -0.8050 -1.9163
 5610TIP3   OH238320   2.418   1.606  14.105 -0.5486  0.1006 -0.1158
 5610TIP3    H138321   2.444   1.662  14.178 -1.8670 -1.1856  1.4164
 5610TIP3    H238322   2.458   1.521  14.125  0.2554  0.0854 -1.6594
 5611TIP3   OH238323   6.338   5.763  15.020  1.0771 -0.0981  0.3590
 5611TIP3    H138324   6.420   5.804  15.045  1.5616 -0.8387  0.0126
 5611TIP3    H238325   6.272   5.832  15.032  1.8853  0.8203 -0.3424
 5612TIP3   OH238326   3.508   6.148  10.620 -0.1865  0.1192  0.0517
 5612TIP3    H138327   3.420   6.185  10.609  0.3371  1.2776 -0.4112
 5612TIP3    H238328   3.555   6.176  10.542  0.7830  0.0828  0.6087
 5613TIP3   OH238329   2.698   5.273   5.042  0.2681  0.0854 -0.1306
 5613TIP3    H138330   2.765   5.224   5.091 -0.6293 -1.3337 -0.2554
 5613TIP3    H238331   2.643   5.205   5.003 -1.3692  1.2108  0.1334
 5614TIP3   OH238332   0.489   2.163   4.885 -0.0967  0.1471 -0.1343
 5614TIP3    H138333   0.441   2.217   4.948  0.0884 -1.6808  1.6788
 5614TIP3    H238334   0.428   2.093   4.863  0.4423 -0.1603 -0.6658
 5615TIP3   OH238335   4.928   1.960  16.902  0.0050 -0.4454 -0.0103
 5615TIP3    H138336   4.836   1.939  16.892 -0.0350 -0.4964  0.4387
 5615TIP3    H238337   4.931   2.025  16.972  0.3846 -1.1208  0.6234
 5616TIP3   OH238338   6.200   5.073   2.665  0.3979 -0.2246  0.5549
 5616TIP3    H138339   6.175   5.034   2.581 -1.1806  0.8323  0.4893
 5616TIP3    H238340   6.213   5.166   2.645  1.0592 -0.1530  1.2842
 5617TIP3   OH238341   2.408   0.760  16.715 -0.6198  0.1411  0.4490
 5617TIP3    H138342   2.375   0.712  16.640 -2.6069 -1.0044  1.9526
 5617TIP3    H238343   2.350   0.836  16.722 -0.7077  0.0258  1.0341
 5618TIP3   OH238344   0.430   6.296   5.102 -0.7254  0.3158 -0.2670
 5618TIP3    H138345   0.396   6.249   5.025 -0.1899 -1.2280  0.4087
 5618TIP3    H238346   0.424   6.233   5.173 -0.1110  1.3373  0.7136
 5619TIP3   OH238347   4.721   0.920   5.100  0.3722  0.3271 -0.1040
 5619TIP3    H138348   4.722   0.930   5.004  0.2782  0.1714 -0.1224
 5619TIP3    H238349   4.812   0.903   5.124  0.0781 -2.1681 -0.4494
 5620TIP3   OH238350   5.260   3.013   1.953 -0.0128 -0.1357  0.0164
 5620TIP3    H138351   5.299   3.039   1.869  0.9952 -1.6207 -0.0130
 5620TIP3    H238352   5.232   2.922   1.939 -3.5036  0.7883  0.0608
 5621TIP3   OH238353   1.365   0.258   0.707  0.1059  0.4010  0.5080
 5621TIP3    H138354   1.329   0.180   0.749 -0.3700  0.4143  0.1313
 5621TIP3    H238355   1.456   0.235   0.688 -0.6383 -1.0267 -1.8601
 5622TIP3   OH238356   3.154   5.120  13.171 -0.8349  0.3530 -0.4692
 5622TIP3    H138357   3.097   5.055  13.130 -0.5742  0.2187 -0.6205
 5622TIP3    H238358   3.212   5.068  13.227  0.5539  0.2644 -1.9444
 5623TIP3   OH238359   5.890   0.674  12.008  0.3015 -0.1544  1.1766
 5623TIP3    H138360   5.816   0.646  12.062  1.2783 -2.6299  1.3466
 5623TIP3    H238361   5.942   0.729  12.066 -1.6246  2.1693  0.8695
 5624TIP3   OH238362   2.309   5.757  11.830  0.2911  0.0843  0.0149
 5624TIP3    H138363   2.237   5.802  11.875 -0.6997 -0.4867 -0.9544
 5624TIP3    H238364   2.310   5.669  11.867  1.1644  0.3795  0.7361
 5625TIP3   OH238365   3.709   1.591  11.411  0.2695 -0.0256 -0.7583
 5625TIP3    H138366   3.685   1.566  11.322 -0.4571 -0.4022 -0.4705
 5625TIP3    H238367   3.679   1.518  11.466  1.2195 -0.0534 -0.2655
 5626TIP3   OH238368   2.119   3.502  11.843 -0.2573 -0.5607 -0.6346
 5626TIP3    H138369   2.096   3.548  11.763  1.0288  2.3517  0.5325
 5626TIP3    H238370   2.038   3.503  11.895 -0.6497 -1.0047 -1.2304
 5627TIP3   OH238371   0.193   4.427   6.473 -0.2696  0.1147  0.3964
 5627TIP3    H138372   0.133   4.407   6.544 -2.3871 -0.8327 -1.5106
 5627TIP3    H238373   0.141   4.479   6.412  0.5922 -1.2675 -1.6364
 5628TIP3   OH238374   0.605   4.322  11.424  0.1226  0.2680  0.4027
 5628TIP3    H138375   0.555   4.390  11.377 -2.0694  0.2734  2.5183
 5628TIP3    H238376   0.683   4.368  11.455  1.0429  0.5528 -2.0986
 5629TIP3   OH238377   1.988   0.675  15.721  0.4741  0.5208 -0.1336
 5629TIP3    H138378   1.908   0.622  15.722  0.3534  0.6788 -1.0813
 5629TIP3    H238379   1.974   0.740  15.653  0.0424  2.7078  1.8918
 5630TIP3   OH238380   6.107   2.105  15.501  0.0628  0.2902  0.2310
 5630TIP3    H138381   6.051   2.054  15.559  0.7767 -0.5979  0.1631
 5630TIP3    H238382   6.150   2.168  15.558  0.5623 -0.4039  0.6404
 5631TIP3   OH238383   4.985   1.530   5.565  0.2252  0.3193 -0.6978
 5631TIP3    H138384   5.029   1.529   5.480 -0.4499  0.2348 -1.0537
 5631TIP3    H238385   5.002   1.617   5.601  0.0002  0.5671 -1.1906
 5632TIP3   OH238386   6.146   5.958   2.362 -0.4402 -0.4230  0.4239
 5632TIP3    H138387   6.208   5.969   2.289 -0.7438 -0.3516  0.1756
 5632TIP3    H238388   6.082   6.028   2.350  1.3400  1.7618  2.6945
 5633TIP3   OH238389   5.893   0.020   3.797 -0.2886 -0.2511  0.5395
 5633TIP3    H138390   5.809  -0.026   3.796  0.1572 -1.0868 -0.6940
 5633TIP3    H238391   5.870   0.111   3.819 -1.6715 -0.2134 -0.8292
 5634TIP3   OH238392   5.611   3.482  12.740 -0.1884  0.4852  0.4047
 5634TIP3    H138393   5.542   3.520  12.685  0.2883 -0.2486 -0.7221
 5634TIP3    H238394   5.662   3.428  12.680  0.0031 -0.7981  1.6815
 5635TIP3   OH238395   0.038   2.941   1.956 -0.3680 -0.1638  0.4136
 5635TIP3    H138396   0.098   2.870   1.978  0.9074  0.7747  0.0974
 5635TIP3    H238397   0.020   2.930   1.863  0.3310  0.2756  0.2200
 5636TIP3   OH238398   4.227   4.926   5.325  0.1400 -0.4666 -0.5956
 5636TIP3    H138399   4.183   4.844   5.303 -1.2232  0.0673  0.0133
 5636TIP3    H238400   4.310   4.923   5.277 -0.4116 -1.6639 -1.5213
 5637TIP3   OH238401   5.378   5.024   4.814  0.0963  0.1750  0.3145
 5637TIP3    H138402   5.353   5.089   4.880  1.9562  3.2732 -1.7570
 5637TIP3    H238403   5.321   5.042   4.740  0.7235 -0.4721 -0.3398
 5638TIP3   OH238404   5.513   0.527  14.495 -0.5858 -0.1129 -0.4721
 5638TIP3    H138405   5.513   0.548  14.401 -1.0631 -1.0180 -0.6874
 5638TIP3    H238406   5.420   0.512  14.515 -0.5324  0.4843  0.2433
 5639TIP3   OH238407   5.991   5.473  14.551 -0.2485  0.5947 -0.4271
 5639TIP3    H138408   6.065   5.489  14.491 -0.8465  2.2592 -0.7928
 5639TIP3    H238409   5.917   5.453  14.493 -0.6639  1.5202 -0.2452
 5640TIP3   OH238410   5.528   2.171   6.073  0.0826 -0.3456  0.0077
 5640TIP3    H138411   5.465   2.170   6.144  1.7500  0.5224  1.5900
 5640TIP3    H238412   5.575   2.088   6.081 -0.4569 -0.7488 -0.8265
 5641TIP3   OH238413   1.266   3.832  12.594 -1.4394  0.2412 -0.0039
 5641TIP3    H138414   1.218   3.753  12.569  1.3858 -1.4046 -0.6084
 5641TIP3    H238415   1.273   3.826  12.689 -0.9632 -0.4527 -0.0717
 5642TIP3   OH238416   5.717   0.470  16.532  0.3453 -0.6563 -0.2752
 5642TIP3    H138417   5.661   0.402  16.493 -1.0119 -0.1064  0.6375
 5642TIP3    H238418   5.730   0.534  16.462  0.0795 -0.9421 -0.5914
 5643TIP3   OH238419   0.042   6.092   3.175 -1.0040 -1.3940  0.4254
 5643TIP3    H138420  -0.036   6.083   3.121 -1.0856 -0.2446  0.3273
 5643TIP3    H238421   0.061   6.186   3.175 -0.9594 -1.3662  2.3336
 5644TIP3   OH238422   3.152   2.537   1.545 -0.0420  0.8531  0.2179
 5644TIP3    H138423   3.059   2.516   1.540 -0.1840  1.0725  1.5392
 5644TIP3    H238424   3.176   2.521   1.637  1.2341  0.7558 -0.1054
 5645TIP3   OH238425   2.348   4.679   1.486  0.3208  0.2798 -0.5020
 5645TIP3    H138426   2.443   4.687   1.500  0.2401 -0.6238  0.6615
 5645TIP3    H238427   2.322   4.765   1.453  1.5655  0.4930 -1.0001
 5646TIP3   OH238428   6.349   6.226   5.406 -0.4559 -0.7451 -0.2972
 5646TIP3    H138429   6.377   6.209   5.316  0.4673  0.1865 -0.2013
 5646TIP3    H238430   6.425   6.267   5.447 -1.7746  1.4152  0.1209
 5647TIP3   OH238431   1.869   4.803   6.267  0.1418  0.1751  0.5608
 5647TIP3    H138432   1.842   4.768   6.182  0.3842 -1.8218  1.2513
 5647TIP3    H238433   1.823   4.886   6.275 -3.2696 -1.5269  0.2729
 5648TIP3   OH238434   5.879   5.157  12.402  0.1046 -0.0549 -0.0281
 5648TIP3    H138435   5.842   5.072  12.428 -0.6353 -0.1254 -1.2221
 5648TIP3    H238436   5.860   5.164  12.308  0.8304  1.0995 -0.1145
 5649TIP3   OH238437   3.323   1.638  12.683  0.0831  0.4355 -0.3218
 5649TIP3    H138438   3.360   1.614  12.767 -0.6507  1.2842  0.2662
 5649TIP3    H238439   3.266   1.565  12.659  0.4285  0.1153 -0.1688
 5650TIP3   OH238440   0.156   4.425  14.661  0.2305  0.1594  0.1096
 5650TIP3    H138441   0.118   4.412  14.574  0.8155 -1.4198  0.0556
 5650TIP3    H238442   0.163   4.520  14.670 -2.9802  0.5430 -0.1649
 5651TIP3   OH238443   4.512   4.883   3.383 -0.2484 -0.1038 -0.6338
 5651TIP3    H138444   4.574   4.904   3.313 -0.1529 -1.9817 -1.1710
 5651TIP3    H238445   4.560   4.901   3.464  1.4493 -2.4164 -1.0135
 5652TIP3   OH238446   4.753   4.827   6.663 -0.3408 -0.1442 -0.2056
 5652TIP3    H138447   4.765   4.912   6.706 -0.0090  0.1995 -0.9788
 5652TIP3    H238448   4.798   4.765   6.720 -1.3656  0.0425  0.8622
 5653TIP3   OH238449   5.495   0.304  13.845  0.2790 -0.2520  0.4094
 5653TIP3    H138450   5.471   0.362  13.917  0.1190 -0.2232  0.3342
 5653TIP3    H238451   5.523   0.363  13.775  0.3562 -0.2765  0.4204
 5654TIP3   OH238452   1.992   5.193   5.422  0.5072 -0.4177 -0.1796
 5654TIP3    H138453   1.900   5.169   5.424  0.4445 -0.2901 -1.1029
 5654TIP3    H238454   2.003   5.253   5.497  0.1361 -1.3843  0.6740
 5655TIP3   OH238455   1.071   0.116  13.767  0.1104 -0.1312 -0.4899
 5655TIP3    H138456   1.083   0.167  13.847 -1.0130 -0.2215 -0.2506
 5655TIP3    H238457   1.120   0.164  13.700  1.4125 -0.2826  0.3254
 5656TIP3   OH238458   2.010   1.341   3.419 -0.1622 -0.1776  0.0131
 5656TIP3    H138459   2.015   1.312   3.510 -0.1848 -0.9738 -0.2310
 5656TIP3    H238460   2.083   1.297   3.376  0.5617  1.1115 -0.1215
 5657TIP3   OH238461   6.291   2.645  10.994  0.5178  0.0265 -0.1456
 5657TIP3    H138462   6.237   2.570  10.970 -0.2286  0.4078  0.3268
 5657TIP3    H238463   6.361   2.645  10.929  1.7103 -2.2755  1.0002
 5658TIP3   OH238464   5.754   5.333  13.879  0.6626  0.3398  0.3987
 5658TIP3    H138465   5.844   5.346  13.850  0.3176 -1.1030 -1.4508
 5658TIP3    H238466   5.701   5.370  13.809 -0.2058  0.2227  0.9839
 5659TIP3   OH238467   3.401   0.802  10.304 -0.2655 -0.2997 -0.0538
 5659TIP3    H138468   3.418   0.869  10.370  4.2924 -1.7299  0.6314
 5659TIP3    H238469   3.393   0.851  10.222  0.3191  1.2199  0.7505
 5660TIP3   OH238470   6.458   5.371  12.754  0.8359 -0.4349  0.1547
 5660TIP3    H138471   6.491   5.392  12.842  0.5291  0.7312  0.0020
 5660TIP3    H238472   6.370   5.409  12.752  0.3460 -1.5351 -0.2383
 5661TIP3   OH238473   1.695   3.412   0.953  0.6181  0.3318  0.0141
 5661TIP3    H138474   1.700   3.318   0.971 -1.3602  0.1268 -0.2868
 5661TIP3    H238475   1.783   3.435   0.922  1.2351 -1.3408  0.4128
 5662TIP3   OH238476   2.908   6.458   2.667  0.2805 -0.0260  0.5618
 5662TIP3    H138477   2.832   6.505   2.635  0.7093 -0.3686 -1.0442
 5662TIP3    H238478   2.875   6.370   2.689 -0.0304  0.2380  1.1826
 5663TIP3   OH238479   2.855   0.013  17.148  0.2372  0.7322 -1.1065
 5663TIP3    H138480   2.885  -0.059  17.203  0.7262  1.6189 -0.1976
 5663TIP3    H238481   2.830  -0.029  17.065 -2.4100 -0.9380  0.3820
 5664TIP3   OH238482   5.269   0.223   2.858  0.4025 -0.0782  0.4386
 5664TIP3    H138483   5.198   0.168   2.891  0.6974 -0.4902  0.3894
 5664TIP3    H238484   5.225   0.301   2.825 -0.2491 -1.1737 -1.4452
 5665TIP3   OH238485   3.700   6.620   0.975 -0.1988 -0.1062  0.2968
 5665TIP3    H138486   3.719   6.653   1.063  1.5466  2.3991 -0.8770
 5665TIP3    H238487   3.778   6.571   0.951 -1.7247 -3.1036  1.0155
 5666TIP3   OH238488   3.437   6.541  16.509  0.1795  0.2316 -0.0195
 5666TIP3    H138489   3.387   6.497  16.579 -0.4255  2.2936  0.9375
 5666TIP3    H238490   3.522   6.559  16.549  0.1382  0.6346 -0.1144
 5667TIP3   OH238491   5.732   2.582   3.350  0.3511 -0.2910  0.1588
 5667TIP3    H138492   5.645   2.546   3.368 -0.0480 -0.0657 -1.1784
 5667TIP3    H238493   5.758   2.540   3.268  0.7563  0.9245 -0.3465
 5668TIP3   OH238494   6.421   3.069   5.789  0.7486 -0.4759  0.0380
 5668TIP3    H138495   6.394   3.112   5.870 -1.2130 -0.1344 -0.7475
 5668TIP3    H238496   6.509   3.035   5.808  0.1635 -0.8062  2.4377
 5669TIP3   OH238497   1.330   1.594   2.423  0.3806 -0.5846 -0.1656
 5669TIP3    H138498   1.323   1.689   2.430 -0.4012 -0.5960 -0.6638
 5669TIP3    H238499   1.283   1.559   2.498 -2.4314 -0.6042 -1.7872
 5670TIP3   OH238500   1.380   1.051  11.072  0.4977 -0.0259  0.3720
 5670TIP3    H138501   1.316   1.059  11.001 -0.0314  0.0565  0.8441
 5670TIP3    H238502   1.424   1.136  11.075  0.8262 -0.1718 -0.1305
 5671TIP3   OH238503   4.959   3.283  14.851 -0.3385 -0.8886  0.3301
 5671TIP3    H138504   5.027   3.284  14.918 -0.0154 -0.3605  0.0035
 5671TIP3    H238505   4.991   3.222  14.785  0.7989  0.7970 -0.7831
 5672TIP3   OH238506   5.618   2.832  15.844  0.0294 -0.2004  0.2640
 5672TIP3    H138507   5.676   2.856  15.916  0.0074 -0.0714  0.2382
 5672TIP3    H238508   5.616   2.736  15.846 -0.9389 -0.1804  1.2146
 5673TIP3   OH238509   5.638   0.707  11.119  0.2353  0.0093 -0.4594
 5673TIP3    H138510   5.608   0.780  11.065  0.0229  1.5565  1.6191
 5673TIP3    H238511   5.642   0.743  11.208  0.3282 -2.4658  0.6223
 5674TIP3   OH238512   3.174   6.527   3.135 -0.0830  0.0730 -0.0361
 5674TIP3    H138513   3.147   6.500   3.047 -1.1601  1.1007 -0.0442
 5674TIP3    H238514   3.251   6.473   3.154 -0.9178 -1.5001 -0.8673
 5675TIP3   OH238515   6.668   4.546  13.049 -0.0942  0.3090 -0.2243
 5675TIP3    H138516   6.628   4.526  12.964  0.6401  1.0404 -0.7482
 5675TIP3    H238517   6.594   4.545  13.110 -0.8386  1.0294 -1.0724
 5676TIP3   OH238518   2.769   0.814   5.858 -0.0840 -0.3705  0.3571
 5676TIP3    H138519   2.718   0.894   5.854  0.5386  0.0121 -0.0977
 5676TIP3    H238520   2.708   0.745   5.829 -1.0940 -0.3299  2.2475
 5677TIP3   OH238521   3.118   4.534   1.041 -0.1979  0.2539 -0.1629
 5677TIP3    H138522   3.168   4.616   1.037 -0.3210  0.4282  1.4471
 5677TIP3    H238523   3.091   4.526   1.132  0.8915 -2.2322  0.0114
 5678TIP3   OH238524   5.340   0.939  13.272 -0.2496  0.4877  0.3586
 5678TIP3    H138525   5.345   0.990  13.353 -2.9314 -0.2083  1.0731
 5678TIP3    H238526   5.356   0.849  13.299  0.4567  0.4495 -0.1807
 5679TIP3   OH238527   6.761   6.654   1.758 -0.0666 -0.2715 -0.3064
 5679TIP3    H138528   6.741   6.724   1.696  2.8841 -0.2537 -1.4267
 5679TIP3    H238529   6.733   6.688   1.843  0.1750  1.7782 -0.9908
 5680TIP3   OH238530   6.522   1.871  17.201  0.5522 -0.0639  0.0600
 5680TIP3    H138531   6.563   1.874  17.287  1.1375 -0.7254 -0.1848
 5680TIP3    H238532   6.594   1.885  17.139 -0.2058  2.8060 -0.2894
 5681TIP3   OH238533   1.589   5.278   1.417 -0.4397  0.1858  0.0723
 5681TIP3    H138534   1.684   5.286   1.404 -0.4498  0.7790  0.3526
 5681TIP3    H238535   1.579   5.203   1.475 -0.0565  0.8661  1.0399
 5682TIP3   OH238536   6.174   4.466   5.524  0.4657 -0.4107  0.3922
 5682TIP3    H138537   6.234   4.519   5.471 -0.1840  0.1953  0.2435
 5682TIP3    H238538   6.096   4.456   5.469  0.2281 -0.7587  0.7830
 5683TIP3   OH238539   1.591   5.048  13.686  0.0336 -0.2853  0.2739
 5683TIP3    H138540   1.645   5.058  13.764 -1.1727 -1.4469  1.2965
 5683TIP3    H238541   1.504   5.078  13.713 -0.4888 -1.0542 -0.5044
 5684TIP3   OH238542   6.763   6.756  15.700  0.1738 -0.0784 -0.6412
 5684TIP3    H138543   6.705   6.801  15.761  1.4265 -0.6275  1.0338
 5684TIP3    H238544   6.704   6.707  15.643 -1.1291  2.1449 -1.3013
 5685TIP3   OH238545   4.834   4.157  14.815 -0.6092 -0.1953 -0.0683
 5685TIP3    H138546   4.881   4.084  14.854 -1.6854  0.3133  2.3401
 5685TIP3    H238547   4.780   4.192  14.886 -2.7854  0.7507 -2.0458
 5686TIP3   OH238548   3.133   1.950   3.439 -0.2153  0.2128 -0.7096
 5686TIP3    H138549   3.125   1.916   3.349 -1.9907 -1.1750 -0.1022
 5686TIP3    H238550   3.125   1.872   3.494  0.9122  1.0425  0.6649
 5687TIP3   OH238551   6.472   5.917   4.591  0.3193 -0.0787  0.0134
 5687TIP3    H138552   6.438   5.833   4.619 -1.6040  0.3613 -0.8406
 5687TIP3    H238553   6.429   5.981   4.648  1.7038  0.3624  0.6073
 5688TIP3   OH238554   4.378   2.225   2.229 -0.6397 -0.1528  0.3427
 5688TIP3    H138555   4.307   2.193   2.284 -1.5833 -3.1788 -2.3507
 5688TIP3    H238556   4.422   2.146   2.198  1.6092  1.5112 -1.0369
 5689TIP3   OH238557   1.072   5.599  14.659 -0.4698 -0.1045 -0.1526
 5689TIP3    H138558   1.095   5.620  14.749 -1.9245  0.2372  0.1578
 5689TIP3    H238559   1.156   5.598  14.613  0.1974  0.6754  0.9899
 5690TIP3   OH238560   0.865   4.507  11.376  0.2520  0.8083  0.1702
 5690TIP3    H138561   0.833   4.555  11.452  0.5212  0.8037  0.2876
 5690TIP3    H238562   0.956   4.484  11.398  0.2628  0.6217 -0.0613
 5691TIP3   OH238563   0.027   5.992   0.710 -0.3888  0.1067 -0.3663
 5691TIP3    H138564  -0.048   5.999   0.768 -0.5662  2.0130 -0.7513
 5691TIP3    H238565   0.056   6.082   0.696  0.7690 -0.4233 -1.7814
 5692TIP3   OH238566   5.483   0.906   2.793  0.2745 -0.4592 -0.6478
 5692TIP3    H138567   5.489   1.001   2.784 -1.7647 -0.4260 -2.7395
 5692TIP3    H238568   5.415   0.892   2.859 -0.6643 -0.4010 -1.5748
 5693TIP3   OH238569   0.576   6.556  12.524 -0.1750  0.5344  0.1452
 5693TIP3    H138570   0.595   6.580  12.433  1.1915  0.7823  0.4854
 5693TIP3    H238571   0.482   6.573  12.533 -0.6681 -0.8837 -1.6365
 5694TIP3   OH238572   2.425   0.114  13.137 -0.4258  0.5374  0.0421
 5694TIP3    H138573   2.366   0.119  13.062  1.3167  1.1292 -1.3479
 5694TIP3    H238574   2.377   0.063  13.202 -1.8164 -0.3811 -1.6305
 5695TIP3   OH238575   6.721   0.292   1.225 -0.1559 -0.1606  0.1254
 5695TIP3    H138576   6.708   0.382   1.195 -0.0575 -0.4224 -0.7229
 5695TIP3    H238577   6.788   0.257   1.166 -1.6826 -1.4526 -0.9037
 5696TIP3   OH238578   0.620   2.906   0.242 -0.7461 -0.0823  0.4723
 5696TIP3    H138579   0.589   2.836   0.184 -2.0706  1.0720 -0.2964
 5696TIP3    H238580   0.678   2.862   0.304 -1.6478 -1.8788  0.1192
 5697TIP3   OH238581   2.311   2.869   0.535 -0.1753  0.5818 -0.1048
 5697TIP3    H138582   2.343   2.958   0.549  1.2881  0.3075 -1.3905
 5697TIP3    H238583   2.274   2.871   0.446  0.0804 -0.1307 -0.2340
 5698TIP3   OH238584   6.374   1.033   4.987  0.4880  0.1345 -0.4624
 5698TIP3    H138585   6.296   1.082   4.962  0.6883  1.4240  1.2120
 5698TIP3    H238586   6.361   1.013   5.080  1.8107 -0.2626 -0.3411
 5699TIP3   OH238587   1.877   5.240   2.098  0.0206  0.0572 -0.3194
 5699TIP3    H138588   1.887   5.179   2.171  1.5539 -0.4933 -0.9393
 5699TIP3    H238589   1.788   5.225   2.066 -0.2133 -0.6278  0.6191
 5700TIP3   OH238590   6.160   3.568   4.159  0.5973 -0.2698  0.6757
 5700TIP3    H138591   6.180   3.660   4.179  0.1595 -0.1998  0.8132
 5700TIP3    H238592   6.160   3.525   4.244 -1.1469  0.0033  0.8713
 5701TIP3   OH238593   5.800   3.984   5.263 -0.2028 -0.2621  0.2704
 5701TIP3    H138594   5.733   3.977   5.194 -1.7305 -2.2830  1.8178
 5701TIP3    H238595   5.880   3.953   5.221 -0.3641  1.4542 -1.4150
 5702TIP3   OH238596   0.971   3.411   1.006  0.5048  0.0181 -0.0864
 5702TIP3    H138597   1.025   3.420   0.928  0.3388 -0.3725 -0.2505
 5702TIP3    H238598   1.032   3.383   1.075  0.6344  0.2717 -0.0979
 5703TIP3   OH238599   0.868   0.101  16.535  0.0484  0.2105  0.1392
 5703TIP3    H138600   0.793   0.122  16.480 -1.3103 -0.8970  1.4958
 5703TIP3    H238601   0.899   0.187  16.566  0.6694  0.8329 -2.0123
 5704TIP3   OH238602   1.094   4.196  13.920  0.6015 -0.3334 -0.5060
 5704TIP3    H138603   1.112   4.147  13.839 -0.3891 -0.1129 -0.8737
 5704TIP3    H238604   1.035   4.139  13.969  0.4847 -0.0753 -0.3459
 5705TIP3   OH238605   0.264   4.845  13.790 -0.5570 -0.1352  0.4032
 5705TIP3    H138606   0.275   4.809  13.701 -1.2790  1.0177 -0.1814
 5705TIP3    H238607   0.191   4.796  13.827 -1.1079  0.2585 -0.1417
 5706TIP3   OH238608   1.224   1.540   0.244 -0.2398  0.4754 -0.1091
 5706TIP3    H138609   1.170   1.606   0.287  0.2011  0.6463  0.1880
 5706TIP3    H238610   1.179   1.457   0.260 -0.1303  0.5485  0.6112
 5707TIP3   OH238611   4.172   2.208   4.717  0.5492  0.2213  0.0733
 5707TIP3    H138612   4.161   2.300   4.740 -0.0243  0.0597  0.4669
 5707TIP3    H238613   4.111   2.194   4.645  0.6623  0.1568 -0.0106
 5708TIP3   OH238614   2.470   3.971   5.760  0.3177 -0.3304  0.3012
 5708TIP3    H138615   2.501   4.061   5.754  0.2052 -0.3375 -0.3959
 5708TIP3    H238616   2.464   3.941   5.670  0.1016 -0.9538  0.5163
 5709TIP3   OH238617   5.652   0.446  17.252  0.0214  0.3958  0.0018
 5709TIP3    H138618   5.658   0.368  17.308 -1.1487  0.1294 -0.2054
 5709TIP3    H238619   5.669   0.519  17.311  0.9247  0.0113  0.2447
 5710TIP3   OH238620   3.305   1.185  12.311 -0.4649  0.2073 -0.1595
 5710TIP3    H138621   3.395   1.185  12.344  0.6537 -0.1759 -2.9481
 5710TIP3    H238622   3.274   1.096  12.324  0.1667 -0.0902 -0.6757
 5711TIP3   OH238623   6.094   1.581   5.718  0.0618 -0.6806 -0.1655
 5711TIP3    H138624   6.178   1.627   5.720 -0.5331  0.6165 -1.7094
 5711TIP3    H238625   6.116   1.488   5.719  1.4636 -0.3591  0.2267
 5712TIP3   OH238626   0.611   3.905  15.067  0.5276 -0.7336 -0.2206
 5712TIP3    H138627   0.547   3.835  15.082 -0.5822  0.3744  0.4004
 5712TIP3    H238628   0.580   3.978  15.120  1.7124  0.2152 -0.7732
 5713TIP3   OH238629   3.751   4.310   3.374  0.1088  0.1769 -0.2550
 5713TIP3    H138630   3.794   4.242   3.322 -1.4277 -0.0792 -1.2408
 5713TIP3    H238631   3.660   4.281   3.382  0.1446  0.4887  2.1373
 5714TIP3   OH238632   1.319   4.938   3.402  0.2716 -0.3737 -0.4532
 5714TIP3    H138633   1.340   4.863   3.457  0.6780 -1.4503 -2.0119
 5714TIP3    H238634   1.249   4.984   3.449  1.1731 -0.7550  1.3395
 5715TIP3   OH238635   2.110   0.375   4.315  0.2399 -0.0573  0.3205
 5715TIP3    H138636   2.018   0.392   4.339  0.1810 -1.0218  0.7940
 5715TIP3    H238637   2.116   0.407   4.225 -0.3093  0.8886  0.5995
 5716TIP3   OH238638   6.214   6.319   4.392 -0.3264 -0.2868 -0.2521
 5716TIP3    H138639   6.203   6.296   4.485  3.1045 -0.9135  0.1375
 5716TIP3    H238640   6.201   6.236   4.346 -1.0508 -0.1784 -0.2581
 5717TIP3   OH238641   4.957   6.401   2.362  0.7029  0.3836 -0.2715
 5717TIP3    H138642   4.898   6.476   2.360  0.3100  0.0689 -0.9143
 5717TIP3    H238643   5.005   6.405   2.280  1.6012  0.6424  0.2495
 5718TIP3   OH238644   4.958   5.009  15.184 -0.4296 -0.0750 -0.1080
 5718TIP3    H138645   4.893   4.951  15.144 -1.2593  0.3643  0.5602
 5718TIP3    H238646   5.034   5.004  15.126 -1.5669  0.5375 -1.7369
 5719TIP3   OH238647   1.598   1.228   5.905 -0.2198 -0.0644 -0.5959
 5719TIP3    H138648   1.590   1.135   5.883 -1.0013 -0.0023 -0.6021
 5719TIP3    H238649   1.693   1.244   5.906 -0.0690 -0.9107 -0.3516
 5720TIP3   OH238650   1.487   3.887  14.114  0.7421  0.3693 -0.2809
 5720TIP3    H138651   1.427   3.961  14.106  1.4381  0.7796 -2.2104
 5720TIP3    H238652   1.430   3.812  14.130 -0.1133  1.0348 -0.0872
 5721TIP3   OH238653   3.160   2.888   2.219 -0.1486 -0.8754 -0.4006
 5721TIP3    H138654   3.113   2.918   2.140  0.4824 -1.1146 -0.8711
 5721TIP3    H238655   3.100   2.826   2.260 -0.2747 -1.1418 -0.9742
 5722TIP3   OH238656   2.018   4.743  15.937 -0.1104  0.8322 -0.2427
 5722TIP3    H138657   1.961   4.819  15.944  2.0776  2.4342  1.2113
 5722TIP3    H238658   2.093   4.763  15.992 -0.1564 -3.1201  1.6321
 5723TIP3   OH238659   3.671   2.346  16.410 -0.0635 -0.2106 -0.2506
 5723TIP3    H138660   3.654   2.379  16.498  0.2601 -1.5252  0.3300
 5723TIP3    H238661   3.694   2.254  16.423  0.4718 -0.3016 -1.6633
 5724TIP3   OH238662   0.059   2.949   3.611 -0.1170 -0.4729  0.5831
 5724TIP3    H138663   0.045   3.042   3.626  0.0492 -0.3138 -0.2148
 5724TIP3    H238664   0.025   2.907   3.690  0.4142  0.3009  1.2399
 5725TIP3   OH238665   4.630   5.269   1.162 -0.5261  0.2097  0.0559
 5725TIP3    H138666   4.555   5.326   1.143 -0.3864  0.4321  0.1744
 5725TIP3    H238667   4.625   5.201   1.095 -0.6021  0.4482 -0.1839
 5726TIP3   OH238668   0.285   1.891  13.965 -0.0760 -0.1230  0.2665
 5726TIP3    H138669   0.297   1.816  13.906 -0.7326  0.2160 -0.3065
 5726TIP3    H238670   0.204   1.933  13.935  0.6233  1.1964  0.1720
 5727TIP3   OH238671   1.760   4.340  16.242  0.1527  0.0875 -0.1682
 5727TIP3    H138672   1.698   4.339  16.169 -0.0108 -1.5387 -0.0534
 5727TIP3    H238673   1.830   4.398  16.214 -0.3021  0.1288 -1.2720
 5728TIP3   OH238674   5.025   5.564   5.209  0.2401  0.2273 -0.0846
 5728TIP3    H138675   5.100   5.623   5.194  0.1341  1.3045  2.9169
 5728TIP3    H238676   4.999   5.582   5.299 -1.7212 -2.3624 -0.0384
 5729TIP3   OH238677   3.352   0.542  11.064  0.2055 -0.1911 -0.7045
 5729TIP3    H138678   3.312   0.584  10.988  1.4074  0.1691 -1.1584
 5729TIP3    H238679   3.346   0.606  11.134 -0.8580 -0.5043 -0.4947
 5730TIP3   OH238680   6.220   5.336  15.844 -0.1259 -0.4765 -0.0130
 5730TIP3    H138681   6.181   5.421  15.823  0.2560  0.5362  2.9191
 5730TIP3    H238682   6.180   5.275  15.782 -0.8431  1.7219 -1.8348
 5731TIP3   OH238683   3.855   3.503   0.082  0.1960  0.2986  0.1220
 5731TIP3    H138684   3.830   3.527  -0.007  0.0526 -0.5937 -0.0821
 5731TIP3    H238685   3.865   3.587   0.127 -1.0387  0.7281 -0.3702
 5732TIP3   OH238686   3.434   4.514   5.558 -0.0989 -0.2908 -0.0803
 5732TIP3    H138687   3.510   4.560   5.523 -1.2906  0.1988 -2.1685
 5732TIP3    H238688   3.398   4.574   5.623  0.3443  0.1972 -0.2785
 5733TIP3   OH238689   3.093   3.879   5.491 -0.6303  0.5982 -0.3595
 5733TIP3    H138690   3.128   3.959   5.532  1.5828  0.0819 -1.0788
 5733TIP3    H238691   3.061   3.827   5.564  2.8191 -0.1090  0.8620
 5734TIP3   OH238692   1.960   1.565   2.134 -0.1835  0.4797  0.0959
 5734TIP3    H138693   1.987   1.479   2.101 -0.0717  0.4948  0.1478
 5734TIP3    H238694   1.962   1.556   2.229  0.8660  0.8540  0.1272
 5735TIP3   OH238695   5.131   1.049  12.749 -0.1100 -0.2050 -0.0041
 5735TIP3    H138696   5.142   0.964  12.790 -0.3845 -0.4683 -0.4740
 5735TIP3    H238697   5.204   1.057  12.688 -0.1544 -0.1576 -0.0515
 5736TIP3   OH238698   3.348   3.651  11.521  0.7148 -0.1878 -0.3239
 5736TIP3    H138699   3.385   3.700  11.594  2.0784  0.2705 -1.2698
 5736TIP3    H238700   3.275   3.705  11.490 -0.3486 -0.7452  1.1178
 5737TIP3   OH238701   1.570   2.663   2.107  0.2724  0.0627 -0.0598
 5737TIP3    H138702   1.504   2.712   2.057  1.4275  0.6613 -1.0406
 5737TIP3    H238703   1.521   2.626   2.180 -1.1243  0.6345 -0.6616
 5738TIP3   OH238704   2.823   6.401   6.368 -0.2928 -0.2653 -0.8893
 5738TIP3    H138705   2.750   6.419   6.309 -2.2864 -3.0509  0.4602
 5738TIP3    H238706   2.867   6.326   6.329 -0.6384 -1.0968  0.2438
 5739TIP3   OH238707   1.585   5.669   3.604  0.3038 -0.1039 -0.7887
 5739TIP3    H138708   1.608   5.583   3.639 -0.3267  0.1818  0.3990
 5739TIP3    H238709   1.497   5.685   3.637  0.8819  1.5251  0.0862
 5740TIP3   OH238710   5.712   0.533   5.080  0.1841  0.2554 -0.1890
 5740TIP3    H138711   5.695   0.619   5.119 -0.4426  1.5826 -3.0647
 5740TIP3    H238712   5.734   0.476   5.154 -2.5473  2.0713  2.2321
 5741TIP3   OH238713   3.284   2.048  15.633 -0.3461  0.4054 -0.1749
 5741TIP3    H138714   3.358   1.988  15.623 -0.6170  0.0159  0.1500
 5741TIP3    H238715   3.221   2.021  15.566 -1.2451 -0.8455  1.1098
 5742TIP3   OH238716   2.974   1.532  15.620  0.2392 -0.1694  0.4066
 5742TIP3    H138717   2.959   1.578  15.537  0.7075 -0.5133  0.1296
 5742TIP3    H238718   2.997   1.443  15.594  0.1539 -0.3415  0.9154
 5743TIP3   OH238719   3.859   5.771  13.086  0.0856  0.3171 -0.1419
 5743TIP3    H138720   3.930   5.834  13.079  1.4212 -1.0330  0.6724
 5743TIP3    H238721   3.891   5.705  13.147 -0.6384 -1.9177 -2.0168
 5744TIP3   OH238722   5.835   1.174   5.275  0.2132  0.0852 -0.0838
 5744TIP3    H138723   5.888   1.098   5.250  0.3653 -0.2029  1.0671
 5744TIP3    H238724   5.788   1.197   5.195  0.3368 -1.0879 -0.5186
 5745TIP3   OH238725   0.787   2.473  14.474  0.0929  0.0403 -0.3109
 5745TIP3    H138726   0.711   2.422  14.503  0.4168 -0.4033 -0.2247
 5745TIP3    H238727   0.751   2.556  14.444 -0.4982 -0.4015 -0.8603
 5746TIP3   OH238728   2.389   6.085  13.993 -0.4829  0.1454  0.0967
 5746TIP3    H138729   2.394   6.175  13.961  0.4534 -0.1311 -0.5686
 5746TIP3    H238730   2.473   6.045  13.968 -0.5233 -0.6645  1.1429
 5747TIP3   OH238731   5.142   6.313  15.516 -0.3082  0.3279 -0.0914
 5747TIP3    H138732   5.086   6.339  15.589 -1.3523  2.4458 -1.5136
 5747TIP3    H238733   5.083   6.268  15.455  0.3091 -0.4399 -0.1437
 5748TIP3   OH238734   3.452   4.288   3.797 -0.2156  0.1195 -0.1107
 5748TIP3    H138735   3.465   4.199   3.764  2.3481  0.7190 -0.8937
 5748TIP3    H238736   3.439   4.341   3.719 -1.2857  0.5334  0.3295
 5749TIP3   OH238737   6.469   4.122   5.491 -0.0876 -0.4031  1.1300
 5749TIP3    H138738   6.405   4.178   5.534 -0.6446 -0.7693  0.8064
 5749TIP3    H238739   6.419   4.078   5.421  0.8954  0.5435 -0.2158
 5750TIP3   OH238740   2.192   3.040   1.590  0.1163 -0.5782 -0.0982
 5750TIP3    H138741   2.253   3.068   1.658 -0.9322  0.9963  0.2548
 5750TIP3    H238742   2.126   2.989   1.638 -1.1494  1.3324  0.3030
 5751TIP3   OH238743   5.983   6.165   5.610  0.3571 -0.3334 -0.0579
 5751TIP3    H138744   6.006   6.254   5.638 -1.9333  0.5919 -0.8775
 5751TIP3    H238745   5.938   6.127   5.686 -1.6676  0.4838 -0.7846
 5752TIP3   OH238746   6.513   2.780  12.906 -0.0452 -0.7299  0.2612
 5752TIP3    H138747   6.585   2.723  12.877 -0.5028 -0.6926 -1.0134
 5752TIP3    H238748   6.544   2.817  12.989  1.3413 -0.8327 -0.1822
 5753TIP3   OH238749   3.948   1.145   5.609  0.3085  0.0389  0.0778
 5753TIP3    H138750   3.862   1.184   5.625  0.5691  0.5900  0.1520
 5753TIP3    H238751   3.931   1.051   5.602 -1.1907  0.3426 -5.1724
 5754TIP3   OH238752   0.893   5.958   4.556  0.1247 -0.0255  0.0075
 5754TIP3    H138753   0.857   6.022   4.496  1.6155  0.0503 -0.8712
 5754TIP3    H238754   0.841   5.966   4.635 -1.8642 -0.0910 -1.2347
 5755TIP3   OH238755   3.035   4.057  11.631 -0.0009 -0.2086 -0.4754
 5755TIP3    H138756   3.037   4.095  11.543 -4.3088  2.3523  0.2401
 5755TIP3    H238757   3.098   4.109  11.681 -0.6218  1.2746 -1.1582
 5756TIP3   OH238758   5.094   0.495   1.388 -0.1209  0.0510  0.1025
 5756TIP3    H138759   5.058   0.518   1.303 -0.1526  0.1807  0.1514
 5756TIP3    H238760   5.185   0.522   1.384  0.4320 -1.7428 -0.6123
 5757TIP3   OH238761   3.044   6.475   3.642 -0.5135 -0.0017 -0.2512
 5757TIP3    H138762   2.967   6.505   3.690 -0.8938  1.3702 -1.6349
 5757TIP3    H238763   3.009   6.438   3.561  0.2905  2.2106 -1.7013
 5758TIP3   OH238764   1.295   0.024  10.849 -0.6768  0.3145  0.2426
 5758TIP3    H138765   1.255  -0.063  10.855 -1.7815  0.8261  0.6887
 5758TIP3    H238766   1.277   0.053  10.760  1.6940 -0.8077 -0.6633
 5759TIP3   OH238767   5.659   1.782  13.259  0.7545  0.6340  0.0693
 5759TIP3    H138768   5.741   1.769  13.307  0.6577 -0.3023 -0.0095
 5759TIP3    H238769   5.684   1.837  13.184  1.1289  1.1047  0.5233
 5760TIP3   OH238770   4.556   6.590   6.383  0.3307  0.4711  0.0979
 5760TIP3    H138771   4.483   6.607   6.323 -2.1820  0.0890  2.8337
 5760TIP3    H238772   4.516   6.546   6.458  3.1878  1.2563  2.2742
 5761TIP3   OH238773   1.180   3.083  12.830  0.4027  0.2964  0.6095
 5761TIP3    H138774   1.261   3.067  12.781  0.4477  0.4417  0.6381
 5761TIP3    H238775   1.198   3.161  12.882  0.1866  0.4228  0.4935
 5762TIP3   OH238776   6.317   0.897   2.131  0.4493  0.3094  0.2148
 5762TIP3    H138777   6.367   0.870   2.055  2.0898  0.3694  1.2200
 5762TIP3    H238778   6.301   0.991   2.118  0.7492  0.3241 -0.0405
 5763TIP3   OH238779   4.650   4.545   2.631 -0.1105  0.1558  0.3103
 5763TIP3    H138780   4.578   4.549   2.694 -0.1658 -1.6605  0.4172
 5763TIP3    H238781   4.727   4.527   2.684  0.1196  0.3220  0.0324
 5764TIP3   OH238782   5.697   6.675  11.247  0.4767  0.2423  0.7524
 5764TIP3    H138783   5.669   6.686  11.156  0.1556  3.8234  1.1501
 5764TIP3    H238784   5.706   6.580  11.258 -1.5923 -0.4567 -2.3452
 5765TIP3   OH238785   2.516   2.318  12.233  0.4700 -0.1061  0.0747
 5765TIP3    H138786   2.494   2.370  12.312  2.0541  2.4307 -1.0234
 5765TIP3    H238787   2.611   2.320  12.229  0.5527 -2.6112 -0.4544
 5766TIP3   OH238788   4.484   5.213  11.960  0.2206  0.7493 -0.1625
 5766TIP3    H138789   4.576   5.234  11.975  0.2267  0.0024  0.9914
 5766TIP3    H238790   4.474   5.216  11.865  1.0971  2.1661 -0.2411
 5767TIP3   OH238791   5.754   6.124  16.903 -0.4036 -0.2740 -0.6461
 5767TIP3    H138792   5.685   6.072  16.861 -0.6650 -0.8685  0.4840
 5767TIP3    H238793   5.750   6.099  16.996  1.0481 -0.0013 -0.4854
 5768TIP3   OH238794   0.228   6.368  13.220  0.5540  0.2756  0.5674
 5768TIP3    H138795   0.160   6.412  13.270 -0.1361  1.0368 -0.9590
 5768TIP3    H238796   0.185   6.292  13.181  1.4943 -1.2782  2.3877
 5769TIP3   OH238797   6.480   6.147  12.293 -0.3358 -0.3074  0.8770
 5769TIP3    H138798   6.516   6.235  12.293  1.1105 -0.8403  2.6814
 5769TIP3    H238799   6.400   6.153  12.346 -0.9649  0.1408 -0.0893
 5770TIP3   OH238800   4.254   2.126  15.894  0.2261 -0.4501 -0.1725
 5770TIP3    H138801   4.163   2.096  15.902  0.5282 -1.2569  0.4014
 5770TIP3    H238802   4.281   2.095  15.807  0.7904 -2.6681  0.7269
 5771TIP3   OH238803   0.796   4.362   3.212 -0.3626 -0.1144 -0.1578
 5771TIP3    H138804   0.858   4.309   3.263 -1.3062 -0.9924  0.1033
 5771TIP3    H238805   0.788   4.316   3.128  2.3899  2.1530 -1.8391
 5772TIP3   OH238806   2.312   2.200   1.099  0.1710 -0.0022  0.0427
 5772TIP3    H138807   2.240   2.150   1.137  1.3531 -1.5989  0.2985
 5772TIP3    H238808   2.371   2.217   1.172 -0.7435  2.9365  0.2353
 5773TIP3   OH238809   1.385   2.302  16.334 -0.6878  0.4071  0.3377
 5773TIP3    H138810   1.480   2.304  16.337 -0.6251  0.7648 -1.1323
 5773TIP3    H238811   1.360   2.242  16.405  0.6761 -0.6683 -0.0399
 5774TIP3   OH238812   4.324   0.051   6.076  0.9575 -0.1075 -0.2323
 5774TIP3    H138813   4.337  -0.044   6.080  2.9493  0.0650 -1.1192
 5774TIP3    H238814   4.356   0.084   6.160 -0.8370 -0.2841  0.5542
 5775TIP3   OH238815   0.882   6.399   4.634 -0.2888  0.0703  0.2855
 5775TIP3    H138816   0.885   6.442   4.548  0.6938 -2.2009 -0.8923
 5775TIP3    H238817   0.790   6.376   4.646 -0.4906  0.7157  0.0095
 5776TIP3   OH238818   1.133   0.808   2.889 -0.3970 -0.0536  0.4975
 5776TIP3    H138819   1.179   0.748   2.948  0.0919 -0.2533 -0.0840
 5776TIP3    H238820   1.196   0.877   2.871 -0.1861 -0.5196 -0.5956
 5777TIP3   OH238821   4.044   5.732   5.889  0.1994  0.0982  0.0533
 5777TIP3    H138822   3.993   5.678   5.828  1.5631 -0.3893 -0.7034
 5777TIP3    H238823   4.012   5.706   5.975  0.1964 -1.3050 -0.3342
 5778TIP3   OH238824   4.907   3.074   2.592  0.3329 -0.5807  0.0142
 5778TIP3    H138825   4.814   3.057   2.608 -0.2957  3.9067  2.6311
 5778TIP3    H238826   4.908   3.120   2.508 -0.0538  0.4620  0.5575
 5779TIP3   OH238827   6.323   0.075  13.270 -0.4808  0.2668  0.1887
 5779TIP3    H138828   6.369   0.145  13.315  0.1163 -0.5816  0.9163
 5779TIP3    H238829   6.241   0.064  13.319 -0.4636  0.2842  0.2209
 5780TIP3   OH238830   3.745   2.489  13.690  0.2582  0.4758  0.9815
 5780TIP3    H138831   3.740   2.433  13.613  0.1915 -0.5802  1.7399
 5780TIP3    H238832   3.815   2.453  13.743  1.1306  1.9236  0.8738
 5781TIP3   OH238833   1.095   3.129   6.652  0.0700 -0.5540  0.1269
 5781TIP3    H138834   1.098   3.139   6.557 -0.8238  0.9741  0.2357
 5781TIP3    H238835   1.027   3.062   6.666 -0.0566 -0.5182 -0.2902
 5782TIP3   OH238836   5.970   3.496   2.982  0.4904  0.2907 -0.5803
 5782TIP3    H138837   5.922   3.542   2.913 -0.0439 -0.7913 -0.9591
 5782TIP3    H238838   6.015   3.425   2.937 -1.2431 -1.5108  0.3593
 5783TIP3   OH238839   6.585   3.148   4.075 -0.3749 -0.5006  0.1364
 5783TIP3    H138840   6.660   3.112   4.028  2.3639  2.6452  1.7029
 5783TIP3    H238841   6.584   3.240   4.052 -1.3574  0.3446  3.1136
 5784TIP3   OH238842   3.667   3.692   3.788  0.5749 -0.6169  0.4825
 5784TIP3    H138843   3.571   3.684   3.785  0.4847  0.6571 -0.8244
 5784TIP3    H238844   3.691   3.726   3.702  2.0948  0.2089  1.2054
 5785TIP3   OH238845   1.000   6.785   0.252  0.2042 -0.1966  0.0203
 5785TIP3    H138846   0.928   6.744   0.204 -0.4968  0.6193  0.3583
 5785TIP3    H238847   0.967   6.872   0.276  1.1826  0.0683  0.4621
 5786TIP3   OH238848   2.964   1.616  16.850  0.2725  0.1400  0.1668
 5786TIP3    H138849   2.957   1.524  16.824  1.5845  0.2934 -0.8123
 5786TIP3    H238850   3.057   1.637  16.840 -0.2396  2.0090 -1.1913
 5787TIP3   OH238851   4.666   0.822  13.092  0.3370  0.2385 -0.2088
 5787TIP3    H138852   4.593   0.847  13.149  0.6691  0.4023  0.1530
 5787TIP3    H238853   4.720   0.764  13.146  1.0971  1.0614 -0.0564
 5788TIP3   OH238854   1.496   2.153   0.786 -0.3673  0.0220  0.2145
 5788TIP3    H138855   1.436   2.093   0.830 -0.9409  0.0074 -0.5634
 5788TIP3    H238856   1.484   2.236   0.831  1.1161 -0.6224  1.9231
 5789TIP3   OH238857   2.024   1.940  14.914  0.4988  0.4484 -0.4689
 5789TIP3    H138858   1.977   1.952  14.997 -0.7369  0.5559 -1.1513
 5789TIP3    H238859   1.974   1.873  14.868  0.7154  0.9466 -1.4448
 5790TIP3   OH238860   1.841   6.409   1.844  0.3595 -0.6312  0.1261
 5790TIP3    H138861   1.850   6.314   1.830  2.8417 -0.7548  1.9838
 5790TIP3    H238862   1.918   6.446   1.801  0.6089  0.3007  1.3439
 5791TIP3   OH238863   4.738   3.657   0.787  0.4988 -0.4843  0.0358
 5791TIP3    H138864   4.827   3.684   0.809  0.3761 -0.1072  0.0643
 5791TIP3    H238865   4.732   3.665   0.692 -0.1712  1.5577  0.2035
 5792TIP3   OH238866   6.750   5.993   4.096 -0.0717  0.6898 -0.4030
 5792TIP3    H138867   6.778   6.082   4.117 -1.1398  1.0647 -0.5155
 5792TIP3    H238868   6.831   5.944   4.087  0.5367  0.9505  2.5813
 5793TIP3   OH238869   4.041   6.345  12.091  0.8922  0.0120 -0.2860
 5793TIP3    H138870   4.003   6.412  12.147  0.1147 -0.9756  0.4079
 5793TIP3    H238871   4.117   6.387  12.050  0.8681  1.0647  0.7209
 5794TIP3   OH238872   5.040   2.208  15.167  0.7057  0.2679  0.2102
 5794TIP3    H138873   5.070   2.136  15.223  0.8994  1.1366  1.2399
 5794TIP3    H238874   4.972   2.251  15.218 -0.5387 -0.1411 -1.0686
 5795TIP3   OH238875   0.244   2.425   5.996 -0.0946 -0.1200 -0.1873
 5795TIP3    H138876   0.181   2.381   6.055  0.0063  0.3593  0.2873
 5795TIP3    H238877   0.212   2.515   5.990  1.3256  0.5372  1.2342
 5796TIP3   OH238878   2.131   5.951  15.149 -0.1696 -0.2601 -0.0881
 5796TIP3    H138879   2.114   5.862  15.116 -0.7176  0.6830 -2.5452
 5796TIP3    H238880   2.226   5.953  15.163 -0.3837 -1.8242  2.0133
 5797TIP3   OH238881   1.251   0.679   1.272  0.0085  0.6079 -0.5674
 5797TIP3    H138882   1.237   0.737   1.347 -0.4648 -0.1362 -0.0681
 5797TIP3    H238883   1.290   0.736   1.205  0.4071  1.2934  0.2201
 5798TIP3   OH238884   2.297   6.169  10.868 -0.1139 -0.7285 -0.1828
 5798TIP3    H138885   2.374   6.226  10.878  0.5860 -1.5459 -0.7864
 5798TIP3    H238886   2.226   6.218  10.910  1.1809 -0.9645  2.5386
 5799TIP3   OH238887   5.547   0.057   3.951 -0.5237 -0.5594  0.1151
 5799TIP3    H138888   5.556   0.011   3.868 -0.5009  0.0519 -0.2262
 5799TIP3    H238889   5.551  -0.012   4.017  4.9017 -0.7805  0.0273
 5800TIP3   OH238890   5.561   6.042  16.563 -0.6961  0.7158 -0.1347
 5800TIP3    H138891   5.599   6.130  16.570  0.3555  0.3758 -1.1240
 5800TIP3    H238892   5.583   6.000  16.646  0.9813  0.6011 -0.6018
 5801TIP3   OH238893   5.118   3.424   1.854 -0.5103 -0.2841  0.2913
 5801TIP3    H138894   5.073   3.340   1.848 -2.1444  0.6054 -0.5215
 5801TIP3    H238895   5.151   3.440   1.765 -0.7230  0.1768  0.2887
 5802TIP3   OH238896   6.351   1.676   3.805 -0.3772  0.1065  0.2566
 5802TIP3    H138897   6.283   1.621   3.766  0.6017 -1.5201  0.7343
 5802TIP3    H238898   6.365   1.746   3.741 -1.9988  0.1116 -0.1519
 5803TIP3   OH238899   2.906   3.241  15.712 -0.1088  0.3226 -0.5173
 5803TIP3    H138900   2.926   3.150  15.735 -0.4237  0.3448 -0.1502
 5803TIP3    H238901   2.825   3.261  15.759  0.1188  0.8885 -0.3543
 5804TIP3   OH238902   3.425   6.628  11.873  0.0026  0.0589 -0.0112
 5804TIP3    H138903   3.364   6.681  11.821 -0.8823 -0.8919  0.0343
 5804TIP3    H238904   3.463   6.690  11.936  0.2963  0.9976 -1.0867
 5805TIP3   OH238905   5.909   4.535   1.179 -0.4715 -0.3892  0.0540
 5805TIP3    H138906   5.864   4.508   1.100  0.9938 -0.7921 -0.6788
 5805TIP3    H238907   5.918   4.455   1.231 -1.5913 -0.0928  0.7390
 5806TIP3   OH238908   4.498   3.751   5.985  0.6799 -0.5442 -0.0492
 5806TIP3    H138909   4.471   3.663   5.960  1.4049 -0.5458 -0.8759
 5806TIP3    H238910   4.476   3.758   6.078  1.6042 -1.9632  0.2938
 5807TIP3   OH238911   5.811   0.907   0.110  0.2011 -0.4809  0.3995
 5807TIP3    H138912   5.788   0.937   0.022  0.9500  0.6761  0.5868
 5807TIP3    H238913   5.760   0.963   0.168  0.9603 -0.1326  0.7361
 5808TIP3   OH238914   5.506   5.115   0.330 -0.1835  1.1124 -0.1889
 5808TIP3    H138915   5.542   5.033   0.295 -0.4496 -0.6403  3.1570
 5808TIP3    H238916   5.580   5.175   0.329  0.7302  0.0297 -0.4597
 5809TIP3   OH238917   1.870   5.074   4.121  0.0127 -0.2152 -0.3608
 5809TIP3    H138918   1.799   5.040   4.066 -1.7961  2.8692 -0.1568
 5809TIP3    H238919   1.946   5.076   4.063 -1.1427  0.2903 -1.9183
 5810TIP3   OH238920   1.834   2.135   5.944  0.3059 -0.5314 -0.7442
 5810TIP3    H138921   1.888   2.081   5.888  0.8622 -0.9846  0.1972
 5810TIP3    H238922   1.760   2.161   5.889  1.6029  0.3469 -2.1471
 5811TIP3   OH238923   0.481   3.784   4.094  0.9163  0.3951  0.1076
 5811TIP3    H138924   0.447   3.848   4.156  0.4246 -0.0281  0.2782
 5811TIP3    H238925   0.503   3.708   4.147 -3.0250 -1.4614 -0.5659
 5812TIP3   OH238926   5.258   4.654  11.644 -0.3475 -0.3810 -0.6459
 5812TIP3    H138927   5.347   4.668  11.612  0.2499 -0.2177  1.0078
 5812TIP3    H238928   5.243   4.560  11.630 -0.6944 -0.0757 -2.7202
 5813TIP3   OH238929   1.915   2.425   6.223 -0.2426 -0.0806  0.0331
 5813TIP3    H138930   1.845   2.485   6.195  0.4555  1.7710  1.9404
 5813TIP3    H238931   1.886   2.393   6.308 -0.1978 -1.8931 -0.5833
 5814TIP3   OH238932   4.700   1.140  16.390  0.2956 -0.3296 -0.2893
 5814TIP3    H138933   4.662   1.205  16.450 -0.4802 -1.2700  0.2720
 5814TIP3    H238934   4.655   1.058  16.413 -0.8308 -0.5223 -2.8800
 5815TIP3   OH238935   6.206   3.482   4.672 -0.3891 -0.4237  0.3108
 5815TIP3    H138936   6.280   3.456   4.727 -1.0111  2.4238  2.7258
 5815TIP3    H238937   6.133   3.427   4.702 -0.2855 -0.1242  1.1381
 5816TIP3   OH238938   5.667   3.410  11.427 -0.2410  0.7899 -0.2094
 5816TIP3    H138939   5.606   3.340  11.452 -0.2181  1.0083  0.5004
 5816TIP3    H238940   5.750   3.385  11.470 -0.1090  1.0089 -0.3354
 5817TIP3   OH238941   2.760   1.279  12.473 -0.6237  0.1466 -0.1974
 5817TIP3    H138942   2.778   1.349  12.411 -3.7024  0.4380 -0.9545
 5817TIP3    H238943   2.768   1.320  12.559  1.4275  0.3309 -0.4296
 5818TIP3   OH238944   2.735   5.183  16.585 -0.0068 -0.5277 -0.0166
 5818TIP3    H138945   2.640   5.180  16.574 -0.0306 -0.0260  0.0472
 5818TIP3    H238946   2.769   5.132  16.512 -0.3348 -0.9928  0.1520
 5819TIP3   OH238947   5.712   2.181   4.951 -0.0279 -0.1777 -0.5797
 5819TIP3    H138948   5.800   2.194   4.987  0.0042  1.2286 -1.1077
 5819TIP3    H238949   5.654   2.182   5.027  0.4189 -1.4318 -0.1964
 5820TIP3   OH238950   6.780   2.440   5.816  0.1759  0.3318 -0.0743
 5820TIP3    H138951   6.790   2.534   5.804 -2.3074  0.7147  0.3800
 5820TIP3    H238952   6.709   2.431   5.880 -1.1010 -1.8571 -1.6640
 5821TIP3   OH238953   0.067   3.056  15.596  0.7580 -0.0177 -0.1664
 5821TIP3    H138954  -0.027   3.037  15.595  0.8392 -0.4431 -0.9677
 5821TIP3    H238955   0.084   3.093  15.509  1.7041 -1.9126 -0.8334
 5822TIP3   OH238956   1.670   1.605  11.561  0.3936 -0.2202  0.2144
 5822TIP3    H138957   1.712   1.609  11.475 -2.7350  0.5281 -1.4305
 5822TIP3    H238958   1.591   1.658  11.552 -1.1234 -1.7774  2.9371
 5823TIP3   OH238959   3.797   4.026  12.815  0.2725  0.1424 -0.6215
 5823TIP3    H138960   3.777   3.966  12.742  1.0522 -1.0733  0.1290
 5823TIP3    H238961   3.728   4.091  12.812 -0.6301 -0.8155 -1.4625
 5824TIP3   OH238962   3.659   4.552   6.370 -0.2274  0.2220 -1.0536
 5824TIP3    H138963   3.697   4.517   6.451  1.2832 -2.0114 -2.6359
 5824TIP3    H238964   3.687   4.644   6.369  1.6589 -0.2984 -0.1197
 5825TIP3   OH238965   0.475   3.537   3.207  0.1574 -0.3694 -0.3068
 5825TIP3    H138966   0.441   3.626   3.199  0.1323 -0.5119 -2.6006
 5825TIP3    H238967   0.570   3.546   3.202  0.4708 -0.2148  3.3660
 5826TIP3   OH238968   5.771   4.790  11.807  0.2182  0.5848  0.1544
 5826TIP3    H138969   5.709   4.814  11.738  1.5698  1.4251 -0.8297
 5826TIP3    H238970   5.752   4.698  11.825 -0.8085  0.6151 -0.6505
 5827TIP3   OH238971   6.207   6.380  11.238 -0.2110  0.2308 -0.7124
 5827TIP3    H138972   6.112   6.382  11.251 -0.2532 -1.7463 -0.4015
 5827TIP3    H238973   6.236   6.303  11.288  1.3971  0.0908 -1.8006
 5828TIP3   OH238974   4.740   4.498  15.553  0.0415  0.3323 -0.1468
 5828TIP3    H138975   4.730   4.425  15.492 -0.1890  0.6787 -0.5257
 5828TIP3    H238976   4.666   4.490  15.613  0.6027 -0.3655  0.4723
 5829TIP3   OH238977   3.575   0.892   2.101  0.1950 -0.5555  0.2518
 5829TIP3    H138978   3.548   0.802   2.118  1.2249 -0.9740 -0.2307
 5829TIP3    H238979   3.520   0.920   2.027 -0.8380 -0.4178  1.0503
 5830TIP3   OH238980   6.337   1.323   0.576 -0.0033 -0.0951 -0.5373
 5830TIP3    H138981   6.378   1.242   0.547  1.5843  0.4536  0.0969
 5830TIP3    H238982   6.359   1.330   0.669  1.3409  1.8581 -0.9346
 5831TIP3   OH238983   4.685   5.418  16.852  0.2721  0.0178  0.3560
 5831TIP3    H138984   4.611   5.478  16.850  1.5115  1.6896  1.6524
 5831TIP3    H238985   4.750   5.457  16.793  0.3683 -1.1164 -0.3221
 5832TIP3   OH238986   1.020   6.034   1.401 -0.7923  0.0267 -0.4973
 5832TIP3    H138987   1.066   5.952   1.383  0.1874  0.3344  0.5371
 5832TIP3    H238988   1.073   6.102   1.360 -1.1148  0.2447 -0.5640
 5833TIP3   OH238989   6.370   1.519  16.473 -0.1215  0.5481 -0.2366
 5833TIP3    H138990   6.277   1.541  16.484  0.4197  2.5231  0.8265
 5833TIP3    H238991   6.417   1.591  16.516  1.9043 -0.7366 -0.1704
 5834TIP3   OH238992   0.036   2.297   6.142 -0.3267  0.5528  0.2106
 5834TIP3    H138993  -0.015   2.218   6.122 -0.5532  0.9997 -1.0456
 5834TIP3    H238994  -0.030   2.362   6.168 -0.0546  0.0381  2.3787
 5835TIP3   OH238995   2.509   3.701  12.226 -0.4951  0.0269 -0.8345
 5835TIP3    H138996   2.425   3.741  12.246 -0.8638 -1.1849  0.1679
 5835TIP3    H238997   2.572   3.772  12.233 -1.0398  0.3595  1.5598
 5836TIP3   OH238998   4.818   5.460   2.476 -0.5271 -0.3748 -0.5002
 5836TIP3    H138999   4.858   5.378   2.506 -0.0775 -0.2381 -0.7286
 5836TIP3    H239000   4.726   5.438   2.464 -0.4727 -0.7599 -0.2376
 5837TIP3   OH239001   2.780   2.929  13.090 -0.0610 -0.2328 -0.6340
 5837TIP3    H139002   2.841   2.987  13.044  2.0109  1.0441  3.3142
 5837TIP3    H239003   2.699   2.981  13.097  0.3941  0.5038 -0.7305
 5838TIP3   OH239004   3.385   2.163   4.475 -0.1757 -0.1720  0.4337
 5838TIP3    H139005   3.335   2.127   4.402 -2.0317  0.5644  1.2762
 5838TIP3    H239006   3.473   2.177   4.440 -0.3754 -2.0126 -0.9560
 5839TIP3   OH239007   5.495   3.503   1.493 -0.4446  0.6845  0.6286
 5839TIP3    H139008   5.527   3.574   1.549  0.0603 -0.7128  2.2079
 5839TIP3    H239009   5.446   3.547   1.424  0.7511  2.6218  0.9329
 5840TIP3   OH239010   0.648   0.399   1.432  0.3593 -0.2563  0.1921
 5840TIP3    H139011   0.566   0.450   1.432  0.8591  0.5760  0.7036
 5840TIP3    H239012   0.660   0.373   1.341 -0.3386 -0.1521  0.0641
 5841TIP3   OH239013   4.761   0.864  11.566 -0.1327  0.0658  0.1553
 5841TIP3    H139014   4.787   0.791  11.511  0.5819  1.1223 -0.9777
 5841TIP3    H239015   4.763   0.829  11.655 -0.0672 -1.3415 -0.3782
 5842TIP3   OH239016   5.267   4.101   3.140 -0.1902 -0.4469  0.0929
 5842TIP3    H139017   5.219   4.123   3.060 -0.4914 -0.2943  0.3153
 5842TIP3    H239018   5.347   4.059   3.108  0.2157  0.5906 -0.3385
 5843TIP3   OH239019   1.312   1.353   4.932 -0.2517  0.7771 -0.3821
 5843TIP3    H139020   1.338   1.346   5.024 -2.1068  1.0628  0.2077
 5843TIP3    H239021   1.305   1.447   4.916 -0.3685  0.7165 -0.6967
 5844TIP3   OH239022   6.665   4.194   2.775  0.3628 -0.0221 -0.0703
 5844TIP3    H139023   6.714   4.115   2.801  1.9410  0.7961 -0.4091
 5844TIP3    H239024   6.690   4.208   2.684  3.2761  2.9806  0.9712
 5845TIP3   OH239025   4.629   2.414  12.305  0.2285  0.0051 -0.1438
 5845TIP3    H139026   4.635   2.508  12.286 -0.1319  0.1046  0.2355
 5845TIP3    H239027   4.561   2.382  12.246 -0.4951  0.2099  0.5659
 5846TIP3   OH239028   6.187   5.249   3.267 -0.5651 -0.3754 -0.3571
 5846TIP3    H139029   6.216   5.336   3.238  2.0133 -1.1989 -0.4120
 5846TIP3    H239030   6.092   5.250   3.250 -0.3632  1.8476 -1.8411
 5847TIP3   OH239031   0.442   5.003  11.640  0.5334 -0.0852  0.0738
 5847TIP3    H139032   0.370   5.010  11.703 -2.1577 -2.2704 -2.4431
 5847TIP3    H239033   0.506   4.945  11.683 -0.3641 -0.1014  1.4453
 5848TIP3   OH239034   1.976   2.889   5.921 -0.2932  0.1335  0.5186
 5848TIP3    H139035   1.990   2.828   5.848 -1.3636 -1.0123  1.2467
 5848TIP3    H239036   1.968   2.974   5.879  3.1664  0.1574 -0.4028
 5849TIP3   OH239037   1.945   6.733  11.523 -0.1798 -0.8367  0.1935
 5849TIP3    H139038   1.863   6.698  11.556  0.4630 -1.8369  0.7804
 5849TIP3    H239039   1.956   6.816  11.570 -1.0698 -0.4600 -0.2392
 5850TIP3   OH239040   0.990   2.970  12.338  0.6269 -0.3425 -0.1744
 5850TIP3    H139041   0.981   2.942  12.247  0.4336  0.7851 -0.5216
 5850TIP3    H239042   0.985   2.889  12.389  1.1305 -1.0303 -1.1827
 5851TIP3   OH239043   4.867   5.879   5.533 -0.7161 -0.3496  0.2486
 5851TIP3    H139044   4.791   5.937   5.541 -1.0184 -0.7051 -0.0515
 5851TIP3    H239045   4.937   5.926   5.578 -0.7304  0.6434 -0.7206
 5852TIP3   OH239046   2.340   6.360  12.348  0.5008 -0.2733 -0.1745
 5852TIP3    H139047   2.413   6.303  12.326  0.0296 -0.7397 -0.5479
 5852TIP3    H239048   2.266   6.301  12.360  0.0884  0.2250 -0.2184
 5853TIP3   OH239049   2.500   0.724  16.086  0.0067 -0.0542 -0.0305
 5853TIP3    H139050   2.436   0.724  16.157 -0.7509 -0.0812 -0.6920
 5853TIP3    H239051   2.494   0.812  16.048  2.0046  0.7111  1.3079
 5854TIP3   OH239052   1.664   5.178  11.416  0.0757  0.5191  0.4223
 5854TIP3    H139053   1.727   5.244  11.387 -0.6328  1.3014  0.5946
 5854TIP3    H239054   1.633   5.211  11.500 -1.0046  0.4808  0.0538
 5855TIP3   OH239055   1.586   4.221   1.115 -0.0122  0.2241 -0.2315
 5855TIP3    H139056   1.531   4.163   1.167  1.7152 -0.1035  1.3685
 5855TIP3    H239057   1.674   4.210   1.152  0.9534  1.4686 -1.9913
 5856TIP3   OH239058   4.069   4.056   3.893 -0.8830 -0.1251 -0.7565
 5856TIP3    H139059   4.069   4.064   3.989 -0.8236 -1.8475 -0.5847
 5856TIP3    H239060   3.977   4.045   3.871 -0.8297 -0.4393 -0.8234
 5857TIP3   OH239061   3.585   2.613  13.881 -0.2700  0.6155  0.4428
 5857TIP3    H139062   3.624   2.562  13.809 -2.8231 -1.0257  0.0685
 5857TIP3    H239063   3.654   2.619  13.947  1.8057  1.2175 -1.6517
 5858TIP3   OH239064   0.974   5.723  13.565 -0.0559  0.4521  0.5425
 5858TIP3    H139065   1.040   5.664  13.602  1.5975  1.2043 -1.0700
 5858TIP3    H239066   0.982   5.712  13.471  0.8198  3.7232  0.1333
 5859TIP3   OH239067   3.056   0.608   3.318  0.5032 -0.5741  0.2434
 5859TIP3    H139068   3.070   0.642   3.407  0.1574  0.2743 -0.0213
 5859TIP3    H239069   3.078   0.515   3.325 -1.1776 -0.9164  1.6466
 5860TIP3   OH239070   3.480   3.632   2.098  0.0723  0.1236 -0.2209
 5860TIP3    H139071   3.398   3.585   2.114  0.2314 -0.1777 -0.2766
 5860TIP3    H239072   3.499   3.616   2.005 -1.4167  2.7468 -1.0947
 5861TIP3   OH239073   1.160   0.593  13.950 -0.1134 -0.5522 -0.8267
 5861TIP3    H139074   1.201   0.599  13.863  1.5778 -2.1691 -0.2096
 5861TIP3    H239075   1.081   0.541  13.936 -1.0916  1.1127 -1.7448
 5862TIP3   OH239076   2.951   4.185   4.112 -0.0377  0.0118 -0.3047
 5862TIP3    H139077   2.873   4.207   4.061 -0.8616  0.7611  1.2051
 5862TIP3    H239078   3.022   4.231   4.067 -0.5290 -0.2707 -1.4168
 5863TIP3   OH239079   2.056   4.638  13.661  0.3311  0.1066 -0.2718
 5863TIP3    H139080   2.148   4.663  13.660  0.0526  1.2775 -2.5112
 5863TIP3    H239081   2.008   4.721  13.662 -0.6589 -0.4114 -1.6574
 5864TIP3   OH239082   1.925   2.216  11.608  0.1636  0.4964 -0.5892
 5864TIP3    H139083   1.947   2.302  11.571  1.5599  0.7158  0.6381
 5864TIP3    H239084   1.977   2.211  11.689 -1.4447 -0.6563  0.4374
 5865TIP3   OH239085   2.477   0.264   1.383 -0.5197  0.3233 -0.1380
 5865TIP3    H139086   2.492   0.238   1.292  0.5488  1.5353 -0.3314
 5865TIP3    H239087   2.410   0.332   1.377 -0.4962  0.3573 -0.0105
 5866TIP3   OH239088   2.122   5.791   5.860 -0.0868  0.2505 -0.3145
 5866TIP3    H139089   2.094   5.834   5.779 -0.3640 -1.1332 -0.9900
 5866TIP3    H239090   2.042   5.782   5.911 -0.0749  0.3183 -0.2841
 5867TIP3   OH239091   1.539   3.284   2.275 -0.0177  0.6631 -0.7275
 5867TIP3    H139092   1.530   3.189   2.287  0.3796  0.8464  1.3011
 5867TIP3    H239093   1.610   3.293   2.212  0.4322 -0.3730 -0.3927
 5868TIP3   OH239094   1.721   5.444   5.556 -0.0789 -0.6371  0.3375
 5868TIP3    H139095   1.785   5.492   5.609  2.1023 -2.4800 -0.4871
 5868TIP3    H239096   1.662   5.403   5.619  0.9921 -0.8272  1.2223
 5869TIP3   OH239097   6.081   3.535  14.393  0.2269  0.0661  0.4862
 5869TIP3    H139098   6.028   3.456  14.400  0.0803 -0.0890 -1.7481
 5869TIP3    H239099   6.131   3.536  14.475 -0.1523 -2.0399  0.8260
 5870TIP3   OH239100   3.187   5.130   2.811  0.5327 -0.1652 -0.0803
 5870TIP3    H139101   3.125   5.147   2.739  1.6445  2.2248 -0.5764
 5870TIP3    H239102   3.136   5.081   2.875 -0.7951 -1.4992 -2.0511
 5871TIP3   OH239103   1.543   5.655   3.898  0.8558  0.7661 -0.0230
 5871TIP3    H139104   1.548   5.632   3.991 -1.9093 -0.9819 -0.1960
 5871TIP3    H239105   1.580   5.579   3.853  2.4543  1.7280 -0.4058
 5872TIP3   OH239106   3.897   1.457  11.715 -0.1319  0.3460 -0.1698
 5872TIP3    H139107   3.952   1.408  11.776  0.1993  0.8399 -0.0628
 5872TIP3    H239108   3.864   1.531  11.767 -1.4774 -0.3307 -0.0314
 5873TIP3   OH239109   3.082   3.307   1.505 -0.1539  0.1758  0.3135
 5873TIP3    H139110   3.161   3.283   1.553 -0.7264  0.4419  1.4288
 5873TIP3    H239111   3.058   3.228   1.458  0.4015 -0.1101  0.5024
 5874TIP3   OH239112   1.154   1.695  11.249  0.1757 -0.0645  0.0180
 5874TIP3    H139113   1.241   1.678  11.213  0.9917  1.4644  1.1736
 5874TIP3    H239114   1.164   1.776  11.298 -1.4538 -0.8714  1.7777
 5875TIP3   OH239115   2.268   2.156  16.581 -0.2696 -0.3986  0.2256
 5875TIP3    H139116   2.331   2.087  16.605  0.8948  0.6513  0.3218
 5875TIP3    H239117   2.238   2.191  16.665  0.1930  0.1178  0.1808
 5876TIP3   OH239118   1.566   6.472   3.664  0.1061 -0.1765  0.8380
 5876TIP3    H139119   1.573   6.442   3.755  0.8397  2.3661  1.7105
 5876TIP3    H239120   1.544   6.565   3.671  0.1123  0.0736 -1.5977
 5877TIP3   OH239121   4.108   5.594   5.120 -0.4724  0.2385  0.1198
 5877TIP3    H139122   4.186   5.650   5.118 -0.5734  0.3647 -0.4645
 5877TIP3    H239123   4.142   5.506   5.105 -0.3959  0.2345  0.3103
 5878TIP3   OH239124   2.663   1.160   3.377 -0.3513  0.1790 -0.1318
 5878TIP3    H139125   2.674   1.073   3.416  1.2242  0.0642 -0.7311
 5878TIP3    H239126   2.607   1.207   3.439  0.8779 -0.4413  1.5484
 5879TIP3   OH239127   3.658   5.712   4.500 -0.3402  0.7960  0.0223
 5879TIP3    H139128   3.678   5.729   4.592 -1.9742  0.6228  0.4381
 5879TIP3    H239129   3.619   5.794   4.468  0.4711  0.9513 -0.6057
 5880TIP3   OH239130   2.302   6.075  17.242  0.2196  0.3996  0.1349
 5880TIP3    H139131   2.245   6.000  17.259  1.0303 -0.3655 -0.4418
 5880TIP3    H239132   2.286   6.097  17.150 -1.0428  1.8452  0.6567
 5881TIP3   OH239133   1.002   2.439   5.025 -0.4874 -0.0615  0.3009
 5881TIP3    H139134   1.085   2.392   5.036 -0.7607 -0.1595  2.2710
 5881TIP3    H239135   1.018   2.525   5.062 -1.4983 -0.3929  1.6154
 5882TIP3   OH239136   4.530   0.149  16.038  0.5093  0.4646  0.0806
 5882TIP3    H139137   4.521   0.117  16.127  1.8732  0.3221  0.1749
 5882TIP3    H239138   4.492   0.237  16.040 -0.5763  0.0062  0.4925
 5883TIP3   OH239139   0.588   2.093   5.918  0.0559  0.2094  0.4265
 5883TIP3    H139140   0.497   2.118   5.902 -0.2890 -1.2149  0.0839
 5883TIP3    H239141   0.604   2.118   6.009 -0.4373  1.1202  0.2792
 5884TIP3   OH239142   1.800   4.477   2.515  0.1827  0.0753  0.1023
 5884TIP3    H139143   1.847   4.551   2.476 -1.3647  0.9027 -0.2484
 5884TIP3    H239144   1.717   4.513   2.543  0.2100 -1.0981  1.8325
 5885TIP3   OH239145   4.922   3.111   3.759 -0.2375 -0.9391  0.0467
 5885TIP3    H139146   4.991   3.077   3.815  0.2798 -0.9467 -0.5802
 5885TIP3    H239147   4.854   3.044   3.761 -0.4423 -0.7176  1.0454
 5886TIP3   OH239148   6.480   2.560  11.392 -0.5813  0.3761  0.1718
 5886TIP3    H139149   6.567   2.535  11.361 -0.8019  2.3479 -2.3245
 5886TIP3    H239150   6.422   2.493  11.356 -0.3899  0.6113 -0.6027
 5887TIP3   OH239151   6.311   1.343   3.889 -0.0667 -0.0533  0.1332
 5887TIP3    H139152   6.373   1.274   3.915 -1.0066 -0.6295  0.9169
 5887TIP3    H239153   6.268   1.309   3.811  0.6184  0.3797 -0.4565
 5888TIP3   OH239154   4.583   3.732  15.136 -0.0629 -0.1026  0.3030
 5888TIP3    H139155   4.657   3.673  15.156  0.8710  0.5881 -0.9659
 5888TIP3    H239156   4.508   3.674  15.128  0.0367 -0.7157  2.8379
 5889TIP3   OH239157   0.149   6.228  11.627  0.0453 -0.1131 -0.2090
 5889TIP3    H139158   0.104   6.151  11.661 -0.8228  0.6263  0.3692
 5889TIP3    H239159   0.101   6.302  11.664  1.9591  0.7359  0.7178
 5890TIP3   OH239160   2.965   5.717   4.347 -0.0814 -1.1204 -0.0259
 5890TIP3    H139161   3.033   5.771   4.307  0.0744 -0.2066  1.4077
 5890TIP3    H239162   3.010   5.666   4.414 -0.3544 -2.5858 -0.9050
 5891TIP3   OH239163   5.228   0.475  15.482  0.5574 -0.6733 -0.6177
 5891TIP3    H139164   5.211   0.381  15.491  0.5123 -0.5860  0.2927
 5891TIP3    H239165   5.320   0.486  15.506  0.1531 -0.2888  0.8676
 5892TIP3   OH239166   5.081   3.068  14.712  0.0100  0.2129  0.2475
 5892TIP3    H139167   5.133   2.987  14.712  0.9702  0.8105  0.2326
 5892TIP3    H239168   5.118   3.120  14.641  0.2046  1.1527  1.0170
 5893TIP3   OH239169   2.355   4.610   1.122  0.2609  0.3194  0.4363
 5893TIP3    H139170   2.316   4.549   1.059  0.6086  1.1584 -0.6232
 5893TIP3    H239171   2.449   4.592   1.118  0.4563  1.4422 -0.4813
 5894TIP3   OH239172   1.750   5.592   1.611  0.2020  0.5743  0.4104
 5894TIP3    H139173   1.735   5.550   1.696  0.6748 -0.0443  0.1996
 5894TIP3    H239174   1.669   5.637   1.592  0.0767  0.6846  1.1767
 5895TIP3   OH239175   5.439   6.419   0.581 -0.2860  0.0997 -0.3371
 5895TIP3    H139176   5.417   6.332   0.549 -0.5449  1.0843 -3.1202
 5895TIP3    H239177   5.533   6.427   0.566 -0.2461  0.2785 -0.0012
 5896TIP3   OH239178   3.019   4.083  12.096  0.0891  0.1384 -0.2111
 5896TIP3    H139179   2.946   4.078  12.158 -1.0481 -0.3672 -1.5412
 5896TIP3    H239180   3.011   4.170  12.056  1.1417  0.6766  0.7022
 5897TIP3   OH239181   4.619   5.875  10.244  0.0519 -0.3770 -0.0296
 5897TIP3    H139182   4.714   5.862  10.249  0.2245  0.2384 -1.1707
 5897TIP3    H239183   4.609   5.953  10.189 -1.1223 -0.5052 -0.0229
 5898TIP3   OH239184   2.676   3.723  15.274  0.4365 -0.5173 -0.1785
 5898TIP3    H139185   2.663   3.717  15.369  1.8546  1.1252  0.1708
 5898TIP3    H239186   2.759   3.678  15.258  0.6191 -0.0701 -0.5132
 5899TIP3   OH239187   0.368   3.179  14.559  0.3218 -0.2503 -0.6504
 5899TIP3    H139188   0.364   3.084  14.572 -0.7539 -0.0131  1.1108
 5899TIP3    H239189   0.461   3.197  14.545  0.9716 -1.3119  1.7117
 5900TIP3   OH239190   1.691   2.446   2.015 -0.6964  0.0190 -0.2529
 5900TIP3    H139191   1.650   2.524   2.050  1.6016  1.4863 -0.6123
 5900TIP3    H239192   1.623   2.405   1.961 -2.4500  0.8517  1.2405
 5901TIP3   OH239193   5.272   1.016  12.212 -0.7474 -0.3742 -0.1106
 5901TIP3    H139194   5.285   1.055  12.125 -0.0901 -0.2252  0.0471
 5901TIP3    H239195   5.192   0.965  12.204 -1.6773  1.0612 -0.3099
 5902TIP3   OH239196   2.966   1.918  16.378  0.0911  0.2759  0.2311
 5902TIP3    H139197   2.959   1.824  16.365 -0.8914  0.2064  1.1656
 5902TIP3    H239198   3.009   1.927  16.463 -0.8643  0.6464  0.6921
 5903TIP3   OH239199   5.521   0.823   0.628  0.1524 -0.0705 -0.3279
 5903TIP3    H139200   5.456   0.790   0.566  0.3384 -0.2916 -0.4075
 5903TIP3    H239201   5.477   0.823   0.712  0.4082 -1.3280 -0.1762
 5904TIP3   OH239202   6.610   0.567  11.918 -0.5422  0.3243 -0.1762
 5904TIP3    H139203   6.620   0.615  11.835  0.5833 -0.9097 -0.7881
 5904TIP3    H239204   6.696   0.528  11.934 -1.3865 -1.4236  0.3377
 5905TIP3   OH239205   2.421   1.796   2.871  0.0670 -0.1146 -0.2230
 5905TIP3    H139206   2.472   1.852   2.930  0.3039  0.8650 -1.3059
 5905TIP3    H239207   2.440   1.707   2.900  1.3125  0.2896  0.2730
 5906TIP3   OH239208   6.682   2.785  11.009 -0.7290  0.2744 -0.4904
 5906TIP3    H139209   6.620   2.858  11.016 -0.9125 -0.0015  1.2597
 5906TIP3    H239210   6.746   2.814  10.944 -0.8384  1.9980  0.1098
 5907TIP3   OH239211   2.556   1.353   6.138  0.3766  0.0249 -0.2045
 5907TIP3    H139212   2.468   1.320   6.153  0.6798 -0.4749  0.4994
 5907TIP3    H239213   2.543   1.438   6.095 -0.4516  0.2075  0.3904
 5908TIP3   OH239214   3.681   1.812  13.971  0.0738 -0.2105  0.0704
 5908TIP3    H139215   3.710   1.763  13.894 -2.2783  0.0668 -1.0668
 5908TIP3    H239216   3.591   1.838  13.951 -0.8435 -0.6063  3.1408
 5909TIP3   OH239217   1.039   6.002  17.167 -0.1350  0.8330 -0.3384
 5909TIP3    H139218   1.023   5.920  17.214 -0.8303  1.2520  0.1776
 5909TIP3    H239219   0.970   6.006  17.101 -0.9044  1.6144  0.4848
 5910TIP3   OH239220   1.967   0.227   2.609 -0.2013  0.5611  0.2355
 5910TIP3    H139221   1.978   0.284   2.533 -2.1215  0.8371  0.0956
 5910TIP3    H239222   2.003   0.276   2.682 -0.0950  1.1344 -0.1951
 5911TIP3   OH239223   1.617   1.747   2.039 -0.7594  0.5488  0.0221
 5911TIP3    H139224   1.594   1.674   2.097  2.6083  0.1159  1.0405
 5911TIP3    H239225   1.589   1.825   2.088 -0.4797  0.0769  0.9668
 5912TIP3   OH239226   0.880   4.467   0.749 -0.5923 -0.4903 -0.7971
 5912TIP3    H139227   0.844   4.555   0.747  1.7676  0.5701 -3.0591
 5912TIP3    H239228   0.893   4.448   0.842 -1.5941  1.3338 -0.2480
 5913TIP3   OH239229   5.785   3.829   3.160 -0.2028 -0.0957 -0.3591
 5913TIP3    H139230   5.736   3.751   3.132 -0.8937  0.1002  0.2780
 5913TIP3    H239231   5.876   3.806   3.143 -0.1953 -1.8670  1.6576
 5914TIP3   OH239232   0.743   4.722  16.139 -0.4706  0.8141 -0.1305
 5914TIP3    H139233   0.771   4.630  16.140  1.1801  1.1327 -3.6952
 5914TIP3    H239234   0.647   4.718  16.141 -0.4265 -0.9918 -0.3238
 5915TIP3   OH239235   3.396   4.463  13.910  0.4864  0.5843 -0.0330
 5915TIP3    H139236   3.445   4.475  13.828  0.4085  0.5897 -0.0788
 5915TIP3    H239237   3.463   4.442  13.975  0.6605  1.4953  0.0984
 5916TIP3   OH239238   4.283   3.982   5.727  0.3970 -0.1105  0.2498
 5916TIP3    H139239   4.353   3.986   5.793  0.8503  1.9347 -0.2742
 5916TIP3    H239240   4.238   3.900   5.745  2.5782 -1.2427  0.9731
 5917TIP3   OH239241   5.099   5.675   4.616  0.4506  0.2018 -0.1958
 5917TIP3    H139242   5.082   5.582   4.630  0.1058  0.2978  0.0371
 5917TIP3    H239243   5.078   5.689   4.524  1.1727 -0.0931 -0.4125
 5918TIP3   OH239244   3.949   3.522   3.006 -0.3461 -0.1182 -0.6776
 5918TIP3    H139245   3.886   3.487   3.069  1.1191  0.2062  1.0532
 5918TIP3    H239246   3.917   3.610   2.986 -0.7870 -0.1974 -0.3325
 5919TIP3   OH239247   0.039   6.806   0.686 -0.2940  0.6937  0.4344
 5919TIP3    H139248  -0.025   6.834   0.751  1.3402  1.8723  1.6405
 5919TIP3    H239249   0.070   6.888   0.646 -0.3378  0.0679 -0.9496
 5920TIP3   OH239250   0.964   0.341   5.196  0.2638 -0.0355  0.2708
 5920TIP3    H139251   0.979   0.314   5.286 -1.2331  0.4567  0.7043
 5920TIP3    H239252   0.966   0.436   5.199  0.4422 -0.0194 -0.2646
 5921TIP3   OH239253   4.185   3.259   3.587  0.2872 -0.2297 -0.2063
 5921TIP3    H139254   4.206   3.344   3.548  0.4389 -0.1610  0.0271
 5921TIP3    H239255   4.263   3.206   3.571  2.0682  0.9579  3.4544
 5922TIP3   OH239256   2.051   2.201   6.109  0.2569  0.3035 -1.3075
 5922TIP3    H139257   1.969   2.183   6.063 -0.7026  1.3919 -0.1172
 5922TIP3    H239258   2.043   2.292   6.138  1.3752  0.0704 -0.1446
 5923TIP3   OH239259   2.201   0.109  12.989 -0.1024 -0.6573  0.5240
 5923TIP3    H139260   2.153   0.060  12.923  0.3967 -0.6305  0.1402
 5923TIP3    H239261   2.133   0.140  13.050 -1.1118  2.3088 -1.8323
 5924TIP3   OH239262   1.298   4.121  12.652 -0.4057  0.2617  0.9869
 5924TIP3    H139263   1.211   4.098  12.684 -1.1433 -0.5836 -1.3767
 5924TIP3    H239264   1.329   4.041  12.608  0.0396  1.5754 -1.2409
 5925TIP3   OH239265   6.243   0.399   6.279 -0.4975  0.2229 -0.2996
 5925TIP3    H139266   6.153   0.378   6.302 -0.3516 -0.2834 -0.1784
 5925TIP3    H239267   6.273   0.324   6.227  0.1387 -0.0376  0.4143
 5926TIP3   OH239268   6.666   2.075   3.166 -0.7221  0.1227 -0.3686
 5926TIP3    H139269   6.615   2.120   3.098 -0.5756 -0.4477 -0.8605
 5926TIP3    H239270   6.686   2.144   3.229  2.0624  1.5172 -2.5336
 5927TIP3   OH239271   6.675   4.836   1.569 -0.1786 -0.1370  0.7583
 5927TIP3    H139272   6.713   4.749   1.577 -1.8678 -0.7511  3.0201
 5927TIP3    H239273   6.749   4.892   1.545  1.2150 -1.9334  0.6327
 5928TIP3   OH239274   0.102   4.036  12.047  0.2720 -0.1425 -0.1249
 5928TIP3    H139275   0.101   3.954  12.095  4.0818  1.0164  2.3761
 5928TIP3    H239276   0.040   4.092  12.095  0.7875 -0.3392  0.8033
 5929TIP3   OH239277   4.293   3.830   1.377  0.2247 -0.4572  0.5077
 5929TIP3    H139278   4.290   3.791   1.289  1.7426 -0.9983  0.6702
 5929TIP3    H239279   4.386   3.829   1.400 -0.3244 -2.2032  2.9577
 5930TIP3   OH239280   5.787   4.398   0.537  0.1456  0.0037  0.3766
 5930TIP3    H139281   5.823   4.487   0.542 -0.1975  0.0957  1.5230
 5930TIP3    H239282   5.747   4.393   0.450 -1.5142  1.6587  0.9707
 5931TIP3   OH239283   3.052   2.407  16.883  0.0855 -0.0414 -0.0466
 5931TIP3    H139284   3.138   2.439  16.857 -0.0432  0.5584  0.2509
 5931TIP3    H239285   3.012   2.480  16.929 -1.0806  0.1221 -1.2552
 5932TIP3   OH239286   4.481   6.065  14.194  0.1052 -0.1160  0.8465
 5932TIP3    H139287   4.568   6.094  14.222  0.4347  0.4712 -0.6851
 5932TIP3    H239288   4.421   6.125  14.238  0.4616 -0.5192  1.9115
 5933TIP3   OH239289   1.223   3.108  13.970 -0.1097  0.5303  0.6719
 5933TIP3    H139290   1.131   3.082  13.981 -1.2207  3.9790  0.7794
 5933TIP3    H239291   1.265   3.084  14.052 -0.2919 -2.9134 -0.0979
 5934TIP3   OH239292   5.212   1.605  17.206 -0.0756  0.2122 -0.1256
 5934TIP3    H139293   5.203   1.531  17.266 -0.3434 -0.5390 -1.0556
 5934TIP3    H239294   5.167   1.677  17.249 -0.2824 -0.3177  0.5601
 5935TIP3   OH239295   5.083   4.392  17.187 -0.4880 -1.0766 -0.2242
 5935TIP3    H139296   5.015   4.406  17.253  0.1432  0.8812  0.0715
 5935TIP3    H239297   5.083   4.472  17.135  0.7090 -1.5845 -1.0481
 5936TIP3   OH239298   3.292   0.930   0.022 -0.6548  0.2592  0.1411
 5936TIP3    H139299   3.325   0.858  -0.032  1.8149  1.2346  0.1931
 5936TIP3    H239300   3.322   0.909   0.111  1.2836  1.8853 -0.0481
 5937TIP3   OH239301   6.114   5.185   2.359 -0.3442  0.1568  0.3264
 5937TIP3    H139302   6.177   5.125   2.317 -0.8268 -0.2014  0.1001
 5937TIP3    H239303   6.152   5.272   2.346 -0.1713 -0.0070 -0.3064
 5938TIP3   OH239304   3.975   3.654   2.455 -0.1548 -0.7346 -0.6130
 5938TIP3    H139305   4.001   3.688   2.369  2.0621 -0.9087 -0.0793
 5938TIP3    H239306   3.964   3.560   2.442 -0.2246 -0.7000 -0.8045
 5939TIP3   OH239307   3.351   2.716  13.894  0.2085  0.2170  0.2228
 5939TIP3    H139308   3.436   2.671  13.886 -0.3991 -0.9167 -0.0593
 5939TIP3    H239309   3.348   2.776  13.820  0.4305 -0.3186 -0.2266
 5940TIP3   OH239310   0.892   5.054   3.271  0.7351 -0.0062 -0.0369
 5940TIP3    H139311   0.868   5.029   3.182 -0.1733 -0.7639  0.4024
 5940TIP3    H239312   0.980   5.089   3.263  0.6348  0.0201 -1.2465
 5941TIP3   OH239313   0.659   5.569   2.667 -0.0648  0.1194  0.2043
 5941TIP3    H139314   0.617   5.558   2.753 -1.4803  0.3534 -0.4333
 5941TIP3    H239315   0.613   5.508   2.610  2.8434 -2.2781  0.2029
 5942TIP3   OH239316   1.838   4.508   1.126 -0.0723  0.1246  0.4066
 5942TIP3    H139317   1.782   4.502   1.203 -0.0958  1.5016  0.5273
 5942TIP3    H239318   1.925   4.485   1.157 -0.0748  0.7049  0.8749
 5943TIP3   OH239319   3.063   1.125  16.983  0.2249 -0.0104  0.0380
 5943TIP3    H139320   3.013   1.107  16.903  1.8291  0.4222 -1.1058
 5943TIP3    H239321   3.008   1.091  17.053 -2.6225  2.2122 -0.9097
 5944TIP3   OH239322   3.583   4.284  16.193 -0.1184  0.2563 -0.4653
 5944TIP3    H139323   3.679   4.280  16.190 -0.0861 -0.3724  1.0132
 5944TIP3    H239324   3.558   4.307  16.103  1.4695  1.6949 -0.5870
 5945TIP3   OH239325   1.415   2.843   3.915  0.5505 -0.4190  0.2910
 5945TIP3    H139326   1.480   2.827   3.984 -0.4457  1.7920  1.8812
 5945TIP3    H239327   1.346   2.779   3.933  0.3111  0.1211  1.3849
 5946TIP3   OH239328   0.860   2.315   5.219 -0.0233 -0.2471 -0.0657
 5946TIP3    H139329   0.906   2.233   5.238 -2.1879 -1.7621 -1.0009
 5946TIP3    H239330   0.908   2.352   5.145  0.2836 -1.3077 -0.4287
 5947TIP3   OH239331   0.057   6.224   4.170 -0.3082  0.0420 -0.1291
 5947TIP3    H139332  -0.012   6.288   4.184 -1.0640 -0.5805 -0.9548
 5947TIP3    H239333   0.115   6.235   4.246 -0.9389  1.0299  0.2283
 5948TIP3   OH239334   5.608   0.663  16.032 -0.2450  0.6481  0.6742
 5948TIP3    H139335   5.702   0.679  16.028 -0.1143  0.3419  2.0510
 5948TIP3    H239336   5.596   0.607  16.109 -1.1955 -2.1514 -1.3449
 5949TIP3   OH239337   3.450   0.953   5.344  0.6296 -0.0234 -0.2711
 5949TIP3    H139338   3.475   0.902   5.421 -0.4425 -1.0297 -0.5596
 5949TIP3    H239339   3.467   0.895   5.270  0.6029  0.5236 -0.7132
 5950TIP3   OH239340   6.045   3.515   0.443 -0.4535  0.5016  0.1065
 5950TIP3    H139341   5.991   3.535   0.519 -1.6693 -0.9604 -0.3271
 5950TIP3    H239342   6.000   3.443   0.399  1.0942  0.2004 -1.0954
 5951TIP3   OH239343   3.109   6.487   5.750  0.0272 -0.3929 -0.2794
 5951TIP3    H139344   3.162   6.566   5.749 -0.2327 -0.2008 -1.7389
 5951TIP3    H239345   3.032   6.509   5.697 -1.1880 -0.8893  1.1914
 5952TIP3   OH239346   3.013   1.279   3.039  0.7124 -0.0405  0.4317
 5952TIP3    H139347   3.064   1.205   3.007  0.6433  0.5997 -1.2630
 5952TIP3    H239348   2.989   1.255   3.128  0.5537 -2.1163 -0.1253
 5953TIP3   OH239349   1.283   3.163   3.416 -0.0792 -0.4951  0.1869
 5953TIP3    H139350   1.240   3.096   3.364  0.4245 -0.3275 -0.4784
 5953TIP3    H239351   1.374   3.163   3.384  0.1693 -0.1868  0.8724
 5954TIP3   OH239352   1.744   2.531   4.882 -0.2510 -0.0526  0.7011
 5954TIP3    H139353   1.807   2.531   4.811 -3.5356  0.4291 -2.5459
 5954TIP3    H239354   1.770   2.457   4.938  3.5928  0.7351  0.2003
 5955TIP3   OH239355   4.011   1.638  11.230  0.5116  0.1043  0.1970
 5955TIP3    H139356   3.940   1.581  11.200  0.6883  0.2573 -0.5478
 5955TIP3    H239357   3.998   1.719  11.181  0.4575  0.5943  1.0065
 5956TIP3   OH239358   4.090   2.269  16.629  0.2204  0.1073  0.3149
 5956TIP3    H139359   4.062   2.348  16.583  1.1958  0.3917  0.1871
 5956TIP3    H239360   4.113   2.298  16.717  1.1241  0.0795  0.0984
 5957TIP3   OH239361   0.880   6.508   0.354 -0.0997  0.1127  0.2121
 5957TIP3    H139362   0.921   6.443   0.298 -0.0732  0.0453  0.3093
 5957TIP3    H239363   0.952   6.562   0.386  0.0311 -0.5660  1.1129
 5958TIP3   OH239364   4.131   0.984   4.555  0.2960  0.3171  0.2527
 5958TIP3    H139365   4.194   1.033   4.501 -1.4201  2.2745 -0.1108
 5958TIP3    H239366   4.126   1.034   4.636 -0.5889  0.0524  0.3728
 5959TIP3   OH239367   4.325   2.440  13.113 -0.0410  0.6352 -0.5737
 5959TIP3    H139368   4.309   2.351  13.143 -2.0071  0.5600 -1.6795
 5959TIP3    H239369   4.366   2.484  13.188 -2.2067 -0.2623  1.2614
 5960TIP3   OH239370   3.031   3.218   5.666 -0.0708  0.3161 -0.0329
 5960TIP3    H139371   3.005   3.285   5.729 -1.5151  0.3614 -0.6352
 5960TIP3    H239372   3.031   3.264   5.582  1.3935  0.1475 -0.1383
 5961TIP3   OH239373   6.036   3.420   0.708  0.0028  0.3901  0.4976
 5961TIP3    H139374   6.124   3.425   0.746  0.3886 -0.2835 -0.2760
 5961TIP3    H239375   5.998   3.506   0.724  0.7542  0.6486  0.9610
 5962TIP3   OH239376   4.298   5.644   6.048  0.7102 -0.1399 -0.4413
 5962TIP3    H139377   4.251   5.727   6.056 -0.8707 -1.0703  0.1707
 5962TIP3    H239378   4.243   5.580   6.092  2.4874 -1.3218  0.1832
 5963TIP3   OH239379   2.395   2.482   3.113 -0.1972 -0.1679 -0.0937
 5963TIP3    H139380   2.342   2.510   3.039 -0.7195 -1.2525 -0.1568
 5963TIP3    H239381   2.335   2.433   3.169  0.7117 -1.5001 -0.2111
 5964TIP3   OH239382   1.546   5.627  13.714 -0.3806  0.4938  0.5773
 5964TIP3    H139383   1.509   5.613  13.627  0.1518 -1.5316  0.6291
 5964TIP3    H239384   1.639   5.645  13.697  0.1055 -1.6614  0.7718
 5965TIP3   OH239385   2.260   6.364   0.009 -0.6436 -0.5250  0.4194
 5965TIP3    H139386   2.237   6.272   0.018 -0.5456 -0.8280 -1.8561
 5965TIP3    H239387   2.356   6.365   0.007 -0.6537 -0.4239 -0.0009
 5966TIP3   OH239388   2.976   6.258  16.864 -0.3242  0.2275  0.6381
 5966TIP3    H139389   3.056   6.205  16.860 -0.7853 -0.4988  0.7738
 5966TIP3    H239390   3.007   6.348  16.864  0.5821 -0.0464  2.4816
 5967TIP3   OH239391   3.994   6.763   1.348 -0.1068 -0.2985  0.4677
 5967TIP3    H139392   3.961   6.847   1.382 -0.7351 -0.3516  0.0018
 5967TIP3    H239393   4.089   6.773   1.348 -0.1037 -0.1353  1.8386
 5968TIP3   OH239394   5.910   4.937  16.855  0.5761  0.5393 -0.2190
 5968TIP3    H139395   5.835   4.887  16.886 -0.3106 -0.2971 -3.4016
 5968TIP3    H239396   5.914   5.012  16.915 -2.7873  0.6076  0.1279
 5969TIP3   OH239397   5.179   0.903  15.365  0.5304 -0.0190 -0.3982
 5969TIP3    H139398   5.258   0.936  15.322 -0.7646  2.1272 -1.2638
 5969TIP3    H239399   5.106   0.937  15.313 -1.0547  0.0969  1.7421
 5970TIP3   OH239400   4.788   2.200  12.279  0.1553 -0.1733 -0.2562
 5970TIP3    H139401   4.781   2.189  12.374  0.5112  0.7529 -0.1196
 5970TIP3    H239402   4.731   2.275  12.259 -2.4632 -2.2380 -1.2206
 5971TIP3   OH239403   2.402   0.524  13.088 -0.2331 -0.0218 -0.1635
 5971TIP3    H139404   2.377   0.576  13.012 -2.7723  1.6591  1.6718
 5971TIP3    H239405   2.469   0.576  13.132  1.1267 -0.9244 -1.0784
 5972TIP3   OH239406   3.494   5.030  13.587 -0.2621  0.3515  0.4845
 5972TIP3    H139407   3.535   5.024  13.673  0.6999  0.7811  0.0769
 5972TIP3    H239408   3.418   4.972  13.592  0.3064 -0.3503  1.3253
 5973TIP3   OH239409   3.630   3.775   2.547  0.1613 -0.1272  0.7713
 5973TIP3    H139410   3.711   3.762   2.595  1.4923  4.0285  0.0820
 5973TIP3    H239411   3.649   3.743   2.458  1.6194  1.9422  0.2737
 5974TIP3   OH239412   2.020   2.107   4.170 -0.0382  0.3546  0.0327
 5974TIP3    H139413   2.057   2.196   4.168  0.2917  0.2066 -1.7352
 5974TIP3    H239414   1.969   2.105   4.252 -0.9532  2.5429 -0.3944
 5975TIP3   OH239415   5.500   3.986  11.691  0.1757  0.4879 -0.3021
 5975TIP3    H139416   5.459   3.906  11.723 -0.6041  0.9443 -0.1495
 5975TIP3    H239417   5.521   4.036  11.771 -0.4514  0.9784 -0.4391
 5976TIP3   OH239418   3.758   5.348   5.474 -0.0430 -0.0574 -0.3075
 5976TIP3    H139419   3.844   5.391   5.477 -0.0052 -0.1664  0.2021
 5976TIP3    H239420   3.755   5.295   5.554 -0.6017 -0.0239 -0.3055
 5977TIP3   OH239421   6.283   3.609  16.218 -0.1501 -0.0049  0.1754
 5977TIP3    H139422   6.215   3.628  16.283 -0.0868 -1.2435  0.6362
 5977TIP3    H239423   6.331   3.534  16.255  0.8522  0.2380 -0.5973
 5978TIP3   OH239424   1.556   2.535  17.102  0.3911  0.0236  0.4428
 5978TIP3    H139425   1.489   2.597  17.131  0.2388  0.0532  0.0252
 5978TIP3    H239426   1.637   2.567  17.143  0.2108  0.1739  0.6834
 5979TIP3   OH239427   3.781   5.302  11.647 -0.1276  0.3515  0.4074
 5979TIP3    H139428   3.744   5.216  11.667  0.1757 -0.1745 -1.1290
 5979TIP3    H239429   3.709   5.351  11.607  0.6387 -0.6046 -2.3963
 5980TIP3   OH239430   3.615   5.848  13.158  0.1862  0.3834 -0.1352
 5980TIP3    H139431   3.606   5.942  13.142  0.6820  0.4514 -0.0295
 5980TIP3    H239432   3.704   5.827  13.130  0.2173  0.0242  0.2209
 5981TIP3   OH239433   3.574   4.857   4.754  0.2189  0.1012  0.2532
 5981TIP3    H139434   3.544   4.892   4.670 -1.0833  0.5544  0.8828
 5981TIP3    H239435   3.647   4.915   4.779  1.6041 -0.9126 -1.2092
 5982TIP3   OH239436   3.415   3.620   2.630 -0.0214 -0.1697  0.2822
 5982TIP3    H139437   3.463   3.701   2.612  0.6401 -1.2215 -3.3915
 5982TIP3    H239438   3.323   3.647   2.626  0.1819  0.4102 -1.1488
 5983TIP3   OH239439   6.162   2.448   5.153  0.3851 -0.0462  0.1574
 5983TIP3    H139440   6.158   2.543   5.164  1.9218  0.0953 -0.2630
 5983TIP3    H239441   6.181   2.415   5.241 -0.0967  0.0315  0.2936
 5984TIP3   OH239442   1.997   5.300   3.749  0.2361 -0.6472 -0.2356
 5984TIP3    H139443   2.076   5.354   3.754  0.2024 -0.5474 -0.7348
 5984TIP3    H239444   2.020   5.220   3.797  0.1082  0.0116  0.9511
 5985TIP3   OH239445   3.319   3.614  15.104  0.2118  0.8654  0.7680
 5985TIP3    H139446   3.368   3.574  15.032  0.0292  1.1365  0.4900
 5985TIP3    H239447   3.228   3.588  15.088  0.3723 -0.5856  1.9043
 5986TIP3   OH239448   5.721   3.628  15.609  0.7220  0.2561  0.0804
 5986TIP3    H139449   5.723   3.542  15.650  1.3869  0.4299  0.4491
 5986TIP3    H239450   5.650   3.675  15.654  0.9939  0.2144  0.5631
 5987TIP3   OH239451   0.978   3.245  12.218 -0.4580 -1.0333  0.2174
 5987TIP3    H139452   0.942   3.278  12.300 -1.4012 -0.6075 -0.3483
 5987TIP3    H239453   0.965   3.150  12.223 -0.0627 -1.0616  0.7666
 5988TIP3   OH239454   3.665   2.712  16.495  0.0896  0.1376 -0.2749
 5988TIP3    H139455   3.624   2.786  16.450  1.4206  0.7083 -0.6002
 5988TIP3    H239456   3.636   2.635  16.446  1.1169  0.7071 -1.8543
 5989TIP3   OH239457   4.674   2.345  13.341 -0.3108  0.8346 -0.4183
 5989TIP3    H139458   4.640   2.286  13.274 -1.5137  0.3369  0.6032
 5989TIP3    H239459   4.769   2.342  13.329 -0.3120 -1.5444 -0.2053
 5990TIP3   OH239460   6.394   6.559   5.873  0.5027  0.2570 -0.9108
 5990TIP3    H139461   6.481   6.519   5.869  0.2452 -0.4134 -0.0210
 5990TIP3    H239462   6.394   6.623   5.802  1.0781 -1.0203 -2.1248
 5991TIP3   OH239463   4.775   2.757  13.667 -0.1551  0.3334  0.0588
 5991TIP3    H139464   4.859   2.799  13.649  1.4313 -1.8977  1.7198
 5991TIP3    H239465   4.748   2.721  13.582  0.6976  0.8568 -0.4494
 5992TIP3   OH239466   2.540   2.581   4.893 -0.4092  0.1523  0.0451
 5992TIP3    H139467   2.610   2.519   4.876 -1.6428 -0.7854 -1.9700
 5992TIP3    H239468   2.500   2.550   4.975 -0.6419 -1.4307 -0.6265
 5993TIP3   OH239469   3.053   1.101   2.066  0.2297 -0.2038  0.2554
 5993TIP3    H139470   3.133   1.148   2.089  0.5847 -0.7913  0.2442
 5993TIP3    H239471   3.072   1.010   2.086 -0.6712 -0.2700  0.8679
 5994TIP3   OH239472   2.455   2.819  12.946  0.3922  0.5823 -0.1774
 5994TIP3    H139473   2.484   2.730  12.968 -0.7624  0.1164 -0.4090
 5994TIP3    H239474   2.401   2.845  13.020  3.2983  2.4537  1.4587
 5995TIP3   OH239475   5.116   5.884   3.882 -0.0979 -0.6282 -0.0243
 5995TIP3    H139476   5.048   5.845   3.937  1.1687 -0.0173  2.0875
 5995TIP3    H239477   5.132   5.818   3.815 -2.3032 -1.0501 -0.2285
 5996TIP3   OH239478   1.577   3.873   0.626  0.3488 -0.1121 -0.0837
 5996TIP3    H139479   1.519   3.932   0.579 -1.3358 -0.6561  1.1882
 5996TIP3    H239480   1.665   3.905   0.608 -0.3776  1.2150 -1.4671
 5997TIP3   OH239481   6.501   0.265  13.618 -0.4211  0.5426 -0.1186
 5997TIP3    H139482   6.537   0.293  13.703  0.1021  0.6336 -0.3647
 5997TIP3    H239483   6.522   0.171  13.614 -2.2286  0.0495  0.7358
 5998TIP3   OH239484   4.078   2.813   4.710  0.6302 -0.1802 -0.3784
 5998TIP3    H139485   4.127   2.895   4.722  1.1798 -0.7697  1.8332
 5998TIP3    H239486   4.134   2.746   4.748  0.0949 -1.6055 -1.9816
 5999TIP3   OH239487   0.977   2.452   1.673  0.0277 -0.1937  0.5949
 5999TIP3    H139488   0.964   2.357   1.674 -2.2309 -0.0231 -1.9374
 5999TIP3    H239489   0.916   2.485   1.739  1.7053 -0.4617  2.3960
 6000TIP3   OH239490   1.050   1.614   4.463  0.2594  0.2617  0.0171
 6000TIP3    H139491   1.001   1.534   4.481 -0.4311  0.6097 -0.2668
 6000TIP3    H239492   0.997   1.684   4.502  1.1369  0.5307  0.7604
 6001TIP3   OH239493   1.197   3.803  16.453  0.6870  0.4043  0.6491
 6001TIP3    H139494   1.259   3.760  16.392  1.6408  2.9880 -0.3299
 6001TIP3    H239495   1.126   3.740  16.461  2.0464 -1.4336 -0.5755
 6002TIP3   OH239496   1.873   4.265   4.158 -0.3558  0.2245 -1.0198
 6002TIP3    H139497   1.920   4.297   4.080 -0.5148  2.6489 -0.2009
 6002TIP3    H239498   1.790   4.233   4.124  0.1183  0.0032 -2.0016
 6003TIP3   OH239499   1.400   0.363   5.379  0.0238  0.2905 -0.5090
 6003TIP3    H139500   1.381   0.397   5.292 -1.0051  1.3330  0.0820
 6003TIP3    H239501   1.325   0.308   5.400  0.9955 -1.2216 -0.8699
 6004TIP3   OH239502   2.175   3.967  15.229 -0.3386 -0.6442  0.4650
 6004TIP3    H139503   2.158   4.036  15.165  1.0377 -0.1698  0.5921
 6004TIP3    H239504   2.208   4.013  15.306  2.6126 -1.5430 -0.1503
 6005TIP3   OH239505   4.069   1.209  11.340 -0.2017 -0.0063 -0.1686
 6005TIP3    H139506   4.040   1.138  11.397 -0.7789 -1.7577 -2.4630
 6005TIP3    H239507   4.028   1.288  11.376  1.9561 -0.3556  3.5798
 6006TIP3   OH239508   4.505   5.066  15.024 -0.0198 -0.1570 -0.4314
 6006TIP3    H139509   4.533   4.988  14.976 -1.7619 -0.9737 -0.2259
 6006TIP3    H239510   4.461   5.031  15.102  0.4750  1.0805  0.4413
 6007TIP3   OH239511   6.140   4.050  12.710  0.0096  0.0749  0.0876
 6007TIP3    H139512   6.064   4.089  12.754  0.8919 -0.3126  2.0872
 6007TIP3    H239513   6.191   4.010  12.781  0.2666 -2.8662 -1.6071
 6008TIP3   OH239514   4.402   3.216  16.797  0.3558 -0.1652  0.1486
 6008TIP3    H139515   4.422   3.141  16.853 -1.2139 -0.2497  0.6292
 6008TIP3    H239516   4.312   3.240  16.820  0.0282  0.4300 -1.6303
 6009TIP3   OH239517   4.377   0.561   3.347  0.5212 -0.0148 -0.4950
 6009TIP3    H139518   4.320   0.567   3.424  2.5906 -1.0991  1.2178
 6009TIP3    H239519   4.322   0.523   3.279 -0.6563 -1.6292  1.2685
 6010TIP3   OH239520   4.771   3.779   1.937  0.6597  0.1897  0.1658
 6010TIP3    H139521   4.796   3.763   2.028  0.3919 -0.2305  0.1685
 6010TIP3    H239522   4.837   3.734   1.885 -0.1786 -1.1279  0.1742
 6011TIP3   OH239523   1.891   5.909  16.198 -0.5391  0.1534 -0.2306
 6011TIP3    H139524   1.938   5.838  16.242 -1.0104  0.4065  0.6947
 6011TIP3    H239525   1.802   5.905  16.233 -0.8017  0.6543 -0.8212
 6012TIP3   OH239526   1.419   2.614   4.767  0.2808 -0.0872 -0.1924
 6012TIP3    H139527   1.420   2.519   4.778 -1.1290  0.0778  1.7701
 6012TIP3    H239528   1.497   2.645   4.812  0.2894 -0.2362 -0.1057
 6013TIP3   OH239529   3.079   4.052   1.501 -0.2368 -0.4463  0.3042
 6013TIP3    H139530   3.135   4.062   1.577 -1.1893 -2.1125  1.2611
 6013TIP3    H239531   3.123   4.103   1.432  0.8731  0.7063  1.8030
 6014TIP3   OH239532   0.433   0.902  11.123  0.8297 -0.3036 -0.3343
 6014TIP3    H139533   0.453   0.984  11.167  1.3776 -0.6281  0.0363
 6014TIP3    H239534   0.510   0.884  11.068  0.4517 -0.2590 -0.8827
 6015TIP3   OH239535   4.807   5.843  15.656 -0.9517 -0.0616  0.2853
 6015TIP3    H139536   4.751   5.897  15.601 -0.2806  0.0018 -0.3503
 6015TIP3    H239537   4.895   5.878  15.644 -0.6496 -0.6665  0.6384
 6016TIP3   OH239538   0.490   1.330  16.496 -0.4038  0.4415 -0.3430
 6016TIP3    H139539   0.397   1.309  16.504 -0.4933  0.8114 -0.3658
 6016TIP3    H239540   0.523   1.330  16.586 -0.2272 -0.5501 -0.4001
 6017TIP3   OH239541   2.269   4.230  16.376 -0.6651 -0.3078 -0.0149
 6017TIP3    H139542   2.313   4.200  16.296 -0.2556 -0.5919  0.3118
 6017TIP3    H239543   2.191   4.175  16.381 -1.2253  0.3930 -0.7492
 6018TIP3   OH239544   4.610   0.708   2.927  0.5591  0.4586  0.8571
 6018TIP3    H139545   4.646   0.790   2.960  2.1037 -0.7572  2.3279
 6018TIP3    H239546   4.664   0.687   2.851 -0.9175  1.5977 -0.5788
 6019TIP3   OH239547   3.311   2.209   2.236  0.2499 -0.0761 -0.3492
 6019TIP3    H139548   3.368   2.164   2.299 -1.9545 -0.1004  1.7750
 6019TIP3    H239549   3.261   2.139   2.195 -0.0557  0.1058 -0.2922
 6020TIP3   OH239550   1.453   3.297   0.547 -0.1109  0.6205  0.2049
 6020TIP3    H139551   1.540   3.257   0.541 -0.3446  0.0981  0.2526
 6020TIP3    H239552   1.432   3.295   0.640 -0.8379 -0.7069  0.0315
 6021TIP3   OH239553   3.260   2.531   4.645 -0.1172  0.3987  0.1268
 6021TIP3    H139554   3.257   2.461   4.709 -1.0464  0.7364  0.4697
 6021TIP3    H239555   3.350   2.529   4.611 -0.7279 -2.4485 -1.5914
 6022TIP3   OH239556   5.868   0.744   4.358 -0.0025  0.5833 -0.3249
 6022TIP3    H139557   5.927   0.680   4.319  0.4946  1.5445 -1.1996
 6022TIP3    H239558   5.841   0.800   4.285  0.9661  2.4569  0.6703
 6023TIP3   OH239559   6.254   6.621  10.996 -0.1131  0.6851 -0.1160
 6023TIP3    H139560   6.310   6.557  10.952 -0.0426 -0.5736  1.6946
 6023TIP3    H239561   6.179   6.570  11.027 -1.3201  1.9833 -0.8037
 6024TIP3   OH239562   2.645   4.048  15.455 -0.1460  0.2966  0.4906
 6024TIP3    H139563   2.617   3.969  15.501 -1.9259  0.8302  0.3923
 6024TIP3    H239564   2.647   4.116  15.523 -1.1384  0.7210  0.1054
 6025TIP3   OH239565   6.286   2.109   4.818 -0.3987  0.4915  0.1587
 6025TIP3    H139566   6.193   2.092   4.834 -0.3835 -2.6746 -2.1483
 6025TIP3    H239567   6.331   2.063   4.888 -0.5712 -0.1423 -0.1349
 6026TIP3   OH239568   6.417   5.843  10.539 -0.2326 -0.0787  0.0307
 6026TIP3    H139569   6.321   5.849  10.539 -0.3664 -1.5602  1.6653
 6026TIP3    H239570   6.446   5.933  10.552 -1.4282  0.2456  0.6116
 6027TIP3   OH239571   1.650   5.005  15.098 -0.1823  0.4583 -0.3543
 6027TIP3    H139572   1.663   4.991  15.191 -1.9445 -1.2751 -0.2959
 6027TIP3    H239573   1.705   4.940  15.055 -1.2021 -0.3774 -0.4200
 6028TIP3   OH239574   2.095   5.151  12.366 -0.3975  0.7208  0.5989
 6028TIP3    H139575   2.155   5.219  12.395  0.6625  0.0086  0.1206
 6028TIP3    H239576   2.009   5.178  12.400 -0.5348  3.6361 -1.7124
 6029TIP3   OH239577   6.136   2.513  11.644 -0.1807 -0.1484 -0.3033
 6029TIP3    H139578   6.126   2.554  11.558 -1.4461 -0.0664 -0.1309
 6029TIP3    H239579   6.161   2.423  11.625 -0.5311 -0.1500 -0.7585
 6030TIP3   OH239580   0.927   2.936  12.774  0.4560  0.0733 -0.2541
 6030TIP3    H139581   0.995   2.996  12.806  0.8231 -0.4655  0.0033
 6030TIP3    H239582   0.882   2.907  12.853  1.1549 -1.0125 -0.2272
 6031TIP3   OH239583   1.117   6.605  11.214  0.1131 -0.4713 -1.0444
 6031TIP3    H139584   1.164   6.526  11.242  0.1872 -0.6209 -1.5873
 6031TIP3    H239585   1.169   6.640  11.142  0.4157  0.4288 -0.4007
 6032TIP3   OH239586   2.683   5.056   0.401  0.4205  0.4489  0.4925
 6032TIP3    H139587   2.759   5.012   0.361 -1.6977 -0.3155 -3.2543
 6032TIP3    H239588   2.646   4.990   0.460 -1.2904 -2.3282 -3.1890
 6033TIP3   OH239589   3.878   3.276   4.417 -1.1055 -0.1323  0.1890
 6033TIP3    H139590   3.922   3.209   4.470 -1.6834 -0.8476 -0.2183
 6033TIP3    H239591   3.948   3.334   4.388 -0.7001 -0.0943  1.2126
 6034TIP3   OH239592   2.759   3.724   0.760 -0.7553 -0.1936 -0.3534
 6034TIP3    H139593   2.852   3.714   0.780 -0.4488 -0.5772 -1.8519
 6034TIP3    H239594   2.738   3.815   0.783 -0.2241 -0.3501  0.7713
 6035TIP3   OH239595   2.881   0.830   0.829 -0.0736 -0.4231 -0.4217
 6035TIP3    H139596   2.964   0.790   0.800  0.2106  0.4612 -0.8585
 6035TIP3    H239597   2.850   0.772   0.899  1.0203 -0.6569 -0.1057
 6036TIP3   OH239598   2.132   0.805   1.696 -0.5963  0.4792  0.0967
 6036TIP3    H139599   2.181   0.841   1.622 -0.7227  0.7355  0.1356
 6036TIP3    H239600   2.197   0.799   1.766 -0.1153 -1.1330 -0.4429
 6037TIP3   OH239601   3.857   4.607   1.206 -0.3066  0.1285  0.0125
 6037TIP3    H139602   3.925   4.545   1.234  0.1332  0.1536 -0.9501
 6037TIP3    H239603   3.800   4.555   1.150 -0.9289  0.1838  0.5846
 6038TIP3   OH239604   4.043   0.871   5.380  0.1659  0.3993  0.0981
 6038TIP3    H139605   4.050   0.786   5.424  2.4791  0.5000  0.0564
 6038TIP3    H239606   4.133   0.904   5.378 -0.8336  3.5643  1.4502
 6039TIP3   OH239607   6.045   0.328  17.210  0.0512 -0.5462 -0.7906
 6039TIP3    H139608   5.952   0.350  17.197 -0.8595 -3.5084  0.1127
 6039TIP3    H239609   6.062   0.258  17.147  1.4387 -0.6676 -0.3075
 6040TIP3   OH239610   2.224   3.789   5.492 -0.0726  0.4313  0.0522
 6040TIP3    H139611   2.228   3.748   5.406 -0.3076  0.8244 -0.1475
 6040TIP3    H239612   2.267   3.874   5.481  1.3044 -0.1463  0.7006
 6041TIP3   OH239613   6.451   5.558  15.141 -0.8462  0.3035  0.3897
 6041TIP3    H139614   6.392   5.613  15.089 -0.6336  0.0660 -0.1196
 6041TIP3    H239615   6.447   5.594  15.229 -0.8139  1.0481  0.0924
 6042TIP3   OH239616   5.876   5.796  12.104  0.3394 -0.4678  0.2792
 6042TIP3    H139617   5.905   5.710  12.137  0.5304 -0.3432  0.4380
 6042TIP3    H239618   5.953   5.851  12.111 -0.4504  0.4644  2.7618
 6043TIP3   OH239619   6.807   1.368   2.640 -0.1829 -0.1034 -0.5205
 6043TIP3    H139620   6.714   1.369   2.619 -0.1834  0.2274 -0.4965
 6043TIP3    H239621   6.811   1.329   2.728 -0.3970  0.8993 -0.0496
 6044TIP3   OH239622   4.262   6.637   2.831 -0.8167  0.5565  0.4122
 6044TIP3    H139623   4.268   6.732   2.827  1.2238  0.5436  1.6137
 6044TIP3    H239624   4.335   6.606   2.777 -1.3500 -0.3329  0.1795
 6045TIP3   OH239625   2.819   0.605   0.952  0.5817 -0.5290 -0.1299
 6045TIP3    H139626   2.727   0.602   0.978  0.7402  2.7468  1.3824
 6045TIP3    H239627   2.867   0.575   1.029  0.8383 -1.1122 -0.5076
 6046TIP3   OH239628   2.878   1.522   3.987  0.3843 -0.4254 -0.1849
 6046TIP3    H139629   2.920   1.607   4.003 -1.5075  0.9295 -1.8514
 6046TIP3    H239630   2.938   1.476   3.928  1.9948 -0.8275  1.6460
 6047TIP3   OH239631   3.082   0.256  12.598  0.5078 -0.3399 -0.5562
 6047TIP3    H139632   3.166   0.302  12.599  1.0480 -1.1766 -2.5455
 6047TIP3    H239633   3.088   0.192  12.669  0.2086  1.7513  1.4749
 6048TIP3   OH239634   5.137   0.651   6.173  0.5953 -0.4023 -0.1795
 6048TIP3    H139635   5.199   0.680   6.240 -0.3827  0.4297  0.3894
 6048TIP3    H239636   5.188   0.649   6.093  2.0510 -2.3165  0.7038
 6049TIP3   OH239637   5.685   6.554   0.484  0.9027  0.2179 -0.4714
 6049TIP3    H139638   5.646   6.606   0.555  1.3379 -1.0694  0.7400
 6049TIP3    H239639   5.626   6.569   0.409 -0.3328  0.5411  0.5280
 6050TIP3   OH239640   3.208   5.497   5.456  0.1420  0.0995  0.2906
 6050TIP3    H139641   3.157   5.442   5.397 -2.5368 -0.7821  3.1285
 6050TIP3    H239642   3.255   5.436   5.512  0.7716  0.8292  0.5728
 6051TIP3   OH239643   2.650   5.760  13.390  0.2533  0.9135  0.1287
 6051TIP3    H139644   2.561   5.763  13.424  0.2584 -0.6919  0.3675
 6051TIP3    H239645   2.665   5.668  13.370  2.0117  1.0702  0.5445
 6052TIP3   OH239646   3.471   0.725  14.430 -0.4381 -0.2131 -0.1052
 6052TIP3    H139647   3.503   0.636  14.444 -1.9630 -0.7412  0.3020
 6052TIP3    H239648   3.376   0.714  14.417 -0.5963  1.3121 -0.4413
 6053TIP3   OH239649   2.207   6.350  16.343 -0.1236  0.5853 -0.6152
 6053TIP3    H139650   2.160   6.269  16.323  1.5395 -0.5265 -0.2420
 6053TIP3    H239651   2.197   6.404  16.264  0.2072 -0.7219 -1.5811
 6054TIP3   OH239652   5.526   2.967  14.336  0.0023  0.4500  0.2727
 6054TIP3    H139653   5.485   2.972  14.250 -0.5041  1.6593  0.5680
 6054TIP3    H239654   5.620   2.979  14.319  0.2980 -2.0786 -0.3759
 6055TIP3   OH239655   2.316   3.819  16.901  0.3255 -0.6210 -0.1086
 6055TIP3    H139656   2.252   3.884  16.930  0.5840 -0.1464 -0.6111
 6055TIP3    H239657   2.387   3.869  16.862  2.0352 -0.9730  2.2992
 6056TIP3   OH239658   1.214   6.678  11.620 -0.1060 -0.0317 -0.2843
 6056TIP3    H139659   1.270   6.735  11.567  1.1582  0.1959  1.2064
 6056TIP3    H239660   1.254   6.592  11.612  0.3759  0.0941  0.6373
 6057TIP3   OH239661   1.248   2.159   4.800 -0.4611  0.0275 -0.1516
 6057TIP3    H139662   1.166   2.202   4.823  0.2467  0.9197  0.7951
 6057TIP3    H239663   1.268   2.104   4.875 -0.3942 -0.5179 -0.5591
 6058TIP3   OH239664   6.360   1.025  13.985  0.0894  0.5144 -0.4177
 6058TIP3    H139665   6.280   1.003  14.034  0.0410  0.5047 -0.5018
 6058TIP3    H239666   6.427   0.969  14.025 -0.2521 -0.6140 -1.3659
 6059TIP3   OH239667   3.040   3.171  12.526 -0.2693 -0.4634  0.4731
 6059TIP3    H139668   2.952   3.197  12.552 -0.3650  0.4745 -0.7160
 6059TIP3    H239669   3.045   3.192  12.433  0.7142 -1.8819  0.1648
 6060TIP3   OH239670   5.332   3.598   2.009  0.0147 -0.0109 -0.3424
 6060TIP3    H139671   5.391   3.571   2.080 -0.1027  1.7194  0.4684
 6060TIP3    H239672   5.249   3.556   2.030  0.4664 -1.0669 -0.5522
 6061TIP3   OH239673   4.389   1.025  14.104  0.0851 -0.0973 -0.0454
 6061TIP3    H139674   4.397   1.039  14.199 -0.5876 -1.2149  0.1831
 6061TIP3    H239675   4.425   1.106  14.066  0.6047  0.2670  1.1453
 6062TIP3   OH239676   6.675   6.054   4.462  0.1107  0.3409 -0.4079
 6062TIP3    H139677   6.764   6.044   4.496 -0.1063  3.4196  1.4680
 6062TIP3    H239678   6.622   5.995   4.516  0.8801 -1.0433 -1.1211
 6063TIP3   OH239679   3.048   4.779  13.812  0.6319 -0.2144 -0.3302
 6063TIP3    H139680   3.045   4.859  13.865  1.4833 -0.5648  0.2529
 6063TIP3    H239681   3.124   4.791  13.755  1.7876 -1.3076  0.9175
 6064TIP3   OH239682   3.624   4.340   2.675  0.1071 -0.3463  0.2288
 6064TIP3    H139683   3.549   4.294   2.713 -0.3581  0.1635 -0.0630
 6064TIP3    H239684   3.620   4.428   2.713  1.1368 -0.6025  0.9805
 6065TIP3   OH239685   2.618   2.052  12.774  0.3953 -0.0253  0.1471
 6065TIP3    H139686   2.654   2.125  12.723  3.7748 -1.7631 -0.2642
 6065TIP3    H239687   2.635   2.076  12.865 -2.5131  1.5208  0.4098
 6066TIP3   OH239688   1.434   0.811   1.921  0.5665 -0.4483  0.3833
 6066TIP3    H139689   1.497   0.758   1.873  0.6076  0.3734 -0.4864
 6066TIP3    H239690   1.433   0.895   1.875 -0.5040 -0.1516  0.9256
 6067TIP3   OH239691   2.409   4.393  12.707 -0.0671 -0.2679  0.5131
 6067TIP3    H139692   2.378   4.302  12.704  1.3883 -0.7819  0.1809
 6067TIP3    H239693   2.373   4.433  12.628  1.5189 -1.3440 -0.8104
 6068TIP3   OH239694   6.263   2.668  11.846 -0.5824 -0.2814 -0.1515
 6068TIP3    H139695   6.219   2.615  11.780 -1.0089  0.4630 -0.4758
 6068TIP3    H239696   6.342   2.619  11.868 -0.5627 -0.6566 -1.0344
 6069TIP3   OH239697   0.474   5.401   2.538 -0.4239 -0.2429 -0.1686
 6069TIP3    H139698   0.470   5.414   2.443  1.1789 -0.7981 -0.3387
 6069TIP3    H239699   0.522   5.319   2.550  1.6807  1.0717  1.1377
 6070TIP3   OH239700   6.457   2.573   0.685 -0.1157 -0.2680 -0.1138
 6070TIP3    H139701   6.406   2.509   0.635  1.2995 -0.4664 -1.3569
 6070TIP3    H239702   6.542   2.531   0.699  1.4807  1.9166 -2.4749
 6071TIP3   OH239703   4.765   4.915  11.607 -0.1735  0.3085 -0.1813
 6071TIP3    H139704   4.786   4.836  11.557  2.2830  0.0286  1.1358
 6071TIP3    H239705   4.709   4.884  11.679  0.0712 -0.1025 -0.1644
 6072TIP3   OH239706   6.475   6.347   0.784  0.3593  0.5444 -0.5467
 6072TIP3    H139707   6.388   6.350   0.823 -0.2746 -0.2953 -1.8368
 6072TIP3    H239708   6.515   6.267   0.820  0.5184  0.8117 -0.1255
 6073TIP3   OH239709   6.218   5.788   0.858  0.3609 -0.0010  0.0903
 6073TIP3    H139710   6.151   5.836   0.810 -0.4012 -0.6043  0.5273
 6073TIP3    H239711   6.244   5.716   0.800  0.7522  0.3245 -0.1431
 6074TIP3   OH239712   1.351   1.257   2.212 -0.0744  0.0265 -0.3200
 6074TIP3    H139713   1.275   1.313   2.201  0.0162  0.3182  0.5335
 6074TIP3    H239714   1.424   1.307   2.173  0.0070  0.5038  0.4368
 6075TIP3   OH239715   4.287   2.479  16.787  0.1665 -0.3296  0.2040
 6075TIP3    H139716   4.329   2.561  16.813  0.3272 -0.3158 -0.0875
 6075TIP3    H239717   4.252   2.443  16.868 -1.8409  1.0953  0.0322
 6076TIP3   OH239718   6.584   1.471   5.288  0.0490 -0.0575 -0.3967
 6076TIP3    H139719   6.672   1.500   5.262  2.2623 -1.7269  4.1358
 6076TIP3    H239720   6.574   1.504   5.377 -2.4869 -2.7341  0.4613
 6077TIP3   OH239721   4.569   5.606   3.440 -0.2266 -0.6777  0.4370
 6077TIP3    H139722   4.585   5.525   3.392 -0.6863 -2.6787  3.3742
 6077TIP3    H239723   4.654   5.650   3.442 -0.0300 -0.8963 -1.4448
 6078TIP3   OH239724   1.924   1.964  12.816  0.0458 -0.1323  0.0941
 6078TIP3    H139725   1.905   1.980  12.909 -1.2056 -1.2887  0.0590
 6078TIP3    H239726   1.911   2.049  12.774  0.3215  0.3318  0.9247
 6079TIP3   OH239727   3.818   5.854  16.934 -0.1109  0.2688  0.0964
 6079TIP3    H139728   3.799   5.768  16.897  0.4238  0.3612 -0.4056
 6079TIP3    H239729   3.846   5.836  17.023 -1.1753  0.0225  0.4001
 6080TIP3   OH239730   2.467   4.420  16.375 -0.5579 -0.1422  0.1115
 6080TIP3    H139731   2.552   4.392  16.340 -0.1779  1.3612 -0.2504
 6080TIP3    H239732   2.408   4.347  16.356  0.2499 -0.4681 -1.3016
 6081TIP3   OH239733   1.387   6.467  11.610  0.7852 -0.3858 -0.3872
 6081TIP3    H139734   1.357   6.419  11.687 -1.1222  1.2949  0.0032
 6081TIP3    H239735   1.368   6.409  11.536 -0.7112 -0.6211  0.1409
 6082TIP3   OH239736   6.186   4.559  11.992  0.3392 -0.2355  0.1995
 6082TIP3    H139737   6.180   4.655  11.986  0.8549 -0.2600 -0.8214
 6082TIP3    H239738   6.097   4.532  12.015 -0.1114  0.4195 -0.6845
 6083TIP3   OH239739   2.522   6.391   4.220  0.2719 -0.1693  0.2346
 6083TIP3    H139740   2.515   6.302   4.185  0.1486 -0.9042  2.0309
 6083TIP3    H239741   2.610   6.396   4.257  0.7417  0.9079 -0.9344
 6084TIP3   OH239742   3.037   4.282  15.826 -0.2785  0.4012  0.1614
 6084TIP3    H139743   3.078   4.361  15.791 -1.6206  0.8160 -0.5193
 6084TIP3    H239744   2.999   4.238  15.750 -0.3977 -0.3911  0.6646
 6085TIP3   OH239745   2.956   2.017  12.858  0.3022  0.1726  0.3781
 6085TIP3    H139746   2.886   1.991  12.918  0.9880  0.0353  1.1360
 6085TIP3    H239747   2.994   2.096  12.897 -0.7307  1.4736 -1.0849
 6086TIP3   OH239748   3.904   0.845   0.447  0.0125  0.1269 -0.9296
 6086TIP3    H139749   3.810   0.861   0.450 -0.0772 -0.4236 -0.6876
 6086TIP3    H239750   3.941   0.924   0.408 -0.4014  1.0224  0.4057
 6087TIP3   OH239751   3.336   2.752  15.317  0.1043 -0.2428  0.1324
 6087TIP3    H139752   3.418   2.801  15.316  0.7651 -1.3234 -0.0551
 6087TIP3    H239753   3.362   2.661  15.334 -0.9568 -0.7741 -0.9386
 6088TIP3   OH239754   6.689   6.510   3.630 -0.5457 -0.3748  0.5112
 6088TIP3    H139755   6.703   6.426   3.586 -0.4069 -0.4347  0.6726
 6088TIP3    H239756   6.715   6.575   3.565  0.7480 -0.4855  0.9055
 6089TIP3   OH239757   0.547   1.717   4.189  1.0806 -0.4674  0.2998
 6089TIP3    H139758   0.588   1.787   4.137 -1.1478 -1.9887 -3.9634
 6089TIP3    H239759   0.597   1.639   4.168  0.3775 -1.0618  0.7823
 6090TIP3   OH239760   1.390   5.729  11.722 -0.3684 -0.3103 -0.3882
 6090TIP3    H139761   1.462   5.773  11.677  0.8842 -2.4813 -0.6362
 6090TIP3    H239762   1.325   5.712  11.654  0.0372 -0.6196 -0.7020
 6091TIP3   OH239763   5.996   6.575  14.412  0.2821  0.7235  0.1900
 6091TIP3    H139764   6.083   6.601  14.382  0.6239  1.2235  1.5130
 6091TIP3    H239765   5.998   6.479  14.411  0.9615  0.7265  0.4962
 6092TIP3   OH239766   1.714   2.639  16.476  0.1294  0.3801 -0.1614
 6092TIP3    H139767   1.738   2.548  16.495 -0.6605 -0.0611 -1.1833
 6092TIP3    H239768   1.774   2.666  16.408  0.6300  0.7730  0.4263
 6093TIP3   OH239769   1.559   0.940   2.496  0.5864  0.4517  0.1649
 6093TIP3    H139770   1.625   1.009   2.497  0.0631  1.0076  2.6982
 6093TIP3    H239771   1.476   0.987   2.482  0.4309  0.0993 -0.1103
 6094TIP3   OH239772   0.920   6.703   3.881 -0.2351 -0.0954 -0.6109
 6094TIP3    H139773   1.012   6.717   3.905 -0.3956  0.7719 -0.4732
 6094TIP3    H239774   0.900   6.772   3.818 -1.0636  0.3141  0.0816
 6095TIP3   OH239775   0.497   4.768   1.755 -0.4194  0.1926 -0.0383
 6095TIP3    H139776   0.567   4.703   1.756 -0.4123  0.1894  1.5626
 6095TIP3    H239777   0.421   4.721   1.722  0.1219 -0.0158 -1.0306
 6096TIP3   OH239778   3.899   3.745   0.929 -0.4002  0.1680  1.0674
 6096TIP3    H139779   3.903   3.716   1.020  1.8543 -1.8457  0.4424
 6096TIP3    H239780   3.958   3.820   0.924  0.7347 -0.6913  1.0275
 6097TIP3   OH239781   5.738   3.831   0.047 -0.3753 -0.1625  0.1455
 6097TIP3    H139782   5.824   3.797   0.020 -0.7375  1.0429 -2.9009
 6097TIP3    H239783   5.680   3.809  -0.026 -1.9893  1.6696  0.8004
 6098TIP3   OH239784   5.971   1.023  13.014  0.5806 -0.2208 -0.2136
 6098TIP3    H139785   5.960   1.002  12.921 -0.1872  2.1756 -0.7432
 6098TIP3    H239786   5.904   0.971  13.058  1.4003 -1.9091 -0.8962
 6099TIP3   OH239787   0.925   5.731  15.597  0.2392  0.5820  0.3478
 6099TIP3    H139788   0.942   5.654  15.651 -1.9994  0.0678  0.4462
 6099TIP3    H239789   0.985   5.798  15.629  0.2000 -0.2541  2.2947
 6100TIP3   OH239790   2.609   2.721  11.578 -0.1427 -0.2665  0.1028
 6100TIP3    H139791   2.594   2.701  11.486 -0.4100  0.7443 -0.0897
 6100TIP3    H239792   2.551   2.795  11.596 -1.1214 -1.3210  1.4649
 6101TIP3   OH239793   4.094   4.445  12.882 -1.0691 -0.2229  0.5324
 6101TIP3    H139794   4.061   4.520  12.932 -0.9676  0.0667  0.1709
 6101TIP3    H239795   4.109   4.377  12.947 -2.1231 -0.2714  0.7346
 6102TIP3   OH239796   6.299   3.358  12.083  0.0770  0.2372  0.1121
 6102TIP3    H139797   6.372   3.316  12.129 -0.7354  1.5421  2.7879
 6102TIP3    H239798   6.333   3.445  12.059  0.2002 -0.1097 -1.0722
 6103TIP3   OH239799   3.348   0.245  15.227 -0.0033 -0.2133 -0.0896
 6103TIP3    H139800   3.346   0.169  15.167  1.9220 -2.1894  2.1458
 6103TIP3    H239801   3.322   0.209  15.311  2.3702  1.2461  1.3698
 6104TIP3   OH239802   4.377   0.298  13.552 -0.2690  0.3670  0.0707
 6104TIP3    H139803   4.366   0.378  13.500  0.7590  0.3880 -0.1286
 6104TIP3    H239804   4.469   0.276  13.543 -0.5485 -0.8825  0.0779
 6105TIP3   OH239805   3.143   1.958  14.048  0.0632  0.3973  0.4191
 6105TIP3    H139806   3.216   1.910  14.007 -0.8713 -0.8867  0.1832
 6105TIP3    H239807   3.185   2.017  14.111  1.3704  0.5533 -0.5675
 6106TIP3   OH239808   6.051   1.030   2.688  0.2901  0.7083 -0.0721
 6106TIP3    H139809   6.065   1.107   2.633  0.1109  0.3896 -0.5715
 6106TIP3    H239810   5.959   1.035   2.713  0.5506  1.2360  0.7927
 6107TIP3   OH239811   1.693   5.047  14.448  0.0568 -0.4215  0.3076
 6107TIP3    H139812   1.648   5.108  14.390  1.2122  0.6982  0.5486
 6107TIP3    H239813   1.786   5.064  14.433  0.3951 -0.1205  2.4458
 6108TIP3   OH239814   6.052   4.209  13.944  0.0190  0.6321  0.2003
 6108TIP3    H139815   5.998   4.152  13.999 -1.4069  2.8225  1.1853
 6108TIP3    H239816   6.138   4.166  13.943 -0.7893 -1.1356  1.4872
 6109TIP3   OH239817   4.834   4.824  12.473 -0.0910  0.5418 -0.3851
 6109TIP3    H139818   4.786   4.824  12.390  1.0719  2.1018 -1.0921
 6109TIP3    H239819   4.824   4.913  12.507  0.7846  0.3750  0.3488
 6110TIP3   OH239820   2.288   4.039   4.273  0.4987 -0.4440 -0.1972
 6110TIP3    H139821   2.265   4.132   4.269 -0.8670 -0.7048  0.8845
 6110TIP3    H239822   2.231   3.998   4.208  0.0403 -0.7064  0.3621
 6111TIP3   OH239823   5.459   2.084  16.456  0.0143  0.4884 -0.4088
 6111TIP3    H139824   5.504   2.098  16.540 -1.2339  0.6838  0.2499
 6111TIP3    H239825   5.477   2.163  16.406 -0.9007  1.2757  0.4700
 6112TIP3   OH239826   5.494   5.323   2.074  0.2140 -0.0216  0.1565
 6112TIP3    H139827   5.407   5.302   2.042 -0.4758  1.4636  0.9643
 6112TIP3    H239828   5.490   5.307   2.168  0.7027  0.3759  0.2542
 6113TIP3   OH239829   3.232   3.896  11.458 -0.3212 -0.6384  0.1053
 6113TIP3    H139830   3.248   3.983  11.496  1.0817 -1.0917  0.6188
 6113TIP3    H239831   3.258   3.905  11.366  0.9674 -0.8152  0.4419
 6114TIP3   OH239832   6.804   6.519   3.870  0.1768 -0.1142  0.0362
 6114TIP3    H139833   6.766   6.486   3.788 -1.3060  0.7286  0.3440
 6114TIP3    H239834   6.880   6.463   3.886 -0.7523 -1.6788 -0.8033
 6115TIP3   OH239835   6.392   0.684   0.930  0.2021  0.7993 -0.3227
 6115TIP3    H139836   6.324   0.701   0.865  0.7443  2.1929 -0.5596
 6115TIP3    H239837   6.344   0.656   1.008 -0.6476  1.6132 -0.5331
 6116TIP3   OH239838   5.261   3.893   3.546 -0.0081 -0.2242 -0.1126
 6116TIP3    H139839   5.354   3.880   3.563  0.0874 -0.4585 -0.7908
 6116TIP3    H239840   5.248   3.864   3.456 -1.0819 -1.9604  0.5442
 6117TIP3   OH239841   1.840   2.780   5.118 -0.4196 -0.8126 -0.1229
 6117TIP3    H139842   1.841   2.686   5.139  0.6148 -0.4220  1.7356
 6117TIP3    H239843   1.834   2.824   5.202  1.3253  0.8257 -0.7765
 6118TIP3   OH239844   0.221   3.634  12.701 -0.1089 -0.5959  0.1482
 6118TIP3    H139845   0.127   3.651  12.704 -0.0250 -0.0406 -0.2714
 6118TIP3    H239846   0.245   3.648  12.609  0.2623 -1.4190  0.1070
 6119TIP3   OH239847   5.722   6.591   6.060  0.2806 -0.7529 -0.1399
 6119TIP3    H139848   5.705   6.544   5.978  1.4989 -0.0003 -0.8555
 6119TIP3    H239849   5.653   6.656   6.065  1.5446  0.8307 -1.8832
 6120TIP3   OH239850   4.552   2.487  15.461  0.0129 -0.0081  0.3529
 6120TIP3    H139851   4.500   2.511  15.539  1.1273 -0.3117  1.2086
 6120TIP3    H239852   4.582   2.398  15.478  1.0222  0.2505 -0.0147
 6121TIP3   OH239853   4.077   4.520  10.899  0.0707  0.2267  0.6129
 6121TIP3    H139854   4.116   4.604  10.922 -0.3416  0.8792 -0.9072
 6121TIP3    H239855   4.143   4.455  10.922  2.3114  1.3036 -2.1693
 6122TIP3   OH239856   2.907   0.676  15.346 -0.2425  0.2557  0.0037
 6122TIP3    H139857   2.905   0.771  15.335 -1.6010  0.2547  0.1111
 6122TIP3    H239858   2.987   0.660  15.396 -1.5234  1.6841  2.7448
 6123TIP3   OH239859   5.913   6.202   1.460 -0.2902  0.1494 -0.1174
 6123TIP3    H139860   5.871   6.128   1.504  0.3849  0.3992  0.9780
 6123TIP3    H239861   5.979   6.232   1.522 -0.5585  1.6863 -0.5361
 6124TIP3   OH239862   1.497   3.715   1.495  0.7896  0.2295 -0.4068
 6124TIP3    H139863   1.421   3.751   1.448 -0.3767 -1.8799 -0.2973
 6124TIP3    H239864   1.499   3.623   1.468  2.3285 -0.1454  0.8749
 6125TIP3   OH239865   4.614   6.521  10.612  0.3052  0.0500  0.1648
 6125TIP3    H139866   4.605   6.432  10.576  1.8673 -0.2634  0.4711
 6125TIP3    H239867   4.707   6.528  10.636  0.1655  1.6970  0.3500
 6126TIP3   OH239868   0.049   2.881   5.569 -0.1539  0.1599 -0.0039
 6126TIP3    H139869   0.024   2.886   5.477  1.6087  1.8251 -0.4520
 6126TIP3    H239870   0.121   2.943   5.578  1.2142 -1.5714  2.0126
 6127TIP3   OH239871   4.712   0.814   0.768  0.6611 -0.0318  0.4380
 6127TIP3    H139872   4.780   0.753   0.798 -0.7822 -1.9758  0.0001
 6127TIP3    H239873   4.679   0.854   0.848  2.7699  1.5237  0.6030
 6128TIP3   OH239874   1.756   2.638   0.683 -0.3508 -0.7739  0.2169
 6128TIP3    H139875   1.805   2.571   0.732 -0.9250 -3.5046 -2.5709
 6128TIP3    H239876   1.666   2.605   0.682 -1.3522  1.7286  1.3036
 6129TIP3   OH239877   6.781   3.181  12.776 -0.0852  0.1628  0.5008
 6129TIP3    H139878   6.816   3.266  12.750 -0.3432  0.5110  1.2560
 6129TIP3    H239879   6.782   3.184  12.872  1.4025 -1.2996  0.5719
 6130TIP3   OH239880   2.517   1.926   5.947 -0.0835 -0.0674  1.2171
 6130TIP3    H139881   2.591   1.912   6.006 -0.0855 -1.8446  0.8483
 6130TIP3    H239882   2.541   2.004   5.896  0.8102  0.2945  2.1674
 6131TIP3   OH239883   5.428   4.741   2.842 -0.1550  0.4539  0.0678
 6131TIP3    H139884   5.401   4.833   2.843 -2.7172 -0.2447  0.5471
 6131TIP3    H239885   5.391   4.704   2.922 -0.1991 -1.2764 -0.7153
 6132TIP3   OH239886   5.144   5.617   4.079  0.6065 -0.4892  0.5702
 6132TIP3    H139887   5.134   5.596   3.987  0.4882  0.6166  0.3170
 6132TIP3    H239888   5.063   5.663   4.102  0.0221 -1.9648  1.5918
 6133TIP3   OH239889   0.940   5.719  15.110 -0.3784 -0.0610  0.0801
 6133TIP3    H139890   1.011   5.712  15.045  0.2112  1.3657  0.5417
 6133TIP3    H239891   0.978   5.771  15.181 -1.3464 -0.7586  1.1263
 6134TIP3   OH239892   1.709   1.344   0.335 -0.3360  0.3818 -0.5356
 6134TIP3    H139893   1.616   1.335   0.311 -0.1302  0.8594 -1.5808
 6134TIP3    H239894   1.731   1.434   0.312  0.6728 -0.0602 -1.3780
 6135TIP3   OH239895   5.356   5.094   2.650  0.2854  0.0367 -0.0366
 6135TIP3    H139896   5.427   5.148   2.687 -0.2488  0.7771 -0.0729
 6135TIP3    H239897   5.402   5.021   2.607  0.9449 -0.5640  1.5978
 6136TIP3   OH239898   2.713   3.888   5.367 -0.0205 -0.1989 -0.5068
 6136TIP3    H139899   2.653   3.926   5.304 -0.3933  1.2986  0.6824
 6136TIP3    H239900   2.741   3.805   5.328 -1.3610 -0.0068 -1.9373
 6137TIP3   OH239901   1.102   4.787   2.377  0.3984  0.1424 -0.2298
 6137TIP3    H139902   1.195   4.804   2.364  0.0024  0.4473 -3.4597
 6137TIP3    H239903   1.099   4.702   2.422  2.2523 -0.8485 -1.8406
 6138TIP3   OH239904   6.766   6.351   1.671 -0.1947  0.9112 -0.2547
 6138TIP3    H139905   6.791   6.434   1.712 -1.4454  1.8533 -1.2942
 6138TIP3    H239906   6.820   6.345   1.592  1.5611 -0.4590  0.9587
 6139TIP3   OH239907   1.115   5.077  16.888 -0.5701 -0.1927  0.2340
 6139TIP3    H139908   1.080   5.030  16.964  0.4241  1.7933  2.0224
 6139TIP3    H239909   1.198   5.033  16.869 -0.4758 -0.2466  0.7601
 6140TIP3   OH239910   6.367   2.787  10.403 -0.3122 -0.1676  0.1324
 6140TIP3    H139911   6.311   2.735  10.346 -0.9466 -0.6967  1.2017
 6140TIP3    H239912   6.449   2.796  10.355 -0.9833 -0.2035 -1.0452
 6141TIP3   OH239913   6.681   4.661   2.117 -0.2798 -0.2675  0.2264
 6141TIP3    H139914   6.742   4.653   2.191  0.1142 -0.8833 -0.1535
 6141TIP3    H239915   6.622   4.586   2.126  0.5426 -1.0721 -0.7610
 6142TIP3   OH239916   2.938   6.146  16.351 -0.0897 -0.0066  0.0387
 6142TIP3    H139917   2.868   6.176  16.293  0.5149 -0.3591 -0.9027
 6142TIP3    H239918   2.906   6.164  16.439 -1.4546 -0.3412 -0.3640
 6143TIP3   OH239919   1.895   1.558   3.603  0.0659 -0.6452  0.1380
 6143TIP3    H139920   1.920   1.536   3.693  2.0194 -0.9504 -0.4263
 6143TIP3    H239921   1.919   1.480   3.552 -0.5063 -0.2677 -0.7266
 6144TIP3   OH239922   0.955   5.761  12.127  0.1124  0.2958  0.0175
 6144TIP3    H139923   0.917   5.702  12.062 -1.8746  0.6915  0.7682
 6144TIP3    H239924   0.891   5.832  12.136  2.4255  2.6769 -0.8907
 6145TIP3   OH239925   6.490   1.539   5.794 -0.5651 -0.4180 -0.2159
 6145TIP3    H139926   6.543   1.473   5.750  0.5817 -0.2633  0.8538
 6145TIP3    H239927   6.429   1.488   5.848  0.7070 -0.6717  1.0651
 6146TIP3   OH239928   3.693   2.482  16.172 -0.1388  0.3642  0.2057
 6146TIP3    H139929   3.666   2.431  16.249 -0.8640  1.2501  0.5671
 6146TIP3    H239930   3.614   2.528  16.146  0.6721  1.9653  0.4255
 6147TIP3   OH239931   4.075   2.877   5.603  0.5055  0.2132  0.3380
 6147TIP3    H139932   3.984   2.906   5.609  0.3425 -0.0430 -0.7688
 6147TIP3    H239933   4.123   2.954   5.575  0.6819  0.4084  1.1360
 6148TIP3   OH239934   6.641   1.543  12.677 -0.8910  0.1054  0.0759
 6148TIP3    H139935   6.592   1.573  12.754 -0.9359 -2.8582  1.3413
 6148TIP3    H239936   6.585   1.567  12.603 -2.7489 -0.3153  1.2622
 6149TIP3   OH239937   0.764   6.792  14.513  0.2589 -0.1797 -0.1615
 6149TIP3    H139938   0.790   6.871  14.560 -0.5829  0.0301 -0.0326
 6149TIP3    H239939   0.691   6.756  14.565 -1.1412  0.4132 -1.6320
 6150TIP3   OH239940   0.104   0.410   3.472 -0.2870 -0.0269 -0.1380
 6150TIP3    H139941   0.150   0.377   3.549 -1.6761 -0.9341  0.3497
 6150TIP3    H239942   0.119   0.505   3.473  2.3278 -0.3742 -0.5703
 6151TIP3   OH239943   4.006   6.622   6.174 -0.7909 -0.3920 -0.0341
 6151TIP3    H139944   3.953   6.655   6.101 -0.5194 -0.8690 -0.4523
 6151TIP3    H239945   3.947   6.564   6.222 -0.5183 -1.2930 -0.7704
 6152TIP3   OH239946   4.954   6.548   0.893 -0.2505 -0.1423  0.2725
 6152TIP3    H139947   4.965   6.468   0.841  0.3624  0.1950 -0.1376
 6152TIP3    H239948   4.861   6.552   0.912 -0.4676 -0.3452 -0.6906
 6153TIP3   OH239949   0.441   4.187   2.636 -0.0120 -0.1975  0.5291
 6153TIP3    H139950   0.529   4.162   2.666 -0.5881 -0.6438  1.9490
 6153TIP3    H239951   0.400   4.225   2.714 -0.0122  3.0280 -0.8891
 6154TIP3   OH239952   5.149   1.769   5.389  0.6775  0.6282 -0.1891
 6154TIP3    H139953   5.216   1.735   5.330  1.1683  1.5503 -0.1795
 6154TIP3    H239954   5.158   1.864   5.383 -0.3341  0.7575  0.1557
 6155TIP3   OH239955   1.388   0.060   4.789  0.2730  0.0440  0.0021
 6155TIP3    H139956   1.425   0.093   4.708  0.7220 -0.9550 -0.2241
 6155TIP3    H239957   1.312   0.008   4.761 -0.0667  0.3823  0.2914
 6156TIP3   OH239958   6.446   5.742  15.364 -0.6085 -0.3580 -0.2097
 6156TIP3    H139959   6.430   5.836  15.366 -0.2260 -0.3029  1.7114
 6156TIP3    H239960   6.534   5.732  15.398 -1.1991 -1.4904  1.0833
 6157TIP3   OH239961   3.934   3.411  16.856 -0.9444  0.5026 -0.4905
 6157TIP3    H139962   4.008   3.445  16.906 -2.4287  2.1656  0.7223
 6157TIP3    H239963   3.919   3.475  16.787 -2.4789  1.3059  0.5353
 6158TIP3   OH239964   1.638   1.048  13.959  0.3933  0.1257 -0.7070
 6158TIP3    H139965   1.660   1.105  13.885 -0.5246  0.3386 -0.8235
 6158TIP3    H239966   1.544   1.032  13.951  0.2242  0.3755  0.5723
 6159TIP3   OH239967   1.731   3.584   4.368 -0.2796 -0.5596  0.7943
 6159TIP3    H139968   1.748   3.651   4.303 -1.0705  0.5241  1.6528
 6159TIP3    H239969   1.672   3.523   4.325  1.8207 -1.7293 -0.5857
 6160TIP3   OH239970   6.428   4.190   3.221  0.6522  0.1240  0.2511
 6160TIP3    H139971   6.370   4.194   3.298  0.5865  3.0916  0.1742
 6160TIP3    H239972   6.372   4.218   3.148  1.3666 -0.1850 -0.4214
 6161TIP3   OH239973   0.605   5.097  17.153 -0.2182  0.0750  0.9049
 6161TIP3    H139974   0.607   5.180  17.202 -1.0409 -0.6031  2.1305
 6161TIP3    H239975   0.513   5.084  17.131  0.0908  0.2212 -0.6438
 6162TIP3   OH239976   3.796   6.083  12.327  0.2267  0.3911  0.5860
 6162TIP3    H139977   3.774   6.146  12.396  0.2170 -0.8155  1.7260
 6162TIP3    H239978   3.713   6.037  12.310 -0.0557  1.4487 -1.0842
 6163TIP3   OH239979   4.322   2.523  15.280 -0.5836 -0.1690  0.8372
 6163TIP3    H139980   4.416   2.532  15.296 -0.1302 -0.5151 -1.3465
 6163TIP3    H239981   4.305   2.580  15.204 -1.8467 -1.2147  0.2938
 6164TIP3   OH239982   6.117   5.692   2.428 -0.1139  0.1415 -0.3553
 6164TIP3    H139983   6.104   5.787   2.420  1.5665  0.2441 -3.2109
 6164TIP3    H239984   6.198   5.684   2.479  0.3627  0.3054 -1.0750
 6165TIP3   OH239985   4.641   0.383  14.030  0.0243 -0.3566 -0.0335
 6165TIP3    H139986   4.593   0.448  14.080 -0.0881 -2.0516  2.2110
 6165TIP3    H239987   4.587   0.367  13.953  0.3902  2.6048 -1.0269
 6166TIP3   OH239988   4.186   0.187  15.826 -0.4133 -0.0138 -0.2579
 6166TIP3    H139989   4.160   0.153  15.741 -1.0814  0.6094 -0.3176
 6166TIP3    H239990   4.253   0.127  15.857 -0.7227 -0.6882 -0.8742
 6167TIP3   OH239991   5.122   4.019  10.726 -0.5410 -0.0881 -0.0474
 6167TIP3    H139992   5.127   3.988  10.636 -2.0020  1.1224 -0.5938
 6167TIP3    H239993   5.170   3.953  10.777  1.1079 -0.3087 -1.7840
 6168TIP3   OH239994   0.564   4.482  13.247  0.1557 -0.4853  0.2179
 6168TIP3    H139995   0.620   4.453  13.175  0.6281  0.3934  0.2246
 6168TIP3    H239996   0.476   4.453  13.221  0.6459 -2.3448  0.4597
 6169TIP3   OH239997   5.585   2.856  14.761 -0.6817 -0.7565  0.3061
 6169TIP3    H139998   5.553   2.944  14.741 -0.4882 -0.6215  0.5740
 6169TIP3    H239999   5.662   2.845  14.705 -1.3060 -1.1602 -0.4874
 6170TIP3   OH240000   3.103   2.800  16.453  0.2955  0.1099  0.9694
 6170TIP3    H140001   3.120   2.819  16.361 -2.3646  3.0905  0.9224
 6170TIP3    H240002   3.169   2.735  16.476  1.8439  0.1200 -2.6814
 6171TIP3   OH240003   3.387   3.297  13.486  1.0741 -0.3744 -0.2255
 6171TIP3    H140004   3.309   3.301  13.541  0.8994 -0.7873 -0.4391
 6171TIP3    H240005   3.420   3.387  13.485 -0.0948  0.0730 -1.1495
 6172TIP3   OH240006   3.261   2.868  13.205  0.4653  0.1729 -0.7173
 6172TIP3    H140007   3.174   2.896  13.231  1.0103  0.5574  0.8117
 6172TIP3    H240008   3.319   2.902  13.274  1.8608  0.2206 -1.8640
 6173TIP3   OH240009   6.749   3.795   5.056 -0.5352  0.5499 -0.0462
 6173TIP3    H140010   6.793   3.811   5.140  0.6378 -0.9937 -0.3356
 6173TIP3    H240011   6.813   3.747   5.004 -1.5466  0.7854 -1.5489
 6174TIP3   OH240012   4.961   4.995  15.459  0.0879  0.2935 -0.2437
 6174TIP3    H140013   4.899   5.051  15.506 -0.6043  1.1970 -2.1416
 6174TIP3    H240014   4.954   5.022  15.368  1.8208 -0.9852 -0.8147
 6175TIP3   OH240015   6.808   4.543  11.218 -0.0954  0.3847  0.3765
 6175TIP3    H140016   6.802   4.598  11.140 -1.6033  0.2646  0.3762
 6175TIP3    H240017   6.794   4.454  11.186 -0.1499  0.2712  0.7086
 6176TIP3   OH240018   4.390   3.533  14.040 -0.0954 -0.5423  0.1424
 6176TIP3    H140019   4.321   3.467  14.046 -0.7107  0.1741  1.4930
 6176TIP3    H240020   4.351   3.604  13.988  0.3847 -0.9991 -0.8697
 6177TIP3   OH240021   3.830   3.797  13.039  0.0009 -0.4701  0.7746
 6177TIP3    H140022   3.886   3.844  13.101  0.6029 -0.2758  0.0964
 6177TIP3    H240023   3.755   3.855  13.025  1.1347  0.6848 -0.6904
 6178TIP3   OH240024   0.572   1.644  13.567  0.0054  0.2078 -0.2540
 6178TIP3    H140025   0.513   1.581  13.609 -1.2264  0.5074 -1.4710
 6178TIP3    H240026   0.630   1.590  13.513 -0.4077  0.0513 -0.5421
 6179TIP3   OH240027   1.220   2.360   1.793  0.4293  0.8089  0.5231
 6179TIP3    H140028   1.199   2.335   1.703  0.5882 -1.0488  0.9674
 6179TIP3    H240029   1.170   2.440   1.808  0.7661  1.4197 -1.3580
 6180TIP3   OH240030   1.267   3.419   1.058 -0.9185 -0.0113 -0.3288
 6180TIP3    H140031   1.338   3.469   1.016  0.3254 -0.1510  1.5090
 6180TIP3    H240032   1.261   3.339   1.006 -1.4627  1.0606 -2.0079
 6181TIP3   OH240033   2.351   3.066   0.228 -0.0793 -0.4954 -0.3326
 6181TIP3    H140034   2.430   3.015   0.215 -0.1479 -0.9493  0.9299
 6181TIP3    H240035   2.358   3.137   0.163  0.6512 -1.3242 -1.1957
 6182TIP3   OH240036   4.172   1.329  14.772  0.6113 -0.1388  0.1316
 6182TIP3    H140037   4.258   1.359  14.741  1.3305 -1.5101  0.7071
 6182TIP3    H240038   4.191   1.247  14.817 -0.4590  1.2223  3.3577
 6183TIP3   OH240039   2.809   6.735  14.777 -0.7867 -0.2076  0.4033
 6183TIP3    H140040   2.755   6.657  14.767 -1.2478  0.2088 -0.5320
 6183TIP3    H240041   2.803   6.757  14.870  0.7775 -2.2590  1.0568
 6184TIP3   OH240042   6.579   4.991  15.994 -0.1334  0.2819  0.8452
 6184TIP3    H140043   6.619   5.075  16.015  1.0938  0.5380 -1.9778
 6184TIP3    H240044   6.517   5.011  15.924 -0.4269 -1.0189  0.7106
 6185TIP3   OH240045   0.573   3.310   5.586  0.4460  0.3566 -0.0591
 6185TIP3    H140046   0.649   3.315   5.644  2.2505 -0.4843 -2.2275
 6185TIP3    H240047   0.512   3.253   5.632  1.2191  0.7929  1.5957
 6186TIP3   OH240048   0.988   6.599   5.158  0.7769 -0.1633 -0.1394
 6186TIP3    H140049   0.998   6.685   5.198 -0.9339 -0.0751  0.1312
 6186TIP3    H240050   1.077   6.577   5.128  1.3070  1.5237  0.0857
 6187TIP3   OH240051   4.325   5.195   4.053 -0.1709 -0.8981 -0.0190
 6187TIP3    H140052   4.295   5.180   3.963  1.5236 -1.6570 -0.5012
 6187TIP3    H240053   4.420   5.185   4.048  0.1005  0.4960  1.5944
 6188TIP3   OH240054   6.067   6.158  13.435 -0.2009 -0.0529  0.3363
 6188TIP3    H140055   5.976   6.175  13.409  0.4514  0.1487 -2.0548
 6188TIP3    H240056   6.113   6.240  13.417  0.6124 -0.4090  0.7576
 6189TIP3   OH240057   1.217   6.378  14.569 -0.5257 -0.1466 -0.1173
 6189TIP3    H140058   1.145   6.397  14.509 -0.3400  1.8294  0.2052
 6189TIP3    H240059   1.289   6.433  14.537  0.4829 -1.2315  0.2321
 6190TIP3   OH240060   1.934   0.287   5.584 -0.1471 -0.0243  0.2787
 6190TIP3    H140061   1.924   0.370   5.537  1.2407  1.2417  2.0640
 6190TIP3    H240062   1.917   0.308   5.676  1.7890 -1.3250  1.0093
 6191TIP3   OH240063   5.639   1.583  12.739 -0.6979  0.4219  0.5426
 6191TIP3    H140064   5.713   1.563  12.682 -2.5975 -0.4611 -1.7842
 6191TIP3    H240065   5.645   1.519  12.809  1.6631  1.4922  1.4447
 6192TIP3   OH240066   2.419   5.141  16.871  0.3325 -0.3296 -0.0238
 6192TIP3    H140067   2.443   5.234  16.872 -0.5138 -0.1047  0.1664
 6192TIP3    H240068   2.456   5.106  16.952  0.9157 -0.2395 -0.2401
 6193TIP3   OH240069   6.195   2.045  16.967  0.3341 -0.1062 -0.1949
 6193TIP3    H140070   6.187   2.002  16.882  0.7671  0.0102 -0.2984
 6193TIP3    H240071   6.197   2.139  16.946 -2.0753  0.0666  0.1351
 6194TIP3   OH240072   4.988   6.008   5.768  0.3020  0.0434 -0.2409
 6194TIP3    H140073   4.969   5.939   5.831 -0.8011  0.0612 -0.5287
 6194TIP3    H240074   4.938   6.084   5.800  1.3216  0.6571 -0.0455
 6195TIP3   OH240075   0.415   3.939  13.946  0.0339  0.1268 -0.2429
 6195TIP3    H140076   0.474   3.880  13.898 -0.0955 -0.1902 -0.0187
 6195TIP3    H240077   0.389   3.889  14.024 -0.0463  0.4956 -0.0262
 6196TIP3   OH240078   1.356   5.333   1.281 -0.5245 -0.2024 -0.4900
 6196TIP3    H140079   1.327   5.262   1.223  1.2714 -1.6529  0.3109
 6196TIP3    H240080   1.435   5.300   1.322 -1.1062  1.2229  1.9696
 6197TIP3   OH240081   2.479   0.453  12.445 -0.2697 -0.0444  0.2441
 6197TIP3    H140082   2.425   0.375  12.459  0.4010 -0.6714 -0.5240
 6197TIP3    H240083   2.562   0.418  12.411  0.4613  0.9218  0.9715
 6198TIP3   OH240084   2.254   3.729  13.754  0.1233  0.6729  0.1338
 6198TIP3    H140085   2.227   3.643  13.721  2.0611  0.0125  0.1099
 6198TIP3    H240086   2.264   3.716  13.848 -0.6739  1.2159  0.3051
 6199TIP3   OH240087   2.992   1.631   2.596 -0.3855 -0.7856 -0.0385
 6199TIP3    H140088   2.978   1.550   2.548  2.3266 -0.3688 -1.6939
 6199TIP3    H240089   3.041   1.605   2.674  0.2924 -0.7874 -0.4590
 6200TIP3   OH240090   5.597   0.815  16.307 -0.1888 -0.3454  0.4863
 6200TIP3    H140091   5.512   0.852  16.282 -0.0655 -0.8753 -0.7736
 6200TIP3    H240092   5.578   0.725  16.331 -0.1600 -0.1003  1.4957
 6201TIP3   OH240093   0.086   6.348   2.364 -0.1196  0.2827 -0.0958
 6201TIP3    H140094   0.086   6.379   2.274 -1.7198 -1.3407 -0.7135
 6201TIP3    H240095   0.118   6.258   2.359  1.1321  0.6164  1.1862
 6202TIP3   OH240096   3.356   1.411   0.098  0.0013 -0.5161 -0.4707
 6202TIP3    H140097   3.360   1.383   0.006 -0.3821 -0.6548 -0.4502
 6202TIP3    H240098   3.325   1.334   0.145  1.1596 -0.7509 -0.0745
 6203TIP3   OH240099   3.826   2.237   5.917 -0.0849 -0.1017 -0.1275
 6203TIP3    H140100   3.804   2.221   6.008 -0.3049  1.8844  0.2099
 6203TIP3    H240101   3.895   2.303   5.919  0.0417 -0.1511 -1.4130
 6204TIP3   OH240102   5.813   0.941   1.380  0.6028 -0.1493 -0.2430
 6204TIP3    H140103   5.744   1.005   1.361  0.2296 -0.7462 -0.9366
 6204TIP3    H240104   5.770   0.877   1.437  1.2243  0.6717  1.2263
 6205TIP3   OH240105   1.370   1.553   2.915 -0.1421  0.1297  0.1197
 6205TIP3    H140106   1.311   1.567   2.989  1.3072  1.0923  1.1366
 6205TIP3    H240107   1.334   1.610   2.846 -0.7764  0.2056  0.5014
 6206TIP3   OH240108   0.670   3.618   5.069 -0.1532 -0.2181 -0.0360
 6206TIP3    H140109   0.587   3.603   5.024  1.3882 -0.8003 -2.8979
 6206TIP3    H240110   0.679   3.714   5.071 -0.5476 -0.1735 -0.4026
 6207TIP3   OH240111   2.525   2.500   1.094 -0.1109  0.0778 -0.0223
 6207TIP3    H140112   2.540   2.417   1.140 -0.5918  1.4814  2.9198
 6207TIP3    H240113   2.431   2.501   1.075  0.4085 -1.5543 -3.5323
 6208TIP3   OH240114   3.050   2.064   2.997 -0.0061  0.3094 -0.1183
 6208TIP3    H140115   3.139   2.044   3.024 -0.2851 -0.0543  0.5565
 6208TIP3    H240116   2.997   1.993   3.034 -0.7315  1.1304  0.4594
 6209TIP3   OH240117   0.973   2.796   5.652  0.1975 -0.3184  0.1094
 6209TIP3    H140118   1.018   2.823   5.732  1.1959 -0.2717 -0.4525
 6209TIP3    H240119   1.020   2.841   5.581 -0.2167 -0.9138 -0.5644
 6210TIP3   OH240120   1.903   6.310   4.248  0.0352  0.1924  0.4549
 6210TIP3    H140121   1.814   6.324   4.281 -0.1479 -0.3522  0.2109
 6210TIP3    H240122   1.909   6.215   4.236  0.6531  0.2268  0.4743
 6211TIP3   OH240123   2.668   1.376  12.711 -0.0880  0.0270  0.4674
 6211TIP3    H140124   2.682   1.359  12.804 -0.9612 -1.8955  0.3074
 6211TIP3    H240125   2.580   1.413  12.706  0.1115  0.5009  0.4325
 6212TIP3   OH240126   2.064   5.039   5.812  0.2213 -0.4429  0.2409
 6212TIP3    H140127   2.014   5.005   5.738 -0.5117 -0.7703  0.8803
 6212TIP3    H240128   2.000   5.087   5.865  0.9104  0.5601  0.2137
 6213TIP3   OH240129   5.123   5.900  11.150 -0.2811  0.0188  0.3452
 6213TIP3    H140130   5.187   5.932  11.087  2.6263  0.9315  3.4632
 6213TIP3    H240131   5.060   5.971  11.159 -0.4484  0.0704 -1.1107
 6214TIP3   OH240132   6.064   2.024   0.341 -0.3229 -0.2275 -0.3541
 6214TIP3    H140133   6.102   1.996   0.258 -0.0106 -0.9486  0.0256
 6214TIP3    H240134   5.991   1.964   0.355 -1.6506  1.1355 -1.0748
 6215TIP3   OH240135   1.682   4.670  12.454 -0.4040 -0.4566  0.1653
 6215TIP3    H140136   1.700   4.688  12.362 -0.0403  1.2409  0.5346
 6215TIP3    H240137   1.587   4.674  12.462 -0.3555  1.1549  0.1701
 6216TIP3   OH240138   0.969   3.779  14.144 -0.3104 -0.1156 -0.0283
 6216TIP3    H140139   0.908   3.751  14.213 -2.3543  0.2848 -1.5813
 6216TIP3    H240140   0.915   3.786  14.065  1.5117  1.5035 -1.2291
 6217TIP3   OH240141   0.235   4.955   4.090 -0.9688 -0.0850 -0.1861
 6217TIP3    H140142   0.231   4.932   4.183 -0.3013  0.8504  0.0907
 6217TIP3    H240143   0.323   4.928   4.063 -0.8281  0.4781 -0.3050
 6218TIP3   OH240144   6.302   0.594  15.283 -0.0429 -0.5072 -0.5986
 6218TIP3    H140145   6.262   0.596  15.369 -0.2427 -0.2169 -0.6966
 6218TIP3    H240146   6.372   0.659  15.288  0.3259 -0.9064 -0.4738
 6219TIP3   OH240147   5.806   2.151  11.494 -0.2033 -0.5698  0.0900
 6219TIP3    H140148   5.837   2.137  11.583 -0.0847  1.2040  0.3678
 6219TIP3    H240149   5.718   2.186  11.504 -1.0883 -2.4509 -0.5976
 6220TIP3   OH240150   2.217   3.141   5.117 -0.1657 -0.0588 -0.2420
 6220TIP3    H140151   2.238   3.162   5.208 -0.7299  1.4722 -0.4371
 6220TIP3    H240152   2.199   3.225   5.076  0.8266 -0.6353 -1.9875
 6221TIP3   OH240153   4.448   6.148  10.957 -0.2841  0.9501  0.1584
 6221TIP3    H140154   4.401   6.149  11.041  0.4464  1.4189  0.5673
 6221TIP3    H240155   4.421   6.065  10.917 -0.9950  0.9308  0.6512
 6222TIP3   OH240156   4.844   5.144  12.205 -0.2539 -0.0121  0.1533
 6222TIP3    H140157   4.939   5.145  12.201 -0.1080  2.3621  1.9706
 6222TIP3    H240158   4.816   5.209  12.139 -0.5256  0.3325  0.6028
 6223TIP3   OH240159   5.422   4.917  11.897  0.0623 -0.5935  0.2254
 6223TIP3    H140160   5.396   5.009  11.907  0.9948 -0.0181 -1.8984
 6223TIP3    H240161   5.473   4.916  11.815 -0.3098 -3.0853 -0.0460
 6224TIP3   OH240162   0.874   2.238   2.441 -0.3272  0.0167  0.1328
 6224TIP3    H140163   0.894   2.265   2.351  0.2385 -0.8225 -0.0121
 6224TIP3    H240164   0.929   2.161   2.455  0.5061  0.8353  1.6249
 6225TIP3   OH240165   1.682   1.234   1.312 -0.0131  0.0583 -0.3453
 6225TIP3    H140166   1.731   1.233   1.394 -0.1695  1.2202 -0.2141
 6225TIP3    H240167   1.730   1.297   1.258 -1.3516  1.2231 -0.2133
 6226TIP3   OH240168   1.571   2.290  14.786  0.4177 -0.0461 -0.0292
 6226TIP3    H140169   1.661   2.261  14.800  0.6536  1.4292  1.9362
 6226TIP3    H240170   1.542   2.322  14.871 -2.1421 -0.8221 -0.4988
 6227TIP3   OH240171   6.139   6.560  15.570  0.4311  0.6272 -0.0921
 6227TIP3    H140172   6.193   6.638  15.557 -1.7860  2.2145 -0.4039
 6227TIP3    H240173   6.077   6.562  15.498  0.6065 -1.7407 -0.3749
 6228TIP3   OH240174   6.312   2.264  13.522  0.1778 -0.0978  0.3334
 6228TIP3    H140175   6.240   2.319  13.492  0.5637  0.1282 -0.1911
 6228TIP3    H240176   6.337   2.212  13.446 -0.8317 -1.7482  1.0674
 6229TIP3   OH240177   5.373   0.412   2.243 -0.2109 -0.3128 -0.0406
 6229TIP3    H140178   5.452   0.465   2.233  0.4418 -0.6350  2.7086
 6229TIP3    H240179   5.398   0.324   2.214  0.0619 -0.1657 -0.2567
 6230TIP3   OH240180   3.691   3.151   6.211  0.1030 -0.4870  0.1157
 6230TIP3    H140181   3.675   3.202   6.291  0.8693 -3.9195  2.7022
 6230TIP3    H240182   3.633   3.075   6.219  0.8638 -1.4074 -2.1837
 6231TIP3   OH240183   3.050   3.592   5.426  0.5397 -0.2127 -0.0019
 6231TIP3    H140184   3.082   3.595   5.516  2.2058  0.1445 -0.5625
 6231TIP3    H240185   3.029   3.500   5.411  0.5486 -0.3252  0.6538
 6232TIP3   OH240186   1.874   1.549   4.808  0.4367  0.3024 -0.5459
 6232TIP3    H140187   1.804   1.524   4.747  1.6420 -1.6822 -1.2009
 6232TIP3    H240188   1.833   1.544   4.895 -0.8161  1.4125 -1.0410
 6233TIP3   OH240189   2.525   2.735   3.339  0.2172 -0.0820  0.0546
 6233TIP3    H140190   2.431   2.744   3.323  0.3928 -1.7282 -2.3505
 6233TIP3    H240191   2.532   2.661   3.398 -0.0085  0.8155  1.2531
 6234TIP3   OH240192   5.026   6.086   4.560 -0.0814  0.5668 -0.0912
 6234TIP3    H140193   5.095   6.058   4.620 -0.2251  1.9106  0.7265
 6234TIP3    H240194   5.015   6.012   4.500  0.7790 -0.3919  0.9004
 6235TIP3   OH240195   2.987   4.177   5.599 -0.2135  0.0183  0.3669
 6235TIP3    H140196   2.917   4.115   5.576 -0.2952  0.3360 -0.2904
 6235TIP3    H240197   2.941   4.258   5.618  0.0099  0.4550 -0.8680
 6236TIP3   OH240198   5.973   0.290   2.942  0.3379  0.3940 -0.8966
 6236TIP3    H140199   5.910   0.224   2.913  0.5918 -0.8617  1.1931
 6236TIP3    H240200   6.007   0.328   2.861 -2.1960  0.2600 -2.0944
 6237TIP3   OH240201   2.984   3.813  15.588  0.7700 -0.1968 -0.0984
 6237TIP3    H140202   2.962   3.728  15.550 -0.0487 -0.4422  0.8866
 6237TIP3    H240203   3.015   3.865  15.514 -1.6599 -0.3395 -1.3182
 6238TIP3   OH240204   4.771   6.138   0.225  0.6114 -0.0958 -0.3377
 6238TIP3    H140205   4.802   6.205   0.164  0.3227  3.0465  2.6740
 6238TIP3    H240206   4.850   6.107   0.269  0.5687 -0.4399 -0.5007
 6239TIP3   OH240207   3.259   4.391   5.400  0.4819  0.7542  0.0053
 6239TIP3    H140208   3.317   4.440   5.457  0.4195 -1.3504  2.0203
 6239TIP3    H240209   3.171   4.407   5.436  0.1354  1.4340 -1.1028
 6240TIP3   OH240210   2.281   1.671  16.531  0.3962 -0.3478 -0.4205
 6240TIP3    H140211   2.279   1.724  16.452  1.7922 -1.7160 -1.4385
 6240TIP3    H240212   2.216   1.602  16.515 -0.2163  0.0840  0.1753
 6241TIP3   OH240213   0.261   4.701  14.705 -0.0234  0.4458  0.0675
 6241TIP3    H140214   0.251   4.775  14.765 -0.1434 -0.7416  1.6041
 6241TIP3    H240215   0.324   4.730  14.639  1.0167  1.4369  1.4497
 6242TIP3   OH240216   2.747   4.241   0.582 -0.5804  0.2334 -0.6862
 6242TIP3    H140217   2.825   4.280   0.544  0.2121 -0.2206  0.4094
 6242TIP3    H240218   2.753   4.148   0.558 -0.8986  0.2351 -0.7763
 6243TIP3   OH240219   6.688   6.586  13.098 -0.3926 -0.1005 -0.3527
 6243TIP3    H140220   6.638   6.668  13.107  1.3142  0.7654  4.1099
 6243TIP3    H240221   6.761   6.609  13.040  0.0843  1.6728  0.8563
 6244TIP3   OH240222   6.608   6.233   3.001 -0.6541  0.6981 -0.0472
 6244TIP3    H140223   6.541   6.172   2.971 -0.0789 -0.5918  1.2002
 6244TIP3    H240224   6.675   6.232   2.933  0.8431 -2.5148  1.2779
 6245TIP3   OH240225   0.279   0.766   5.866  0.3736 -0.0434 -0.0147
 6245TIP3    H140226   0.291   0.808   5.951  1.1203  0.5755 -0.4100
 6245TIP3    H240227   0.367   0.764   5.828  0.0776 -0.4943 -0.6857
 6246TIP3   OH240228   0.100   2.626  14.260  0.4540 -0.0601  0.0865
 6246TIP3    H140229   0.010   2.607  14.283  0.6567  0.3002  1.2523
 6246TIP3    H240230   0.148   2.545  14.278  0.7016  0.3806  1.5055
 6247TIP3   OH240231   6.244   3.191  12.583 -0.1218 -0.1660  0.3272
 6247TIP3    H140232   6.316   3.248  12.610  0.6103 -1.1167  0.4689
 6247TIP3    H240233   6.227   3.136  12.659 -2.1432  1.1220  0.8681
 6248TIP3   OH240234   0.864   2.502   5.414 -0.3796 -0.0376 -0.0538
 6248TIP3    H140235   0.850   2.428   5.355 -0.3568 -0.0176 -0.0847
 6248TIP3    H240236   0.942   2.546   5.380 -0.0337 -0.3512  0.3227
 6249TIP3   OH240237   4.851   4.220  14.081 -0.4826  0.3152  0.0485
 6249TIP3    H140238   4.914   4.151  14.062  1.0348  0.6968  3.0313
 6249TIP3    H240239   4.769   4.174  14.097  0.2843 -0.7671  1.0675
 6250TIP3   OH240240   2.076   1.522  13.097 -0.0851 -0.5416  0.0700
 6250TIP3    H140241   2.072   1.505  13.003 -0.8103 -0.6339  0.1151
 6250TIP3    H240242   2.106   1.613  13.104 -2.4441  0.3316 -0.3297
 6251TIP3   OH240243   2.588   4.980  12.937 -1.0775  0.3511 -0.0075
 6251TIP3    H140244   2.589   5.069  12.902 -0.1457 -0.0656 -1.1179
 6251TIP3    H240245   2.496   4.964  12.959 -1.4332  1.2250 -0.7612
 6252TIP3   OH240246   1.084   4.242   1.797 -0.0721  0.2280  0.0588
 6252TIP3    H140247   1.084   4.155   1.757 -0.3048  0.8387 -1.3028
 6252TIP3    H240248   1.164   4.245   1.850  0.6887 -0.2888 -1.0420
 6253TIP3   OH240249   6.531   5.040  13.569  0.4268 -0.0979  0.1907
 6253TIP3    H140250   6.624   5.029  13.592  0.2685 -0.4029  0.7199
 6253TIP3    H240251   6.488   5.054  13.653  0.0743  0.6680 -0.1157
 6254TIP3   OH240252   0.672   6.300  12.493 -0.5758  0.4980  0.3727
 6254TIP3    H140253   0.633   6.383  12.522  0.3981  1.0634  0.0921
 6254TIP3    H240254   0.738   6.279  12.559 -1.2182 -0.3785  0.7621
 6255TIP3   OH240255   0.964   2.148   3.784  0.0607 -0.1079  1.1566
 6255TIP3    H140256   0.959   2.092   3.706  0.5419  1.2801  0.0894
 6255TIP3    H240257   1.040   2.114   3.832  1.7264  0.9004 -0.5807
 6256TIP3   OH240258   6.187   5.041   3.466 -0.7066 -0.2676  0.1660
 6256TIP3    H140259   6.192   5.086   3.382 -1.1906  0.1948  0.3829
 6256TIP3    H240260   6.095   5.014   3.474 -0.6142 -0.5112  0.4434
 6257TIP3   OH240261   2.358   4.189   1.426 -0.6024 -0.4834  0.1670
 6257TIP3    H140262   2.314   4.273   1.414 -0.4477 -0.5545 -1.1128
 6257TIP3    H240263   2.290   4.131   1.460 -0.6607  0.1912  1.2407
 6258TIP3   OH240264   0.300   3.441  15.347 -0.0426 -0.4359 -0.6290
 6258TIP3    H140265   0.365   3.380  15.384  0.0839 -0.4995 -0.9497
 6258TIP3    H240266   0.298   3.419  15.254 -0.8209 -0.7008 -0.5537
 6259TIP3   OH240267   4.892   0.754   1.450  0.3972 -0.0091 -0.0081
 6259TIP3    H140268   4.846   0.718   1.526 -0.2868 -1.4510 -1.0476
 6259TIP3    H240269   4.977   0.780   1.483  0.0559 -0.4652  1.2786
 6260TIP3   OH240270   4.457   0.706  15.505 -0.2915  0.0398 -0.2261
 6260TIP3    H140271   4.380   0.691  15.450  1.3083 -0.0634 -2.6064
 6260TIP3    H240272   4.514   0.763  15.452  0.6787  1.3417  2.0356
 6261TIP3   OH240273   3.408   4.720  14.207 -0.3529 -0.3984  0.2039
 6261TIP3    H140274   3.368   4.658  14.268 -0.3142  0.0422  0.6807
 6261TIP3    H240275   3.353   4.715  14.129 -0.9291 -0.3085  0.5997
 6262TIP3   OH240276   3.506   3.096  16.737 -0.5217 -0.2094  0.7003
 6262TIP3    H140277   3.599   3.101  16.716 -0.7739 -0.5309 -0.6511
 6262TIP3    H240278   3.487   3.175  16.786  0.5234 -0.2874  1.2469
 6263TIP3   OH240279   3.525   6.074  11.111 -0.1238  0.4453 -0.2807
 6263TIP3    H140280   3.472   5.999  11.136 -0.5768  0.6831 -0.5157
 6263TIP3    H240281   3.610   6.058  11.152 -0.5701  0.3836  0.6642
 6264TIP3   OH240282   5.108   2.216  12.800  0.2849 -0.1050  0.2663
 6264TIP3    H140283   5.106   2.257  12.713 -0.1790 -1.5362 -0.4305
 6264TIP3    H240284   5.195   2.176  12.806  0.6533  0.7553  0.8488
 6265TIP3   OH240285   0.210   1.161  15.533  0.5502 -0.4119 -0.2202
 6265TIP3    H140286   0.131   1.134  15.487 -0.9136 -0.5781  2.2392
 6265TIP3    H240287   0.271   1.089  15.521  0.2316 -0.4592 -1.8083
 6266TIP3   OH240288   0.236   5.065   3.767 -0.0481  0.1769  0.4614
 6266TIP3    H140289   0.170   5.055   3.835  0.2222 -1.1742  0.5531
 6266TIP3    H240290   0.217   4.995   3.705  2.4873 -1.5570  1.5016
 6267TIP3   OH240291   0.288   3.678  16.511  0.3474  0.0748  0.6564
 6267TIP3    H140292   0.342   3.727  16.449 -1.4160  1.8109  0.3766
 6267TIP3    H240293   0.264   3.598  16.465  1.4146 -0.0100  0.2229
 6268TIP3   OH240294   6.102   1.841   0.988  0.1275 -0.1878  0.1536
 6268TIP3    H140295   6.112   1.837   0.893  0.1508 -1.6692  0.1873
 6268TIP3    H240296   6.055   1.923   1.004 -0.8637 -0.4408 -1.2316
 6269TIP3   OH240297   5.555   1.669   6.034  0.0731 -0.0423  0.0662
 6269TIP3    H140298   5.535   1.593   5.978  0.9765  1.1329 -1.9318
 6269TIP3    H240299   5.638   1.646   6.077  1.1146  0.3710 -1.6578
 6270TIP3   OH240300   6.343   3.060  10.606 -0.3336  0.3720 -0.3437
 6270TIP3    H140301   6.294   3.002  10.665 -0.8190  1.2227  0.0957
 6270TIP3    H240302   6.347   3.011  10.523 -1.4475  0.0502 -0.2274
 6271TIP3   OH240303   6.577   5.913  16.114 -0.4711  0.2698 -0.4298
 6271TIP3    H140304   6.606   5.822  16.113  1.8625  0.9469 -1.0206
 6271TIP3    H240305   6.658   5.964  16.121 -1.6128  2.3402 -1.3320
 6272TIP3   OH240306   6.320   3.749   2.996  0.7855 -0.3349  0.1282
 6272TIP3    H140307   6.367   3.831   2.980 -0.6012  0.8566  1.8107
 6272TIP3    H240308   6.252   3.747   2.929  1.9983 -1.1386 -1.1390
 6273TIP3   OH240309   1.769   3.708   2.108  0.0471  0.3729  0.0222
 6273TIP3    H140310   1.795   3.794   2.076  1.5145 -0.4852 -1.3107
 6273TIP3    H240311   1.849   3.671   2.144 -0.0908 -1.0833 -1.0634
 6274TIP3   OH240312   3.942   6.790  12.850  0.4144 -0.1378  0.4635
 6274TIP3    H140313   3.868   6.827  12.899 -0.6865 -1.1405 -0.3664
 6274TIP3    H240314   3.938   6.696  12.870 -0.2270 -0.6148 -1.6861
 6275TIP3   OH240315   4.640   0.441  16.723  0.4711  0.6909 -0.1793
 6275TIP3    H140316   4.633   0.391  16.642 -0.0174  0.6744 -0.1309
 6275TIP3    H240317   4.552   0.474  16.739 -0.2320 -1.7928  1.9296
 6276TIP3   OH240318   2.223   2.238   5.381  0.3920 -0.2302  0.6576
 6276TIP3    H140319   2.180   2.308   5.430  0.2422 -0.8690  1.4539
 6276TIP3    H240320   2.163   2.217   5.310  0.1910  0.0816  0.7359
 6277TIP3   OH240321   3.422   5.776  14.110  0.3765  0.1608  0.0531
 6277TIP3    H140322   3.352   5.841  14.120  0.6073  0.6742 -1.4365
 6277TIP3    H240323   3.402   5.709  14.175  0.5426  2.0521  2.1941
 6278TIP3   OH240324   4.683   0.382   6.782 -0.4484  0.2327  0.2595
 6278TIP3    H140325   4.748   0.343   6.723  1.2307  2.6609  0.3736
 6278TIP3    H240326   4.631   0.439   6.725  0.6475  1.9485  0.9057
 6279TIP3   OH240327   4.504   6.336   4.987 -0.2191  0.3170 -0.0283
 6279TIP3    H140328   4.561   6.282   5.042  0.6168  1.0975 -0.1003
 6279TIP3    H240329   4.438   6.275   4.955  0.0426 -0.4270  0.7855
 6280TIP3   OH240330   1.517   4.784  11.180 -0.2072 -0.7234 -0.0441
 6280TIP3    H140331   1.536   4.694  11.204  0.2535 -0.3681  1.0003
 6280TIP3    H240332   1.576   4.803  11.107  0.3871 -0.9582  0.3757
 6281TIP3   OH240333   2.240   3.522   2.690 -0.1517 -0.9587 -0.0392
 6281TIP3    H140334   2.321   3.532   2.640  0.2058 -1.5546  0.3986
 6281TIP3    H240335   2.250   3.583   2.763 -0.1388 -0.9586 -0.0410
 6282TIP3   OH240336   1.467   6.444  13.534 -0.3687 -0.7014 -1.1301
 6282TIP3    H140337   1.412   6.507  13.487  0.3277 -0.5689 -1.7917
 6282TIP3    H240338   1.503   6.389  13.465  2.4330  0.8554 -1.0377
 6283TIP3   OH240339   3.896   6.648   4.854  0.1018  0.1405  0.4127
 6283TIP3    H140340   3.928   6.583   4.791 -0.5578  0.7707 -0.6055
 6283TIP3    H240341   3.835   6.599   4.910  0.9521 -0.5018  0.7914
 6284TIP3   OH240342   5.004   5.990   2.556 -0.6864 -1.0435  0.0908
 6284TIP3    H140343   4.975   5.899   2.561  0.8325 -1.5090  1.1203
 6284TIP3    H240344   5.019   6.005   2.463 -1.3227 -1.7091 -0.1313
 6285TIP3   OH240345   1.879   5.049   4.487 -0.4478 -0.1173  0.7444
 6285TIP3    H140346   1.837   5.025   4.570  1.1915 -1.5500  1.2111
 6285TIP3    H240347   1.830   5.002   4.420 -0.6560 -0.4138  1.1044
 6286TIP3   OH240348   3.022   1.812   1.523  0.0564 -0.3259 -0.3217
 6286TIP3    H140349   3.029   1.789   1.616 -0.9771 -1.6983 -0.5556
 6286TIP3    H240350   3.108   1.848   1.501 -0.0188  1.0405  1.4177
 6287TIP3   OH240351   6.452   2.303   3.951  0.3912  0.0365  0.2641
 6287TIP3    H140352   6.393   2.327   3.879 -0.7520 -0.4157  1.0226
 6287TIP3    H240353   6.502   2.383   3.969  0.1707  0.3655 -0.5419
 6288TIP3   OH240354   3.782   6.284   5.288  0.1147  0.0494  0.0405
 6288TIP3    H140355   3.875   6.304   5.300 -0.0052  1.0590 -0.5867
 6288TIP3    H240356   3.737   6.364   5.312 -0.6573 -0.6226  0.9253
 6289TIP3   OH240357   2.512   1.639   0.633 -0.3044  0.1974  0.4616
 6289TIP3    H140358   2.477   1.717   0.677  1.2038 -0.0348  2.1877
 6289TIP3    H240359   2.580   1.672   0.575 -0.0994  0.2273  0.7178
 6290TIP3   OH240360   4.643   1.903  12.605 -0.0755 -0.1200  0.6123
 6290TIP3    H140361   4.571   1.919  12.544 -1.2624 -0.3485  1.8985
 6290TIP3    H240362   4.689   1.827  12.569  1.2721  1.6489 -1.7072
 6291TIP3   OH240363   6.634   5.193  14.154  0.6006 -0.0559  0.4442
 6291TIP3    H140364   6.634   5.265  14.091  0.5760  0.7157  1.2920
 6291TIP3    H240365   6.709   5.140  14.131  1.8816  1.4026  1.0502
 6292TIP3   OH240366   0.515   3.166   4.710 -0.3208 -0.1089  0.1478
 6292TIP3    H140367   0.549   3.256   4.704  2.0120 -1.0157 -2.0918
 6292TIP3    H240368   0.588   3.114   4.742 -1.2112 -1.4449  0.1118
 6293TIP3   OH240369   1.351   0.976  16.893 -0.0844 -0.6536  0.3208
 6293TIP3    H140370   1.413   1.000  16.962 -0.2334 -1.9191  0.9127
 6293TIP3    H240371   1.402   0.922  16.833 -0.6892 -2.0957  1.0566
 6294TIP3   OH240372   5.440   6.135   6.213  0.5414 -0.3237 -0.1346
 6294TIP3    H140373   5.505   6.203   6.197  1.6107 -1.2269  0.1732
 6294TIP3    H240374   5.403   6.156   6.299  0.2604  0.3120 -0.4054
 6295TIP3   OH240375   1.188   5.553  11.303  0.1960  0.1523 -0.1320
 6295TIP3    H140376   1.141   5.515  11.229  1.6934 -1.8445 -0.1587
 6295TIP3    H240377   1.263   5.598  11.263  1.3520 -1.4503  0.1099
 6296TIP3   OH240378   0.729   2.533  16.430  0.0249 -0.6421 -0.4783
 6296TIP3    H140379   0.718   2.455  16.376 -0.1716 -0.6740 -0.3929
 6296TIP3    H240380   0.645   2.544  16.474 -0.2765  0.1764 -1.2273
 6297TIP3   OH240381   3.725   5.989   1.198  0.4638  0.3540 -0.3764
 6297TIP3    H140382   3.723   5.972   1.104 -1.1757 -1.6390 -0.0599
 6297TIP3    H240383   3.644   5.950   1.231  0.0700  2.6167  1.6386
 6298TIP3   OH240384   5.709   5.284   0.182  0.0802  0.4304 -0.1747
 6298TIP3    H140385   5.709   5.378   0.200  2.2006  0.2735  1.0223
 6298TIP3    H240386   5.763   5.247   0.252  2.0333 -1.2644 -2.4341
 6299TIP3   OH240387   3.427   4.122  14.673  0.0215 -0.3538  0.5362
 6299TIP3    H140388   3.438   4.174  14.594 -0.4049 -2.1807 -0.7935
 6299TIP3    H240389   3.337   4.091  14.669 -0.8474  1.4621  3.0469
 6300TIP3   OH240390   5.886   5.587   1.992 -0.2316 -0.5169 -0.2015
 6300TIP3    H140391   5.896   5.493   2.009 -2.4483 -0.7492  0.0906
 6300TIP3    H240392   5.925   5.629   2.068  0.3084 -1.2149 -0.0844
 6301TIP3   OH240393   2.982   3.133  11.803 -0.1166 -0.4776 -0.9959
 6301TIP3    H140394   2.989   3.182  11.885 -1.2142  0.0374 -1.1951
 6301TIP3    H240395   2.950   3.197  11.739 -0.6497 -1.2141 -1.4870
 6302TIP3   OH240396   6.273   1.170   3.167  0.2755  0.2876  0.1611
 6302TIP3    H140397   6.214   1.164   3.092  2.3359  2.1111 -1.7406
 6302TIP3    H240398   6.356   1.199   3.130  1.4910  0.9628  3.1404
 6303TIP3   OH240399   3.537   4.881  16.778 -0.4255 -0.1431 -0.1737
 6303TIP3    H140400   3.570   4.805  16.729  2.0806  0.3149  0.6947
 6303TIP3    H240401   3.560   4.956  16.724 -1.2997  0.1472 -0.1700
 6304TIP3   OH240402   3.892   6.585   0.487  1.1289 -0.1126  0.1183
 6304TIP3    H140403   3.946   6.509   0.469  2.5177  0.6794  0.7631
 6304TIP3    H240404   3.946   6.660   0.463 -0.2401  0.6991 -0.6032
 6305TIP3   OH240405   3.945   1.595   4.936  0.7145  0.3043  0.3320
 6305TIP3    H140406   3.889   1.657   4.889 -0.2616 -0.5046  0.3839
 6305TIP3    H240407   3.894   1.570   5.012  1.0393 -0.6410  0.2573
 6306TIP3   OH240408   0.547   5.455  11.760  0.5225  0.8613  0.4329
 6306TIP3    H140409   0.600   5.399  11.703 -1.0574  1.7409 -2.1043
 6306TIP3    H240410   0.601   5.532  11.775  1.0873  0.4819  0.3909
 6307TIP3   OH240411   5.636   1.102   0.234 -0.7727  0.0069  0.0215
 6307TIP3    H140412   5.642   1.155   0.314 -2.2864 -0.2245  0.3199
 6307TIP3    H240413   5.562   1.140   0.187 -0.6015 -0.5748 -0.7237
 6308TIP3   OH240414   4.220   0.778   1.081  0.6042 -0.0741  0.3013
 6308TIP3    H140415   4.244   0.820   0.998  0.3422  0.0981  0.3120
 6308TIP3    H240416   4.282   0.706   1.090  0.0292 -0.6956 -0.5277
 6309TIP3   OH240417   3.020   4.238  12.509  0.4251  0.1895  0.1685
 6309TIP3    H140418   3.049   4.287  12.433  1.7885 -1.2752 -0.3251
 6309TIP3    H240419   3.084   4.166  12.517 -0.7078 -0.7228  1.6200
 6310TIP3   OH240420   5.487   4.470  11.619  0.2648  0.0403  0.3071
 6310TIP3    H140421   5.571   4.435  11.589  0.2086  0.3961 -0.2960
 6310TIP3    H240422   5.482   4.446  11.711  0.3366 -1.3295 -0.0183
 6311TIP3   OH240423   1.224   1.715   1.198  0.3330  0.3125 -0.4775
 6311TIP3    H140424   1.173   1.649   1.246  1.7159 -0.3507  0.1377
 6311TIP3    H240425   1.204   1.699   1.106 -3.0956  2.1847 -0.2298
 6312TIP3   OH240426   3.726   0.900   4.327  0.2260 -0.3856 -0.3646
 6312TIP3    H140427   3.665   0.909   4.399 -0.4808 -3.0143 -0.5173
 6312TIP3    H240428   3.738   0.805   4.317  1.1319 -0.1002 -2.9879
 6313TIP3   OH240429   2.927   0.606   2.623 -0.7267 -0.0286 -0.0024
 6313TIP3    H140430   2.869   0.539   2.659 -0.5271  0.3162  0.9890
 6313TIP3    H240431   2.997   0.614   2.688 -0.0784  0.2378 -0.7272
 6314TIP3   OH240432   2.329   2.834  11.323 -0.1953 -0.0034  0.0071
 6314TIP3    H140433   2.300   2.821  11.413 -0.5430 -0.1749 -0.1273
 6314TIP3    H240434   2.281   2.768  11.273 -0.6299  0.6289 -0.4262
 6315TIP3   OH240435   3.000   4.292   5.128  0.3734 -0.5045  0.0573
 6315TIP3    H140436   3.074   4.353   5.128 -1.0926  1.3869  0.9017
 6315TIP3    H240437   2.961   4.303   5.214 -2.8418  1.0964 -1.4618
 6316TIP3   OH240438   0.716   3.975  14.434 -0.5020  0.3258  0.7092
 6316TIP3    H140439   0.695   4.049  14.376 -0.8976  1.4240  2.1870
 6316TIP3    H240440   0.635   3.960  14.483 -1.2902 -2.7912 -1.2663
 6317TIP3   OH240441   4.098   6.717   0.878  0.2826 -0.3907  0.1678
 6317TIP3    H140442   4.186   6.679   0.888  0.0469 -0.5727  1.9722
 6317TIP3    H240443   4.039   6.642   0.883 -0.1219 -0.0248  2.6064
 6318TIP3   OH240444   1.851   4.304  12.383  0.1899 -0.0214 -0.2952
 6318TIP3    H140445   1.882   4.303  12.473  0.1565  0.2430 -0.2814
 6318TIP3    H240446   1.808   4.389  12.373 -0.8014 -0.4944 -0.2263
 6319TIP3   OH240447   3.328   3.203   5.726 -0.4591 -0.0383  0.1667
 6319TIP3    H140448   3.266   3.141   5.764 -0.6716  0.1247  0.0967
 6319TIP3    H240449   3.334   3.273   5.791 -2.0798  1.0428 -0.7622
 6320TIP3   OH240450   3.323   1.998   3.060 -0.4203  0.0235 -0.1389
 6320TIP3    H140451   3.340   2.050   3.138 -1.2910  2.3263 -1.3730
 6320TIP3    H240452   3.254   1.937   3.086  1.8878 -1.9715  1.8628
 6321TIP3   OH240453   0.441   0.623  16.728  0.4284  0.1060  0.0706
 6321TIP3    H140454   0.415   0.709  16.695  3.4655  1.0531 -0.1781
 6321TIP3    H240455   0.462   0.638  16.820  1.3246 -0.2304 -0.0623
 6322TIP3   OH240456   4.627   0.433   5.695  0.2928 -0.3714  0.5257
 6322TIP3    H140457   4.711   0.456   5.655 -0.0725 -0.6087 -0.3894
 6322TIP3    H240458   4.602   0.352   5.653 -0.4092 -0.2935  0.7905
 6323TIP3   OH240459   1.118   4.583  16.046 -0.2741  0.2228 -0.3070
 6323TIP3    H140460   1.124   4.489  16.058 -1.7042  0.1496  0.0866
 6323TIP3    H240461   1.204   4.609  16.012  0.2407 -1.1606 -0.1250
 6324TIP3   OH240462   1.677   5.494  12.837 -0.7195  0.1589 -0.1808
 6324TIP3    H140463   1.611   5.553  12.801 -0.7005  0.7877  0.7664
 6324TIP3    H240464   1.718   5.545  12.907  0.8966 -0.1596 -0.8549
 6325TIP3   OH240465   2.641   2.909   3.515 -0.1551 -0.4360 -0.1096
 6325TIP3    H140466   2.618   2.848   3.445  1.7527 -0.4115 -0.8134
 6325TIP3    H240467   2.690   2.857   3.578  1.1060  0.2565 -0.4984
 6326TIP3   OH240468   1.388   2.922   5.948 -0.4805 -0.1212 -0.5283
 6326TIP3    H140469   1.480   2.906   5.925 -0.6850 -2.6432  0.1330
 6326TIP3    H240470   1.389   2.939   6.042 -0.6195  0.5022 -0.6407
 6327TIP3   OH240471   1.529   5.354  13.072  0.1081 -0.1430  0.2462
 6327TIP3    H140472   1.544   5.418  13.002  0.9680  0.3860  0.8882
 6327TIP3    H240473   1.572   5.392  13.149 -1.1211 -0.5325  1.1680
 6328TIP3   OH240474   1.414   4.628  16.041 -0.3189  1.0595 -0.3405
 6328TIP3    H140475   1.448   4.539  16.032 -2.2788  0.3271 -0.8072
 6328TIP3    H240476   1.469   4.667  16.110 -0.1563 -0.8839  0.7128
 6329TIP3   OH240477   1.034   5.663   3.971  0.4526  0.1791  0.4236
 6329TIP3    H140478   1.008   5.721   3.900 -0.4382 -0.9810 -0.2390
 6329TIP3    H240479   0.953   5.642   4.016  0.7720 -0.4743  0.7063
 6330TIP3   OH240480   2.997   6.291  11.193 -0.7369 -0.2310  0.3595
 6330TIP3    H140481   3.001   6.245  11.277  2.5649 -0.9071 -0.0253
 6330TIP3    H240482   3.087   6.321  11.177 -1.1641 -0.3142 -3.0066
 6331TIP3   OH240483   5.317   4.661  15.454 -0.8623  0.3866 -0.1641
 6331TIP3    H140484   5.264   4.582  15.445 -2.8254  1.4185  1.6201
 6331TIP3    H240485   5.263   4.731  15.419  1.0281  0.9667 -2.1535
 6332TIP3   OH240486   4.169   5.566   3.423 -0.7254  0.4378  0.0578
 6332TIP3    H140487   4.211   5.480   3.414 -3.9536 -1.0881 -2.8294
 6332TIP3    H240488   4.216   5.622   3.362 -0.0658  0.0653  0.2134
 6333TIP3   OH240489   5.550   5.686   3.122  0.0850  0.4539 -0.0285
 6333TIP3    H140490   5.501   5.660   3.200 -1.3028  0.6798 -0.7955
 6333TIP3    H240491   5.593   5.768   3.147 -0.6729  0.7366  0.3764
 6334TIP3   OH240492   2.947   3.852  16.911  0.4154 -0.8252  0.0204
 6334TIP3    H140493   2.931   3.877  16.820  1.1763  0.6312  0.2418
 6334TIP3    H240494   2.875   3.894  16.959  0.4892 -0.8719  0.1705
 6335TIP3   OH240495   4.813   5.672  14.190  0.6453 -0.7197 -0.4652
 6335TIP3    H140496   4.890   5.715  14.227 -0.7607  0.3070  1.4473
 6335TIP3    H240497   4.842   5.583  14.169  2.2249 -0.5047  0.6499
 6336TIP3   OH240498   2.359   3.655  10.875  0.1321 -0.4098 -0.0213
 6336TIP3    H140499   2.305   3.627  10.949  1.6398 -0.4878  1.0885
 6336TIP3    H240500   2.304   3.719  10.829  0.0322  1.4942  2.5516
 6337TIP3   OH240501   5.653   3.736   6.247 -0.4324 -0.0611 -0.1556
 6337TIP3    H140502   5.640   3.671   6.316 -0.2837 -0.9531 -0.9512
 6337TIP3    H240503   5.748   3.742   6.237 -0.3961  1.2918  0.8430
 6338TIP3   OH240504   3.522   0.646   5.824  0.3159  0.3364 -0.0674
 6338TIP3    H140505   3.509   0.739   5.844  0.4154  0.3029  0.1481
 6338TIP3    H240506   3.609   0.626   5.857 -0.6071 -0.4310  2.0676
 6339TIP3   OH240507   2.317   6.056  15.842 -0.7325  0.1712  0.2460
 6339TIP3    H140508   2.232   6.089  15.811 -1.3921 -1.6883 -0.0386
 6339TIP3    H240509   2.369   6.046  15.763 -0.4779  0.6602  0.3488
 6340TIP3   OH240510   1.750   0.027   2.567  0.1029 -0.1709 -0.3149
 6340TIP3    H140511   1.736   0.063   2.479 -0.8247 -0.5748 -0.3412
 6340TIP3    H240512   1.823   0.078   2.602  0.3688  0.1112 -1.2531
 6341TIP3   OH240513   5.285   2.131  11.828  0.6572 -0.0400 -0.2354
 6341TIP3    H140514   5.289   2.040  11.859  1.6568  0.6206  1.7960
 6341TIP3    H240515   5.297   2.125  11.734  1.8659 -1.9685 -0.0151
 6342TIP3   OH240516   2.196   3.018   0.887  0.2523 -0.3431 -0.1621
 6342TIP3    H140517   2.255   3.092   0.874 -0.2580 -0.0093 -0.6718
 6342TIP3    H240518   2.250   2.950   0.926  0.6287  0.4518  0.7281
 6343TIP3   OH240519   1.184   2.473  12.798  0.1316 -0.7787  0.2961
 6343TIP3    H140520   1.278   2.469  12.787  0.0758 -0.0850 -0.5516
 6343TIP3    H240521   1.153   2.524  12.723 -0.7867  0.0459  1.2038
 6344TIP3   OH240522   0.628   4.232  14.682  0.2074  0.1641  0.2416
 6344TIP3    H140523   0.658   4.243  14.591  1.0177 -0.7721  0.3779
 6344TIP3    H240524   0.595   4.318  14.707 -2.1320 -0.0659 -1.6688
 6345TIP3   OH240525   2.994   0.293  15.859  0.2524 -0.3749 -0.5402
 6345TIP3    H140526   3.016   0.379  15.823 -2.2635  0.4718 -0.2723
 6345TIP3    H240527   2.898   0.290  15.857  0.2470 -3.0131 -0.1152
 6346TIP3   OH240528   4.924   1.362  16.187 -0.4934 -0.1977 -0.6203
 6346TIP3    H140529   4.858   1.431  16.178 -1.9688 -1.2907  1.2080
 6346TIP3    H240530   4.873   1.281  16.187  1.0219 -1.1789 -0.7189
 6347TIP3   OH240531   4.276   2.703  11.756 -0.2661  0.1715 -0.0845
 6347TIP3    H140532   4.305   2.792  11.739  0.6545  0.0247  0.6716
 6347TIP3    H240533   4.191   2.696  11.711  0.1633  1.0775 -1.0552
 6348TIP3   OH240534   0.824   1.746  15.754  0.6900 -0.3680  0.4288
 6348TIP3    H140535   0.835   1.768  15.846  3.1853  0.8204 -0.0596
 6348TIP3    H240536   0.819   1.830  15.709 -1.4607 -0.9249 -0.4824
 6349TIP3   OH240537   6.707   3.766   3.926  0.2245 -0.0270 -0.4125
 6349TIP3    H140538   6.618   3.732   3.921  0.0619  0.1540  1.0350
 6349TIP3    H240539   6.762   3.693   3.897 -0.3861 -0.0247 -1.6634
 6350TIP3   OH240540   5.094   2.714   3.850 -0.2605  0.2784  0.9282
 6350TIP3    H140541   5.115   2.807   3.848  0.2668  0.1891  1.9037
 6350TIP3    H240542   5.001   2.709   3.827 -0.6995  1.1841  2.4028
 6351TIP3   OH240543   4.989   3.385  12.454  0.1082  0.4944  0.3014
 6351TIP3    H140544   5.070   3.436  12.465  1.3445 -1.0864 -0.8977
 6351TIP3    H240545   4.923   3.451  12.431  0.8118  1.9335  2.1258
 6352TIP3   OH240546   1.081   0.692   1.619  0.4045 -0.4271 -0.0113
 6352TIP3    H140547   1.028   0.731   1.549 -3.1230  1.8497  3.5247
 6352TIP3    H240548   1.025   0.624   1.656  0.8161  0.4423  2.3786
 6353TIP3   OH240549   2.493   3.917  15.225 -0.1458  0.0648  0.5931
 6353TIP3    H140550   2.533   3.953  15.305  0.7317  0.5636 -0.0559
 6353TIP3    H240551   2.556   3.853  15.193 -0.1983  0.3209 -0.0408
 6354TIP3   OH240552   0.323   1.624   4.403 -0.5343  0.2310 -0.1363
 6354TIP3    H140553   0.334   1.673   4.485  0.9816 -0.3817  0.0718
 6354TIP3    H240554   0.413   1.607   4.374 -1.0295  1.5012 -2.6129
 6355TIP3   OH240555   1.096   6.368   0.902  0.1530  0.2758 -0.3366
 6355TIP3    H140556   1.015   6.420   0.904  0.4001  0.6447  0.2367
 6355TIP3    H240557   1.079   6.301   0.835 -0.1381  1.1548 -1.1757
 6356TIP3   OH240558   5.094   2.889  11.345 -0.0188  0.0474  0.0472
 6356TIP3    H140559   5.169   2.945  11.365  1.2175 -1.3263 -0.5875
 6356TIP3    H240560   5.131   2.801  11.337 -1.6307 -0.5995 -0.7513
 6357TIP3   OH240561   5.892   3.149   2.915  0.3726 -0.4150  0.2990
 6357TIP3    H140562   5.876   3.221   2.977 -0.7085 -0.4588  0.0888
 6357TIP3    H240563   5.965   3.180   2.861  0.7132  0.0104  0.9783
 6358TIP3   OH240564   5.415   2.507   4.895 -0.0369  0.1212 -0.3467
 6358TIP3    H140565   5.453   2.499   4.983 -0.3285 -0.4518 -0.2647
 6358TIP3    H240566   5.491   2.516   4.837  0.2110 -0.4136 -0.1230
 6359TIP3   OH240567   6.240   6.036  14.036 -0.2889 -0.3748 -0.4976
 6359TIP3    H140568   6.260   5.952  14.078 -2.2612 -0.6939 -0.0793
 6359TIP3    H240569   6.151   6.056  14.065  0.7130  2.7438  0.8128
 6360TIP3   OH240570   6.787   2.670   0.987  0.0272 -0.3206  0.6229
 6360TIP3    H140571   6.798   2.750   0.935  0.5521 -0.5756  0.3374
 6360TIP3    H240572   6.865   2.618   0.969  0.0633 -0.5637  1.4105
 6361TIP3   OH240573   0.254   0.348  14.292  0.3724 -0.9189  0.1763
 6361TIP3    H140574   0.325   0.412  14.299  0.1234 -0.4987 -0.9556
 6361TIP3    H240575   0.184   0.395  14.247 -0.0810 -1.7771 -0.0344
 6362TIP3   OH240576   4.715   1.526  11.670 -0.0921 -0.1356 -0.2017
 6362TIP3    H140577   4.727   1.456  11.605  2.5483  0.7543 -0.7965
 6362TIP3    H240578   4.621   1.524  11.690 -0.6435 -1.7869 -2.5001
 6363TIP3   OH240579   6.678   5.552   4.101 -0.1587 -0.1540 -0.1565
 6363TIP3    H140580   6.629   5.634   4.103  2.0551  1.3179 -1.5240
 6363TIP3    H240581   6.613   5.485   4.120 -2.2837  1.8036 -0.0332
 6364TIP3   OH240582   5.154   0.275  12.328 -0.3868 -0.1598  0.3694
 6364TIP3    H140583   5.096   0.342  12.291  2.1667  1.9680 -0.1601
 6364TIP3    H240584   5.111   0.248  12.409 -0.8958  3.3634  1.4737
 6365TIP3   OH240585   2.234   5.831  11.143 -0.3354  0.1402 -0.1098
 6365TIP3    H140586   2.206   5.748  11.183 -0.7920 -0.5233 -1.6960
 6365TIP3    H240587   2.158   5.889  11.154 -0.9689 -0.4628 -1.1304
 6366TIP3   OH240588   5.410   0.287   3.386  0.3095 -0.4813 -0.2211
 6366TIP3    H140589   5.428   0.380   3.374  1.0463 -0.6670 -0.5776
 6366TIP3    H240590   5.401   0.277   3.481  0.6676 -0.1319 -0.1496
 6367TIP3   OH240591   5.293   6.052   4.658 -0.1818 -0.5253  0.0721
 6367TIP3    H140592   5.291   6.127   4.716 -0.5895  0.8855 -1.6813
 6367TIP3    H240593   5.311   6.088   4.571 -0.9138 -2.3759 -0.9217
 6368TIP3   OH240594   6.071   5.464  15.286  0.9672  0.0357 -0.2654
 6368TIP3    H140595   6.131   5.432  15.353  0.8204 -3.6211 -1.6858
 6368TIP3    H240596   6.126   5.477  15.209  0.7016  1.7605 -0.2190
 6369TIP3   OH240597   1.843   2.036   5.383  0.3956  0.5899 -0.4129
 6369TIP3    H140598   1.801   2.088   5.451 -0.4937  0.1158 -0.5832
 6369TIP3    H240599   1.772   1.982   5.346  1.5728 -2.0943  0.9655
 6370TIP3   OH240600   1.315   2.080   6.220  0.2740  0.2643  0.1475
 6370TIP3    H140601   1.354   2.072   6.307  1.3740 -0.9083 -0.4203
 6370TIP3    H240602   1.222   2.097   6.236  0.3435 -0.5860  1.5474
 6371TIP3   OH240603   4.708   5.703  11.040 -0.7784 -0.1404 -0.4677
 6371TIP3    H140604   4.740   5.777  11.091 -0.2358 -2.6522  3.2373
 6371TIP3    H240605   4.625   5.680  11.082 -1.6637 -0.8231 -2.4730
 6372TIP3   OH240606   4.026   5.663  11.513 -0.1439  0.9200  0.1800
 6372TIP3    H140607   4.114   5.631  11.495 -0.0851  1.0057  0.3099
 6372TIP3    H240608   4.001   5.619  11.594 -1.3584 -1.3642 -1.3360
 6373TIP3   OH240609   1.792   6.017   6.050 -0.0423  0.3622  0.0349
 6373TIP3    H140610   1.736   6.094   6.051 -0.8019 -0.1408  2.5435
 6373TIP3    H240611   1.805   5.994   6.142  0.9884 -1.9206 -0.5852
 6374TIP3   OH240612   2.845   2.647  13.736  0.3096 -0.2575 -0.4840
 6374TIP3    H140613   2.774   2.634  13.673  0.7524  1.2578 -1.3430
 6374TIP3    H240614   2.919   2.600  13.698 -0.2546 -2.1504  0.5906
 6375TIP3   OH240615   4.240   3.127  16.475 -0.0496  0.7107  1.0661
 6375TIP3    H140616   4.284   3.202  16.516 -0.0062  1.9679 -1.1420
 6375TIP3    H240617   4.151   3.158  16.457 -0.0795  0.1988  0.2776
 6376TIP3   OH240618   2.492   0.754  17.283 -0.5436  1.0821 -0.1904
 6376TIP3    H140619   2.468   0.686  17.220  1.5909  0.6028 -0.5436
 6376TIP3    H240620   2.457   0.722  17.366 -0.6917  0.1780 -0.5808
 6377TIP3   OH240621   0.045   3.462  12.297  0.2004  0.1670 -0.5819
 6377TIP3    H140622   0.127   3.468  12.346  0.7386  1.5792 -1.6128
 6377TIP3    H240623   0.071   3.456  12.205 -0.7935  2.8298 -1.1408
 6378TIP3   OH240624   4.018   0.457  13.401 -0.1656  0.3070 -0.2830
 6378TIP3    H140625   3.945   0.469  13.461  1.2629  1.5577  1.3097
 6378TIP3    H240626   3.998   0.376  13.354 -2.0388  0.0633  0.8492
 6379TIP3   OH240627   5.243   0.451   0.893 -0.7173 -0.2518 -0.0228
 6379TIP3    H140628   5.179   0.433   0.824  0.0656 -2.1184 -0.2988
 6379TIP3    H240629   5.325   0.468   0.846 -0.5085 -0.0588  0.4060
 6380TIP3   OH240630   1.438   3.116   6.503 -0.4737 -0.0304  0.3959
 6380TIP3    H140631   1.499   3.140   6.433 -0.1482  1.0156  1.0144
 6380TIP3    H240632   1.358   3.092   6.457 -0.5395  1.4483 -0.3260
 6381TIP3   OH240633   2.424   1.459  10.848  0.2727 -0.0125  0.2565
 6381TIP3    H140634   2.345   1.512  10.863  0.9522  0.8241  0.9656
 6381TIP3    H240635   2.439   1.467  10.754  0.2369  0.8907  0.3146
 6382TIP3   OH240636   0.939   4.432   5.212 -0.1098 -0.2978  0.3103
 6382TIP3    H140637   1.034   4.440   5.210 -0.2395  1.6319 -1.8235
 6382TIP3    H240638   0.908   4.513   5.253 -0.8746 -0.0306 -0.7577
 6383TIP3   OH240639   1.518   3.191   5.945  1.0165  0.6684  0.5034
 6383TIP3    H140640   1.477   3.122   5.894  2.4174  0.4600 -0.3941
 6383TIP3    H240641   1.446   3.230   5.995 -0.1123 -0.1710 -0.4161
 6384TIP3   OH240642   4.185   5.417  12.795 -0.4393 -0.1493 -0.0651
 6384TIP3    H140643   4.090   5.409  12.789 -0.2870 -1.7348 -0.6829
 6384TIP3    H240644   4.199   5.479  12.867 -1.9131 -0.6849  0.7177
 6385TIP3   OH240645   6.093   4.515  11.035  0.4640  0.0562 -0.1777
 6385TIP3    H140646   6.156   4.545  10.970 -0.8807  0.5030 -1.3236
 6385TIP3    H240647   6.067   4.428  11.005 -0.8752  0.6499 -0.8077
 6386TIP3   OH240648   0.382   0.452  15.155  0.1167  0.0271 -0.1300
 6386TIP3    H140649   0.474   0.476  15.170  0.5089 -0.9115 -0.9245
 6386TIP3    H240650   0.345   0.444  15.243 -0.2502  4.0011  0.2955
 6387TIP3   OH240651   5.780   2.804  13.413 -0.1620  0.5748 -0.2636
 6387TIP3    H140652   5.744   2.733  13.466 -1.2957  0.9019 -0.5614
 6387TIP3    H240653   5.801   2.763  13.329 -1.0740  0.6258 -0.5304
 6388TIP3   OH240654   4.516   4.618   3.399 -0.0680  0.3047  0.4584
 6388TIP3    H140655   4.564   4.596   3.479  0.6173  0.3219  0.0595
 6388TIP3    H240656   4.522   4.713   3.394  1.6996  0.1762 -0.6949
 6389TIP3   OH240657   0.536   1.900  13.462 -0.2775  0.2316 -0.5626
 6389TIP3    H140658   0.558   1.813  13.496  0.1561 -0.2918 -2.0913
 6389TIP3    H240659   0.443   1.896  13.443 -0.3652  0.2797 -0.1528
 6390TIP3   OH240660   3.716   5.590  14.494  0.5379  0.0989  0.2358
 6390TIP3    H140661   3.781   5.586  14.565  1.3807  0.5367 -0.4975
 6390TIP3    H240662   3.755   5.539  14.423 -1.1304 -1.9499  0.7017
 6391TIP3   OH240663   4.667   4.880   1.555  0.8552  0.2390  0.9206
 6391TIP3    H140664   4.583   4.915   1.525  1.2822 -0.4439 -1.1865
 6391TIP3    H240665   4.648   4.842   1.640 -1.3763 -1.3778 -0.2193
 6392TIP3   OH240666   2.838   5.964  15.799  1.1549  0.4317 -0.0671
 6392TIP3    H140667   2.843   5.886  15.855  0.7185 -0.4387 -1.1893
 6392TIP3    H240668   2.787   5.935  15.723  1.4194  1.6772 -0.7432
 6393TIP3   OH240669   6.445   6.669   6.127 -0.3183 -0.3211  0.1857
 6393TIP3    H140670   6.395   6.630   6.198  0.0669 -0.2257  0.5079
 6393TIP3    H240671   6.394   6.649   6.048 -0.5038 -0.8230  0.4325
 6394TIP3   OH240672   2.425   5.435  11.151  0.3443 -0.4060 -0.0406
 6394TIP3    H140673   2.402   5.500  11.217  0.0910  0.6320 -1.1156
 6394TIP3    H240674   2.473   5.484  11.084  0.5869 -1.4261 -0.6418
 6395TIP3   OH240675   2.437   2.424  15.459 -0.5815  0.4551 -0.4215
 6395TIP3    H140676   2.474   2.453  15.376  0.2587 -0.8274 -0.5447
 6395TIP3    H240677   2.508   2.372  15.499 -0.8842  1.2166  1.2000
 6396TIP3   OH240678   2.975   0.285   2.599 -0.0759  0.1156  0.5804
 6396TIP3    H140679   2.990   0.306   2.692 -0.6657  0.4037  0.6098
 6396TIP3    H240680   2.881   0.294   2.587  0.0003  0.0868 -0.0553
 6397TIP3   OH240681   5.729   6.544   5.138  0.4537  0.0552  0.0137
 6397TIP3    H140682   5.734   6.538   5.042 -1.5804  1.0559 -0.2170
 6397TIP3    H240683   5.658   6.484   5.162  0.8637 -0.0871  0.8880
 6398TIP3   OH240684   5.298   6.340   0.327  0.4160  0.3968  0.3703
 6398TIP3    H140685   5.291   6.369   0.237  1.7809  1.5212  0.5919
 6398TIP3    H240686   5.329   6.249   0.322  1.1017  0.6641 -0.2875
 6399TIP3   OH240687   6.360   0.889   1.201 -0.2052 -0.0197 -0.5478
 6399TIP3    H140688   6.344   0.967   1.255 -1.8081  0.8508 -2.1981
 6399TIP3    H240689   6.339   0.816   1.259  2.2494  0.6191  1.3570
 6400TIP3   OH240690   3.234   0.986  15.092 -0.2996  0.2140 -0.0568
 6400TIP3    H140691   3.253   1.044  15.019 -1.5115  0.1174 -0.4639
 6400TIP3    H240692   3.212   0.902  15.052 -1.2241  0.2273  0.3965
 6401TIP3   OH240693   1.801   1.516   6.005  0.1048 -0.3031  0.2475
 6401TIP3    H140694   1.841   1.430   6.012  0.8417  0.0218  0.0821
 6401TIP3    H240695   1.795   1.547   6.096  3.3395  1.0305  0.1415
 6402TIP3   OH240696   5.101   2.504  14.549  0.0896  0.3233 -0.0446
 6402TIP3    H140697   5.116   2.465  14.463 -0.3190  1.8622 -0.8479
 6402TIP3    H240698   5.128   2.595  14.540 -1.1204  0.8373  1.0750
 6403TIP3   OH240699   4.018   4.168  14.942 -0.7680  0.1377  0.4343
 6403TIP3    H140700   4.091   4.151  15.001  0.4887 -2.0400 -1.6029
 6403TIP3    H240701   3.945   4.119  14.980 -0.6485  0.6464  1.3618
 6404TIP3   OH240702   3.456   3.343  13.231  0.6709 -0.5963 -0.1414
 6404TIP3    H140703   3.429   3.330  13.321  0.9306  1.0354  0.2096
 6404TIP3    H240704   3.399   3.285  13.180  0.1847 -1.1634  1.0136
 6405TIP3   OH240705   0.290   6.766  15.384  0.2588 -0.2050 -0.2434
 6405TIP3    H140706   0.227   6.794  15.317 -0.0819 -0.9764 -0.2582
 6405TIP3    H240707   0.238   6.716  15.447  0.8561 -0.8882 -0.2749
 6406TIP3   OH240708   2.930   5.020  17.009  0.6105 -0.0059 -0.3485
 6406TIP3    H140709   3.020   5.013  17.040  0.1410 -2.5503  0.6643
 6406TIP3    H240710   2.882   5.057  17.083  0.8788  2.0675 -1.1448
 6407TIP3   OH240711   2.882   1.175  13.698  0.0275  0.2003 -0.0016
 6407TIP3    H140712   2.849   1.088  13.719 -1.3059  0.7838  0.4116
 6407TIP3    H240713   2.822   1.235  13.742  2.3188  1.3289  1.8128
 6408TIP3   OH240714   0.817   3.665  14.381  0.0323  0.2345  0.4716
 6408TIP3    H140715   0.849   3.691  14.467 -0.1842  1.6183  0.1548
 6408TIP3    H240716   0.723   3.685  14.384  0.3668  2.2020 -0.7339
 6409TIP3   OH240717   2.666   1.376  15.986  0.5580 -0.0303  1.1399
 6409TIP3    H140718   2.583   1.409  15.951 -0.0457  0.6664  3.0650
 6409TIP3    H240719   2.725   1.451  15.982  1.0622 -0.4756 -0.0612
 6410TIP3   OH240720   0.816   3.634  12.063  0.4611 -0.1917 -0.2964
 6410TIP3    H140721   0.799   3.701  11.996 -0.3306  0.1468  0.2264
 6410TIP3    H240722   0.811   3.682  12.145  0.7146 -0.7444  0.0416
 6411TIP3   OH240723   2.524   4.996  11.123  0.1219  0.2709 -0.3574
 6411TIP3    H140724   2.548   5.075  11.172  1.3303  0.3844 -1.0781
 6411TIP3    H240725   2.546   5.017  11.032 -0.5665 -0.5166 -0.7147
 6412TIP3   OH240726   0.098   2.487   4.319  0.5154  0.4539 -0.4272
 6412TIP3    H140727   0.131   2.424   4.383 -0.4437 -0.1357 -0.4990
 6412TIP3    H240728   0.042   2.545   4.370  0.3732  0.4580 -0.5881
 6413TIP3   OH240729   4.681   2.066  16.091 -0.0770  0.2319  0.2785
 6413TIP3    H140730   4.656   2.023  16.172  1.0092 -1.0569 -0.0413
 6413TIP3    H240731   4.615   2.134  16.078 -0.1527  0.6040  2.3316
 6414TIP3   OH240732   2.807   3.034   5.622  0.4729 -0.2595 -0.4854
 6414TIP3    H140733   2.881   3.087   5.593  0.3923  1.1111  1.5780
 6414TIP3    H240734   2.745   3.097   5.660 -1.3636 -1.4627 -1.3334
 6415TIP3   OH240735   5.453   1.155   2.557 -0.1543 -0.2227  0.3249
 6415TIP3    H140736   5.369   1.110   2.560  0.4951 -1.4144  1.2936
 6415TIP3    H240737   5.518   1.087   2.573  0.9678  0.7991  0.2961
 6416TIP3   OH240738   1.711   3.207  13.258 -0.1582 -0.1544 -0.0802
 6416TIP3    H140739   1.633   3.170  13.299  0.1578 -0.3046  0.3953
 6416TIP3    H240740   1.784   3.171  13.308  0.3746 -2.0242 -2.0520
 6417TIP3   OH240741   6.557   1.499  10.906 -0.3155 -0.2757  0.9808
 6417TIP3    H140742   6.567   1.461  10.819 -1.1429 -1.1390  1.2426
 6417TIP3    H240743   6.495   1.571  10.895 -1.7537 -1.4479  1.1157
 6418TIP3   OH240744   5.012   2.014  11.933  0.2452  0.1302 -0.2744
 6418TIP3    H140745   5.059   1.932  11.918  1.3375  0.4562  1.1298
 6418TIP3    H240746   4.978   2.006  12.022 -0.3540  0.8760 -0.4260
 6419TIP3   OH240747   3.379   4.893  12.160 -0.5591 -0.2796 -0.0498
 6419TIP3    H140748   3.285   4.907  12.170 -0.5089 -0.3917  0.6165
 6419TIP3    H240749   3.392   4.801  12.186 -0.4331 -0.6268 -1.2982
 6420TIP3   OH240750   2.605   1.823   6.726  0.0668 -0.0490 -0.7882
 6420TIP3    H140751   2.570   1.820   6.814  0.3351  0.3048 -0.6665
 6420TIP3    H240752   2.636   1.734   6.709 -1.3276 -0.5044 -1.0863
 6421TIP3   OH240753   2.325   2.472  11.613 -0.3332  0.4323 -0.6492
 6421TIP3    H140754   2.337   2.449  11.521 -2.1931  0.0050 -0.8272
 6421TIP3    H240755   2.263   2.407  11.646  0.6760  0.2686  1.0667
 6422TIP3   OH240756   6.609   1.278   2.827 -0.0542 -0.8650 -0.0847
 6422TIP3    H140757   6.572   1.191   2.843 -1.0930 -0.2748  0.9672
 6422TIP3    H240758   6.661   1.297   2.905 -0.4589 -0.2454  0.0453
 6423TIP3   OH240759   1.222   4.448   5.949  0.1996 -0.1993 -0.6079
 6423TIP3    H140760   1.136   4.490   5.951 -0.1019 -0.8509  0.5729
 6423TIP3    H240761   1.232   4.408   6.035  1.8931  0.2537 -0.5596
 6424TIP3   OH240762   2.180   5.564  15.951 -0.1664 -0.1581 -0.3402
 6424TIP3    H140763   2.199   5.471  15.943  2.4188  0.1793  0.8520
 6424TIP3    H240764   2.178   5.596  15.861  2.0707 -0.8720 -0.7114
 6425TIP3   OH240765   5.805   0.993  16.281 -0.3788  0.0212  0.2411
 6425TIP3    H140766   5.877   0.933  16.302 -1.0925 -1.1668 -0.5385
 6425TIP3    H240767   5.726   0.942  16.299 -1.0272  0.0499 -2.1361
 6426TIP3   OH240768   4.203   3.156   1.386  0.1389 -0.0535 -0.5166
 6426TIP3    H140769   4.261   3.104   1.330  1.8208  2.6960 -1.5390
 6426TIP3    H240770   4.248   3.161   1.470  0.1648  0.0369 -0.5354
 6427TIP3   OH240771   2.531   5.510   3.712  0.0744 -0.1517 -0.4487
 6427TIP3    H140772   2.445   5.468   3.711  0.1170 -0.4857 -3.8683
 6427TIP3    H240773   2.593   5.437   3.706  0.6120  0.1353  1.0889
 6428TIP3   OH240774   4.285   3.925   3.684 -0.3247  0.6537  0.0128
 6428TIP3    H140775   4.235   3.878   3.751 -0.2241  1.6740  0.8390
 6428TIP3    H240776   4.265   4.017   3.699 -0.3907  0.9071 -1.4672
 6429TIP3   OH240777   0.102   0.905   2.766  0.5486  0.4711  0.1409
 6429TIP3    H140778   0.105   0.854   2.684 -0.5777  2.1079 -0.9827
 6429TIP3    H240779   0.110   0.839   2.835 -1.8557 -1.4271 -1.1929
 6430TIP3   OH240780   0.667   5.067   1.173  0.1428 -0.1075  0.2850
 6430TIP3    H140781   0.692   5.086   1.264 -1.8387  1.8859  0.4711
 6430TIP3    H240782   0.608   4.992   1.180  0.8410 -0.6545  0.4935
 6431TIP3   OH240783   2.215   2.358   5.789  0.4072  0.1074 -0.0249
 6431TIP3    H140784   2.153   2.386   5.722  0.1296  0.4348  0.3636
 6431TIP3    H240785   2.204   2.421   5.860  2.0864  0.9288 -0.4525
 6432TIP3   OH240786   6.107   2.930   2.682 -0.1334 -0.7581  0.3795
 6432TIP3    H140787   6.036   2.970   2.632  0.4093  0.4383  0.5371
 6432TIP3    H240788   6.063   2.866   2.739 -1.0720 -0.1310  0.3857
 6433TIP3   OH240789   2.495   5.341  13.736 -0.3298 -0.7154  0.7772
 6433TIP3    H140790   2.444   5.261  13.726 -1.5052 -0.0035  0.8196
 6433TIP3    H240791   2.435   5.403  13.778  0.9779 -0.2220  2.0208
 6434TIP3   OH240792   4.465   5.140  10.891 -0.0617 -0.6441  0.2450
 6434TIP3    H140793   4.465   5.053  10.930 -0.0640 -1.8403 -2.1805
 6434TIP3    H240794   4.457   5.123  10.797  1.0496  1.9363 -0.3999
 6435TIP3   OH240795   6.570   3.206   3.261 -0.2450  0.2723 -0.0035
 6435TIP3    H140796   6.567   3.195   3.356 -0.6504  1.2434  0.1027
 6435TIP3    H240797   6.490   3.165   3.230 -0.4842  0.6296  0.1434
 6436TIP3   OH240798   5.289   4.517  11.998 -0.0074 -0.1257 -0.0831
 6436TIP3    H140799   5.229   4.568  11.944  1.5651  0.6038 -1.2219
 6436TIP3    H240800   5.234   4.482  12.069 -1.6948  0.7042 -0.9211
 6437TIP3   OH240801   6.615   5.139  15.532 -0.0358 -0.0105  0.1352
 6437TIP3    H140802   6.621   5.139  15.437 -3.0888  1.1103 -0.1736
 6437TIP3    H240803   6.545   5.077  15.551 -1.0799  1.5029  1.4459
 6438TIP3   OH240804   2.717   6.761   0.954 -0.0788 -0.4264  0.3625
 6438TIP3    H140805   2.680   6.813   0.883 -0.4622  1.2602  1.7223
 6438TIP3    H240806   2.689   6.671   0.936 -0.1504 -0.0592 -1.5893
 6439TIP3   OH240807   4.437   6.057   1.073  0.5171  0.3171  0.2497
 6439TIP3    H140808   4.384   6.137   1.075 -0.5512 -0.3776  0.7575
 6439TIP3    H240809   4.382   5.992   1.029  1.2953 -0.1978  0.0134
 6440TIP3   OH240810   0.301   1.627  11.171  0.8969 -0.4402 -0.1393
 6440TIP3    H140811   0.264   1.546  11.136  0.5628 -0.3024 -0.1069
 6440TIP3    H240812   0.296   1.689  11.098 -3.0043  0.9099  1.0359
 6441TIP3   OH240813   1.530   3.105   1.694 -0.1618 -0.2481  0.5897
 6441TIP3    H140814   1.507   3.072   1.781 -0.5129  3.0134  1.8790
 6441TIP3    H240815   1.459   3.075   1.637 -1.7341  0.3332  2.1604
 6442TIP3   OH240816   4.791   0.635   4.248 -0.5679  0.1312 -0.1308
 6442TIP3    H140817   4.841   0.611   4.326 -1.4719  3.2518  1.5972
 6442TIP3    H240818   4.707   0.589   4.258 -2.2989  3.4621  3.1112
 6443TIP3   OH240819   6.472   6.122   4.145 -0.0412 -0.6895 -0.3869
 6443TIP3    H140820   6.546   6.061   4.135  0.0729 -0.4483 -1.0354
 6443TIP3    H240821   6.423   6.114   4.063 -0.3290 -0.3092 -0.2535
 6444TIP3   OH240822   2.127   5.978  13.568 -0.6247  0.2176  0.2822
 6444TIP3    H140823   2.151   6.070  13.555  0.4988  0.0748  1.2261
 6444TIP3    H240824   2.037   5.972  13.534 -1.4483  2.0870  1.9348
 6445TIP3   OH240825   0.603   2.088  16.294  0.4887 -0.0989 -0.4006
 6445TIP3    H140826   0.552   2.115  16.218  1.4613  0.9658 -0.6868
 6445TIP3    H240827   0.665   2.024  16.260 -0.8834 -1.7513  0.0295
 6446TIP3   OH240828   1.915   2.867  15.072 -0.6035 -0.3966 -0.4138
 6446TIP3    H140829   2.002   2.906  15.062  0.3384 -2.4891 -0.8853
 6446TIP3    H240830   1.891   2.841  14.983 -1.8850  0.4473 -0.3363
 6447TIP3   OH240831   3.122   1.500  14.885  0.1547 -0.3395 -0.1418
 6447TIP3    H140832   3.198   1.517  14.829  1.7483 -1.5013  1.5457
 6447TIP3    H240833   3.148   1.424  14.938 -2.3970 -1.0843  0.1620
 6448TIP3   OH240834   2.129   4.187   5.609  0.2033  0.2746 -0.0654
 6448TIP3    H140835   2.057   4.134   5.642  0.8311 -0.3681  0.2970
 6448TIP3    H240836   2.166   4.229   5.686  0.9621 -0.3417 -0.0758
 6449TIP3   OH240837   2.104   6.390   0.929 -0.0471 -0.3654  0.2133
 6449TIP3    H140838   2.079   6.471   0.884  0.3337 -1.7267 -2.6925
 6449TIP3    H240839   2.038   6.379   0.998 -2.6248  0.3402 -1.9582
 6450TIP3   OH240840   4.299   2.494   2.122  0.1068 -0.0399  0.6108
 6450TIP3    H140841   4.214   2.479   2.081  0.2148  0.6056  0.1248
 6450TIP3    H240842   4.314   2.417   2.177 -0.2884 -0.6722 -0.1561
 6451TIP3   OH240843   1.490   1.286  16.256 -0.1647 -0.2296 -0.3309
 6451TIP3    H140844   1.448   1.248  16.333  1.2866  0.0864  0.6429
 6451TIP3    H240845   1.536   1.212  16.216  0.6531 -0.0025  0.1878
 6452TIP3   OH240846   1.764   2.343  16.858 -0.0328 -0.2475  0.1757
 6452TIP3    H140847   1.763   2.272  16.794  1.9184 -0.1024 -0.0735
 6452TIP3    H240848   1.674   2.374  16.860  0.0216  0.7988 -3.7392
 6453TIP3   OH240849   4.368   4.839  14.675  0.2989 -0.7860 -0.1549
 6453TIP3    H140850   4.430   4.910  14.690 -0.0973 -0.3096 -0.7396
 6453TIP3    H240851   4.416   4.777  14.620  1.0156 -1.5114  1.2241
 6454TIP3   OH240852   6.569   3.498  16.579  0.1863 -0.6278  0.5282
 6454TIP3    H140853   6.658   3.496  16.613  0.4771  0.8570 -0.0477
 6454TIP3    H240854   6.580   3.511  16.484 -0.6345 -2.0656  0.2000
 6455TIP3   OH240855   2.912   2.056  13.972  0.2177  0.3269 -0.3064
 6455TIP3    H140856   2.904   2.094  13.884  0.6171  0.2338 -0.3868
 6455TIP3    H240857   3.007   2.045  13.984  0.3427  2.3893  1.0168
 6456TIP3   OH240858   0.171   5.902   1.352  0.3566 -0.4337 -0.0638
 6456TIP3    H140859   0.242   5.839   1.363  0.4219 -0.0907  1.6008
 6456TIP3    H240860   0.178   5.961   1.426 -0.3550  0.9318 -1.0285
 6457TIP3   OH240861   0.864   4.686   5.276 -0.1614  0.1856 -0.3767
 6457TIP3    H140862   0.847   4.679   5.182  2.5554 -3.2690 -0.7951
 6457TIP3    H240863   0.801   4.752   5.307 -2.0329  0.5271 -4.3348
 6458TIP3   OH240864   4.694   6.271  12.476 -0.4840 -0.1437 -0.4380
 6458TIP3    H140865   4.616   6.283  12.530 -0.3573 -1.0498 -0.0401
 6458TIP3    H240866   4.704   6.177  12.468  1.6594 -0.1412  1.1210
 6459TIP3   OH240867   6.375   2.984   4.007  0.2923 -0.3973 -0.0999
 6459TIP3    H140868   6.427   3.061   4.030  1.2974 -0.9171 -0.5639
 6459TIP3    H240869   6.318   2.970   4.082 -0.0150  0.8871 -0.0693
 6460TIP3   OH240870   4.838   1.634   0.299 -0.4220 -0.1846  0.0964
 6460TIP3    H140871   4.886   1.573   0.355  0.2473 -0.7295 -1.0359
 6460TIP3    H240872   4.844   1.596   0.211 -0.9022  0.9692 -0.4579
 6461TIP3   OH240873   3.853   6.570   1.594  0.2131  0.1664  0.4136
 6461TIP3    H140874   3.853   6.496   1.533 -0.3309 -1.1137  1.9071
 6461TIP3    H240875   3.941   6.607   1.586 -0.1702  0.7519 -1.9194
 6462TIP3   OH240876   4.786   2.081  15.356  0.1554  0.6380 -0.2967
 6462TIP3    H140877   4.841   2.034  15.418 -1.1145 -0.4353  0.0793
 6462TIP3    H240878   4.777   2.021  15.282  2.0157  2.0772 -1.7830
 6463TIP3   OH240879   0.248   5.236   1.963 -0.1753 -0.0834  0.0913
 6463TIP3    H140880   0.213   5.324   1.947 -0.2731 -0.3899 -1.5443
 6463TIP3    H240881   0.210   5.211   2.048 -0.0683  1.4694  0.6315
 6464TIP3   OH240882   3.278   1.379  10.493 -0.1861 -0.6720 -0.0520
 6464TIP3    H140883   3.192   1.362  10.533  0.2130 -0.9323  0.7210
 6464TIP3    H240884   3.258   1.418  10.408 -1.0915  1.3719  1.0201
 6465TIP3   OH240885   1.620   1.606  13.313 -0.3353  0.5239 -0.2338
 6465TIP3    H140886   1.562   1.540  13.275 -0.3546  0.5171 -0.1918
 6465TIP3    H240887   1.630   1.580  13.405  0.0672  0.2870 -0.3387
 6466TIP3   OH240888   4.637   3.573   1.196 -0.5284  0.2971  0.1956
 6466TIP3    H140889   4.591   3.492   1.173 -0.0144 -0.5101  1.8176
 6466TIP3    H240890   4.601   3.639   1.137 -3.1858 -0.4408  0.8697
 6467TIP3   OH240891   6.261   4.175   4.881 -0.0021 -0.1547  0.3267
 6467TIP3    H140892   6.316   4.244   4.918  1.4221 -0.7736 -0.5526
 6467TIP3    H240893   6.173   4.213   4.879  0.2622  0.6848  2.2151
 6468TIP3   OH240894   5.928   4.109  17.062  0.5405 -0.3062 -0.4544
 6468TIP3    H140895   5.880   4.168  17.003  0.3457 -0.2686 -0.2602
 6468TIP3    H240896   6.018   4.140  17.058  0.5275 -0.2970 -0.7268
 6469TIP3   OH240897   1.240   3.561  13.814  0.2150  0.7886  0.2284
 6469TIP3    H140898   1.172   3.619  13.780  1.0714  0.5714 -2.0395
 6469TIP3    H240899   1.231   3.481  13.761  1.7930  0.5176  0.3209
 6470TIP3   OH240900   6.741   2.151   5.413  0.3929  0.2580  0.0367
 6470TIP3    H140901   6.704   2.216   5.473  2.0421  0.6144  0.7242
 6470TIP3    H240902   6.754   2.198   5.331  2.4193  1.1134  0.7925
 6471TIP3   OH240903   4.308   3.818   2.948  0.2510 -0.4549  0.4229
 6471TIP3    H140904   4.382   3.842   2.892  1.8336 -2.7828  1.3620
 6471TIP3    H240905   4.330   3.855   3.034 -0.4694  0.1410  0.3673
 6472TIP3   OH240906   4.965   1.474   4.354  0.5362 -0.6043  0.0079
 6472TIP3    H140907   4.939   1.466   4.446 -0.6638  1.5184 -0.0770
 6472TIP3    H240908   5.023   1.550   4.352  0.8767 -0.8820 -0.9257
 6473TIP3   OH240909   5.982   0.932   0.713  0.3808 -0.9062 -0.3998
 6473TIP3    H140910   6.029   0.890   0.641 -1.6550 -0.5643 -2.0087
 6473TIP3    H240911   5.911   0.980   0.671 -1.3041 -1.2326  1.8858
 6474TIP3   OH240912   4.994   2.987  12.878 -0.1323 -0.2015 -0.4243
 6474TIP3    H140913   4.906   2.965  12.910 -0.4403  2.7933  1.1808
 6474TIP3    H240914   4.979   3.045  12.803  0.4638  0.4311 -0.0653
 6475TIP3   OH240915   2.690   3.473   1.706  0.3770 -0.1272 -0.0614
 6475TIP3    H140916   2.769   3.525   1.723 -0.3207  1.1726 -0.7161
 6475TIP3    H240917   2.630   3.533   1.662 -0.7401 -1.2863 -0.1747
 6476TIP3   OH240918   5.501   4.096  13.681  0.1786  0.0882  0.3962
 6476TIP3    H140919   5.436   4.132  13.742 -0.3885  0.0706 -0.1845
 6476TIP3    H240920   5.458   4.020  13.642  1.4185 -1.3632  1.7246
 6477TIP3   OH240921   6.037   1.263  12.658 -0.4471 -0.1109  0.2730
 6477TIP3    H140922   6.064   1.232  12.744  1.7948 -1.3187 -0.7721
 6477TIP3    H240923   5.994   1.187  12.618 -0.1953 -0.0189 -0.1775
 6478TIP3   OH240924   5.185   0.312  13.342  0.9634  0.3764  0.4635
 6478TIP3    H140925   5.156   0.221  13.335  0.1693  0.5187  1.6863
 6478TIP3    H240926   5.257   0.319  13.279 -0.3513 -0.5239 -1.2191
 6479TIP3   OH240927   5.244   0.806   5.573  0.5445 -0.8062  0.3148
 6479TIP3    H140928   5.218   0.771   5.488 -0.0762  0.6577 -0.1382
 6479TIP3    H240929   5.335   0.833   5.561  0.7960 -1.5643  0.4536
 6480TIP3   OH240930   0.881   2.445  13.480 -0.0897 -0.1020  0.1134
 6480TIP3    H140931   0.867   2.517  13.418 -0.7792  1.1824  1.7007
 6480TIP3    H240932   0.971   2.419  13.465 -0.1872  0.2666 -1.3233
 6481TIP3   OH240933   4.294   3.042  14.778  0.1421 -0.4110  0.1313
 6481TIP3    H140934   4.331   3.121  14.817 -0.1859 -0.5299  0.6930
 6481TIP3    H240935   4.224   3.074  14.721 -0.4979 -0.3215  0.9335
 6482TIP3   OH240936   6.206   5.804   5.136  0.0711  0.2605 -0.3490
 6482TIP3    H140937   6.217   5.806   5.231 -0.5783  0.8783 -0.2780
 6482TIP3    H240938   6.259   5.877   5.103  0.2429  0.0890 -0.4525
 6483TIP3   OH240939   5.498   1.650  16.943  0.3166 -0.2557  0.0721
 6483TIP3    H140940   5.439   1.606  17.004 -0.9327 -0.5704 -1.2744
 6483TIP3    H240941   5.440   1.687  16.876  1.3440  3.1155  0.8639
 6484TIP3   OH240942   5.995   2.496   0.126  0.1779 -0.0298  0.7511
 6484TIP3    H140943   5.958   2.474   0.212  3.2970 -0.9149  1.9964
 6484TIP3    H240944   5.938   2.451   0.064 -1.0760 -0.9474  2.4671
 6485TIP3   OH240945   5.065   0.982   5.717  0.3490  0.5112 -0.1710
 6485TIP3    H140946   5.116   0.922   5.663  1.8175  1.6475 -0.1159
 6485TIP3    H240947   5.042   1.054   5.658 -1.6281 -0.1651 -0.3100
 6486TIP3   OH240948   4.386   5.704   4.165 -0.6789  0.1478  0.7481
 6486TIP3    H140949   4.377   5.779   4.106 -1.8237 -0.9417 -0.5426
 6486TIP3    H240950   4.342   5.633   4.119  0.4425 -1.3476  1.8895
 6487TIP3   OH240951   1.075   0.303   3.488 -0.2006  0.3709  0.7202
 6487TIP3    H140952   1.030   0.300   3.404  0.6609 -1.3882  0.2589
 6487TIP3    H240953   1.124   0.385   3.487  0.5314 -0.0624 -0.9129
 6488TIP3   OH240954   3.857   5.714   1.130 -0.5638 -0.0611 -0.0500
 6488TIP3    H140955   3.876   5.635   1.079 -0.6094 -0.6854  0.8668
 6488TIP3    H240956   3.849   5.784   1.065  2.0719 -0.2921 -0.7049
 6489TIP3   OH240957   1.206   0.497   3.917 -0.6132  0.3636  0.0020
 6489TIP3    H140958   1.260   0.501   3.995 -1.0853  1.3488  0.2830
 6489TIP3    H240959   1.181   0.405   3.910 -1.6131  0.4848  1.7254
 6490TIP3   OH240960   2.764   2.254   6.462 -0.3013 -0.1395 -0.1915
 6490TIP3    H140961   2.797   2.323   6.404 -1.0515 -1.3676 -2.2144
 6490TIP3    H240962   2.723   2.301   6.534 -0.3986  1.5457 -1.2762
 6491TIP3   OH240963   5.465   1.823   2.476  0.1332  0.1437  0.5044
 6491TIP3    H140964   5.439   1.851   2.564 -0.9105 -1.0098  0.5883
 6491TIP3    H240965   5.398   1.859   2.419  1.4877  1.9800 -0.0301
 6492TIP3   OH240966   4.110   6.387   2.112 -0.3841  0.2303 -0.1889
 6492TIP3    H140967   4.094   6.398   2.206 -0.0163 -1.9069  0.1678
 6492TIP3    H240968   4.080   6.298   2.093  0.1347  0.4033 -1.9755
 6493TIP3   OH240969   2.998   1.163  13.441 -0.0544 -0.1298  0.5067
 6493TIP3    H140970   2.936   1.177  13.512  1.1785  0.1644  1.5783
 6493TIP3    H240971   3.057   1.239  13.446 -0.5937  0.4825 -1.5662
 6494TIP3   OH240972   0.648   1.529  12.517  0.3426  0.1418  0.2463
 6494TIP3    H140973   0.585   1.465  12.549 -1.4359  1.0496 -1.2209
 6494TIP3    H240974   0.605   1.614  12.530  1.2790  0.7989 -0.7435
 6495TIP3   OH240975   6.680   2.166  15.018  0.1053  0.6392 -0.4626
 6495TIP3    H140976   6.608   2.215  14.978  0.8460  1.3124 -1.0150
 6495TIP3    H240977   6.685   2.200  15.107  1.2808  2.4089 -1.1340
 6496TIP3   OH240978   6.293   0.307  14.726 -0.1694  0.3015 -0.0432
 6496TIP3    H140979   6.286   0.222  14.770  0.1716 -0.1520 -0.8359
 6496TIP3    H240980   6.253   0.293  14.640 -2.2430  1.5893  0.6278
 6497TIP3   OH240981   0.384   5.018  15.889 -0.2546 -0.1455 -0.5185
 6497TIP3    H140982   0.348   4.946  15.837 -0.6784  0.6711 -1.3643
 6497TIP3    H240983   0.341   5.009  15.974 -1.1392 -0.2242 -0.9674
 6498TIP3   OH240984   2.898   6.413  13.008  0.5470  0.3583 -0.2436
 6498TIP3    H140985   2.851   6.346  12.959  0.7979  0.6071 -0.8305
 6498TIP3    H240986   2.840   6.490  13.005  0.4476  0.2958  0.0689
 6499TIP3   OH240987   1.321   5.884   2.322 -0.1114 -0.0777  0.2413
 6499TIP3    H140988   1.247   5.942   2.305 -0.9129 -0.6503  1.6108
 6499TIP3    H240989   1.396   5.943   2.329 -0.5947  0.6061 -0.2199
 6500TIP3   OH240990   3.249   5.220  15.686 -0.0792  0.6050  0.1410
 6500TIP3    H140991   3.298   5.209  15.605  1.0099 -2.3289  1.0688
 6500TIP3    H240992   3.291   5.294  15.730  1.2282  0.3648 -0.6693
 6501TIP3   OH240993   2.531   2.903  13.603 -0.2352  0.1107  0.2685
 6501TIP3    H140994   2.533   2.807  13.596 -1.1653  0.1508 -0.9058
 6501TIP3    H240995   2.535   2.933  13.512  0.7568  1.2206  0.6590
 6502TIP3   OH240996   2.084   1.028   1.931 -0.2885  0.3889  0.1924
 6502TIP3    H140997   1.992   1.002   1.944  0.5337 -1.8760  2.3133
 6502TIP3    H240998   2.112   0.979   1.854 -0.6522  0.4568  0.0159
 6503TIP3   OH240999   3.517   1.235  13.303  0.9315 -0.3679 -0.0040
 6503TIP3    H141000   3.440   1.201  13.256 -1.3385  2.1483  1.5974
 6503TIP3    H241001   3.550   1.159  13.351 -2.8033 -0.9881  2.0270
 6504TIP3   OH241002   3.430   1.229   1.599 -0.1817 -0.1680  0.0590
 6504TIP3    H141003   3.438   1.206   1.692 -1.2621  1.6495  0.6471
 6504TIP3    H241004   3.388   1.152   1.559 -1.0049 -0.4282  1.3595
 6505TIP3   OH241005   4.227   4.914  11.438 -0.5636  0.3871 -0.6607
 6505TIP3    H141006   4.210   4.822  11.418  0.6778  0.2499 -1.1820
 6505TIP3    H241007   4.152   4.942  11.490 -0.8297 -0.9984 -0.2728
 6506TIP3   OH241008   0.849   1.631  10.854  0.0360  0.1975 -0.5666
 6506TIP3    H141009   0.812   1.615  10.768 -0.8884 -2.1817  0.2149
 6506TIP3    H241010   0.931   1.581  10.855 -0.5563 -0.8133  0.3029
 6507TIP3   OH241011   5.736   4.397  11.528 -0.2225 -0.2216  0.0215
 6507TIP3    H141012   5.759   4.314  11.570  1.7265  0.2586 -0.0033
 6507TIP3    H241013   5.775   4.391  11.441  1.3044  1.3047  0.5572
 6508TIP3   OH241014   0.074   1.540  15.832 -0.1821  0.8175 -0.0757
 6508TIP3    H141015   0.122   1.570  15.909  1.7315 -0.1773 -0.8390
 6508TIP3    H241016   0.103   1.450  15.818 -1.3979  0.5713 -1.2654
 6509TIP3   OH241017   4.751   0.678  15.809  0.0876 -0.0495  0.0063
 6509TIP3    H141018   4.791   0.671  15.722 -0.1589  1.8090 -0.2937
 6509TIP3    H241019   4.814   0.730  15.860 -0.5624  0.3469  0.4177
 6510TIP3   OH241020   4.319   2.638  15.034 -0.1606 -0.2695 -0.4073
 6510TIP3    H141021   4.343   2.708  14.974 -0.3138 -1.6356 -2.1607
 6510TIP3    H241022   4.371   2.563  15.006  0.3812 -0.7600  1.7355
 6511TIP3   OH241023   4.960   5.300   3.412  0.0419 -0.0726  0.1163
 6511TIP3    H141024   4.933   5.274   3.324  2.3662  0.3956 -0.7916
 6511TIP3    H241025   4.901   5.373   3.433 -1.3755 -0.9920 -0.4986
 6512TIP3   OH241026   3.507   0.517   3.424  0.3595 -0.0362  0.1085
 6512TIP3    H141027   3.526   0.424   3.435  0.5821  0.1177  1.1769
 6512TIP3    H241028   3.411   0.522   3.427  0.2240 -0.4618 -2.1837
 6513TIP3   OH241029   5.039   2.303  12.535  0.3286  0.1464 -0.1090
 6513TIP3    H141030   4.992   2.303  12.452  2.1093  0.7279 -1.1505
 6513TIP3    H241031   5.111   2.365  12.523  1.9210 -1.3776  1.1096
 6514TIP3   OH241032   4.151   5.196  15.108  0.2272 -0.6177 -0.1466
 6514TIP3    H141033   4.166   5.204  15.014  0.1640  0.4781 -0.0732
 6514TIP3    H241034   4.082   5.131  15.115  1.0653 -1.6233 -0.7810
 6515TIP3   OH241035   3.298   1.262  14.659  0.5534 -0.3419  0.2424
 6515TIP3    H141036   3.372   1.228  14.609  0.8526 -0.4605  0.7594
 6515TIP3    H241037   3.253   1.321  14.599  2.9723  2.4017  0.9247
 6516TIP3   OH241038   5.690   5.484  13.421  0.2393  0.0559  0.1723
 6516TIP3    H141039   5.630   5.415  13.394 -0.9507  0.9679  0.4038
 6516TIP3    H241040   5.749   5.496  13.346 -0.3963 -0.2889 -0.3903
 6517TIP3   OH241041   0.134   1.378  17.053 -0.2287 -0.1234  0.1472
 6517TIP3    H141042   0.071   1.309  17.074  0.5189 -0.9437 -0.2313
 6517TIP3    H241043   0.095   1.458  17.087  0.2730 -1.1392  3.4635
 6518TIP3   OH241044   5.419   3.643  15.498 -0.0477 -0.4127 -0.4048
 6518TIP3    H141045   5.492   3.619  15.554 -0.9118 -0.1994  0.8521
 6518TIP3    H241046   5.375   3.715  15.544 -0.7603 -0.2136 -1.3631
 6519TIP3   OH241047   0.180   0.012  12.116  0.1335 -0.4772 -0.3845
 6519TIP3    H141048   0.263   0.018  12.162  0.2942 -1.6591 -0.5039
 6519TIP3    H241049   0.204  -0.006  12.025 -0.1839  1.6572 -0.9644
 6520TIP3   OH241050   2.163   1.881   4.424 -0.0320 -0.1355 -0.2693
 6520TIP3    H141051   2.129   1.862   4.337  1.3840 -0.2610 -0.8110
 6520TIP3    H241052   2.230   1.815   4.439  0.5841  0.6276  0.4086
 6521TIP3   OH241053   0.324   6.213  15.173 -0.1920 -0.6832 -0.1386
 6521TIP3    H141054   0.392   6.229  15.239  0.3316  0.7487 -0.9770
 6521TIP3    H241055   0.373   6.204  15.091 -0.9481 -0.6225 -0.6009
 6522TIP3   OH241056   5.450   5.462   0.986 -0.1000 -0.0077  0.1234
 6522TIP3    H141057   5.372   5.510   1.012 -0.3558 -0.0550 -0.5386
 6522TIP3    H241058   5.502   5.526   0.937  1.5702  0.8371  2.8059
 6523TIP3   OH241059   1.673   0.393  16.886  0.1221  0.6149 -0.4533
 6523TIP3    H141060   1.752   0.446  16.899  0.3721 -0.2123  1.8552
 6523TIP3    H241061   1.603   0.447  16.922  0.2997 -0.3246  1.4004
 6524TIP3   OH241062   2.132   4.412  11.926 -0.1720  0.1822  0.6644
 6524TIP3    H141063   2.155   4.421  12.018  0.7473 -0.3925  0.5072
 6524TIP3    H241064   2.096   4.323  11.919  2.1746 -0.8234  0.0494
 6525TIP3   OH241065   3.282   3.346  14.246  0.2876  0.5970  0.0028
 6525TIP3    H141066   3.370   3.311  14.260 -0.2526 -0.3480  1.2695
 6525TIP3    H241067   3.230   3.269  14.221 -0.0120  1.2991 -1.6996
 6526TIP3   OH241068   4.664   0.593  12.149  0.0874  0.1578 -0.4112
 6526TIP3    H141069   4.625   0.506  12.137 -1.4774  0.5932  1.0663
 6526TIP3    H241070   4.644   0.640  12.069  1.0673 -0.8590 -1.2869
 6527TIP3   OH241071   6.007   6.567  16.950 -0.1161  0.6226  0.0160
 6527TIP3    H141072   5.941   6.513  16.993  0.1543  0.9189  0.8308
 6527TIP3    H241073   6.059   6.603  17.022  0.6853  0.7124 -0.5926
 6528TIP3   OH241074   6.771   6.681   6.581 -0.4216 -0.0907  0.0402
 6528TIP3    H141075   6.756   6.762   6.533  1.9841  0.4048  0.0175
 6528TIP3    H241076   6.771   6.613   6.513 -1.7144 -0.0505 -0.0269
 6529TIP3   OH241077   0.951   5.667   2.893  0.0649  0.2747 -0.1431
 6529TIP3    H141078   0.899   5.738   2.856  0.6633  0.7767 -0.0371
 6529TIP3    H241079   0.974   5.697   2.981  1.1375  0.3825 -0.4478
 6530TIP3   OH241080   3.821   4.906  15.670 -0.3035 -0.2453  0.1644
 6530TIP3    H141081   3.856   4.985  15.710 -1.6530 -0.2859  1.5151
 6530TIP3    H241082   3.849   4.835  15.728 -1.1274 -0.4628  0.3154
 6531TIP3   OH241083   1.043   0.516   5.534  0.1641  0.3551 -0.5195
 6531TIP3    H141084   1.096   0.559   5.602  0.8023  0.6915 -1.2236
 6531TIP3    H241085   0.959   0.499   5.577  0.1800  1.5706  0.0211
 6532TIP3   OH241086   6.175   4.201  13.028  0.0722  0.2648  0.0277
 6532TIP3    H141087   6.115   4.184  12.955  0.5442  0.6454 -0.4588
 6532TIP3    H241088   6.144   4.282  13.067 -0.7425 -0.4223  0.8486
 6533TIP3   OH241089   6.714   2.723   4.992  0.1557  0.1042 -0.3753
 6533TIP3    H141090   6.725   2.674   4.910  1.1610 -1.8995  0.8544
 6533TIP3    H241091   6.761   2.805   4.978  0.7949 -0.4493 -1.6283
 6534TIP3   OH241092   1.424   0.686   0.165  0.7066  0.3484 -0.5291
 6534TIP3    H141093   1.519   0.694   0.171  0.5190  2.4008  0.4887
 6534TIP3    H241094   1.394   0.683   0.256 -0.1331 -2.4420 -0.7846
 6535TIP3   OH241095   4.115   0.683  16.508 -0.4328  0.2806  0.1060
 6535TIP3    H141096   4.144   0.597  16.539  0.3514  1.0829  1.7722
 6535TIP3    H241097   4.193   0.722  16.469 -0.0365  1.2368  1.7699
 6536TIP3   OH241098   1.300   2.705  16.627 -0.1850 -0.3059 -0.1196
 6536TIP3    H141099   1.322   2.635  16.687 -1.4503 -1.5160 -1.0203
 6536TIP3    H241100   1.317   2.669  16.540 -1.6305  0.2035 -0.6367
 6537TIP3   OH241101   6.751   4.996  13.748  0.4458  0.0552  0.5365
 6537TIP3    H141102   6.794   4.936  13.688 -0.9776  0.0679 -0.5432
 6537TIP3    H241103   6.818   5.063  13.767  1.4058 -0.7899  0.2082
 6538TIP3   OH241104   2.362   6.321  13.881  0.2629 -0.0222 -0.3162
 6538TIP3    H141105   2.446   6.353  13.847  0.6351 -1.6131 -0.9415
 6538TIP3    H241106   2.329   6.395  13.933  0.4092  1.9214 -2.7935
 6539TIP3   OH241107   2.116   4.772  13.246  0.6090  0.1062  0.4297
 6539TIP3    H141108   2.072   4.778  13.161 -0.4263  1.6477  1.0373
 6539TIP3    H241109   2.108   4.679  13.270 -0.3004 -0.0823 -0.5299
 6540TIP3   OH241110   2.279   3.748   3.294  0.6010 -0.3475 -0.0116
 6540TIP3    H141111   2.233   3.823   3.332 -1.8174 -1.1519 -1.0950
 6540TIP3    H241112   2.291   3.688   3.368  1.9330  0.7792  0.7222
 6541TIP3   OH241113   3.174   6.631   1.351 -0.1609 -0.1687 -0.3509
 6541TIP3    H141114   3.143   6.637   1.442  3.1790 -2.1337  1.1087
 6541TIP3    H241115   3.264   6.663   1.354 -0.1693  0.3956 -3.1880
 6542TIP3   OH241116   2.736   4.208   2.613  0.6469 -0.0732  0.6127
 6542TIP3    H141117   2.825   4.220   2.583  1.2008 -1.1554  1.7247
 6542TIP3    H241118   2.717   4.115   2.598 -0.7125  0.3694 -0.6596
 6543TIP3   OH241119   1.342   6.771   3.269 -0.1185  0.3409  0.4276
 6543TIP3    H141120   1.292   6.691   3.254 -0.4994  0.7908 -0.8405
 6543TIP3    H241121   1.313   6.831   3.201 -0.2725  1.7860  1.7123
 6544TIP3   OH241122   2.267   6.385  11.556 -0.2945  0.1910  0.0484
 6544TIP3    H141123   2.243   6.323  11.488 -1.9693  1.1488 -0.2920
 6544TIP3    H241124   2.213   6.359  11.632  2.2716 -1.5000  1.4372
 6545TIP3   OH241125   6.066   5.217  13.968 -0.2216 -0.1445  0.5840
 6545TIP3    H141126   6.042   5.137  13.921 -1.4192  0.2173  0.5547
 6545TIP3    H241127   6.101   5.274  13.900  0.7122 -0.6568  0.6155
 6546TIP3   OH241128   6.235   4.757  11.749 -0.1674 -0.2580  0.1866
 6546TIP3    H141129   6.320   4.741  11.789 -0.0293  0.2262  0.0920
 6546TIP3    H241130   6.222   4.683  11.690  0.1776 -0.3463  0.2173
 6547TIP3   OH241131   2.243   2.746   3.341  0.7619  0.4079 -0.9486
 6547TIP3    H141132   2.189   2.765   3.264  0.3537 -0.8520 -0.9963
 6547TIP3    H241133   2.184   2.758   3.415 -0.0927 -2.3529 -1.0630
 6548TIP3   OH241134   3.026   2.088   0.444 -0.0483 -0.3782 -0.6085
 6548TIP3    H141135   3.005   2.106   0.536  0.1346  1.7444 -0.9245
 6548TIP3    H241136   3.120   2.071   0.444  0.0442  0.1051 -0.4424
 6549TIP3   OH241137   0.936   3.957   4.849  0.5829 -0.1377 -0.5607
 6549TIP3    H141138   0.847   3.959   4.812 -0.0010 -0.3264  0.7975
 6549TIP3    H241139   0.975   4.040   4.820 -0.6114  0.7181  0.1612
 6550TIP3   OH241140   4.400   2.958   2.336  0.7490  0.0632  0.1142
 6550TIP3    H141141   4.369   2.883   2.286 -0.6784 -0.3374  1.4924
 6550TIP3    H241142   4.496   2.953   2.331  0.6587 -1.1879 -0.7432
 6551TIP3   OH241143   6.814   4.027  15.863  0.3756 -0.5587  0.0491
 6551TIP3    H141144   6.855   4.033  15.949  1.2079 -0.1620 -0.3701
 6551TIP3    H241145   6.773   3.940  15.863  0.4864 -0.6207  0.7900
 6552TIP3   OH241146   4.064   0.407  12.629 -0.4347 -0.0314 -0.0258
 6552TIP3    H141147   4.042   0.485  12.578  0.7376  0.6334  0.4328
 6552TIP3    H241148   4.034   0.427  12.717  2.0902  1.0272  0.6858
 6553TIP3   OH241149   5.233   1.932  16.956  0.5226  0.2564 -0.1574
 6553TIP3    H141150   5.140   1.937  16.982  0.2033  0.6539 -1.3153
 6553TIP3    H241151   5.281   1.952  17.036 -0.4221  1.3636  0.1579
 6554TIP3   OH241152   6.566   4.633   2.497 -0.0536  0.4224  0.0267
 6554TIP3    H141153   6.505   4.575   2.450  2.3872 -2.6996  0.4300
 6554TIP3    H241154   6.528   4.641   2.584 -1.2757  0.8611 -0.5174
 6555TIP3   OH241155   4.381   4.176   4.862 -0.1460 -0.1471  0.8315
 6555TIP3    H141156   4.381   4.119   4.939  0.9900 -4.7138 -2.1539
 6555TIP3    H241157   4.288   4.191   4.845 -0.5375 -1.5029  1.5573
 6556TIP3   OH241158   6.446   0.351  13.342  0.1065 -0.5638 -0.2295
 6556TIP3    H141159   6.469   0.433  13.298 -0.1570 -1.6515 -2.5283
 6556TIP3    H241160   6.514   0.342  13.410  2.2145 -0.1050 -2.1369
 6557TIP3   OH241161   2.417   4.484   4.251  0.0939 -0.7197  0.7033
 6557TIP3    H141162   2.470   4.560   4.275  0.3207 -0.7605  0.3438
 6557TIP3    H241163   2.480   4.417   4.225 -0.1303 -0.7705  0.2755
 6558TIP3   OH241164   4.010   6.596   3.775  0.1184 -0.2277 -0.1092
 6558TIP3    H141165   3.915   6.595   3.768  0.0252 -0.2294  1.0068
 6558TIP3    H241166   4.031   6.676   3.823  0.9157  1.3268 -2.8436
 6559TIP3   OH241167   1.369   2.527   1.294  0.3469  0.3128 -0.3847
 6559TIP3    H141168   1.339   2.559   1.380  0.3092  1.7553 -0.9061
 6559TIP3    H241169   1.290   2.489   1.255  0.4423 -0.6822  0.3412
 6560TIP3   OH241170   4.958   4.809   4.403 -0.0125 -0.0395 -0.4500
 6560TIP3    H141171   5.040   4.852   4.377  0.2221 -0.4762 -0.4411
 6560TIP3    H241172   4.904   4.880   4.439  1.0423 -0.0361  1.2375
 6561TIP3   OH241173   5.611   3.285  12.944 -0.0934  0.0312 -1.0517
 6561TIP3    H141174   5.580   3.347  12.878 -0.2085 -1.5887 -2.5959
 6561TIP3    H241175   5.572   3.201  12.918 -0.8520 -0.5350  1.5910
 6562TIP3   OH241176   3.081   0.465  16.131 -0.2268  0.3590 -0.1294
 6562TIP3    H141177   3.052   0.387  16.083  2.6850 -1.5585  0.9204
 6562TIP3    H241178   3.137   0.511  16.068 -1.6616  1.4869 -0.6282
 6563TIP3   OH241179   5.485   6.532   0.290 -0.3104  0.4535  0.1641
 6563TIP3    H141180   5.447   6.620   0.297  0.1557  0.5514  2.1749
 6563TIP3    H241181   5.417   6.474   0.325 -0.2748  0.1118 -0.3234
 6564TIP3   OH241182   5.740   1.258  14.933  0.1231 -0.1442  0.2981
 6564TIP3    H141183   5.782   1.344  14.925 -1.4464  0.6964  0.8066
 6564TIP3    H241184   5.684   1.250  14.856 -1.4331  0.2895  1.3355
 6565TIP3   OH241185   3.000   0.154  11.776 -0.4671  0.3711  0.6726
 6565TIP3    H141186   2.963   0.230  11.820  0.7793  1.7828 -0.5922
 6565TIP3    H241187   2.983   0.169  11.683  0.6177 -0.4084  0.3167
 6566TIP3   OH241188   4.173   3.129   3.073 -0.3512 -0.4736  0.3103
 6566TIP3    H141189   4.184   3.190   3.001  0.7351  0.3067  1.1020
 6566TIP3    H241190   4.196   3.044   3.037  3.6281  0.3386  0.4994
 6567TIP3   OH241191   4.123   2.997  11.389 -0.5261 -0.6316  0.3100
 6567TIP3    H141192   4.168   2.918  11.417 -1.2388 -1.2971 -0.3757
 6567TIP3    H241193   4.055   2.966  11.328  1.2843  0.7461 -2.6290
 6568TIP3   OH241194   6.713   4.713  11.018  0.3368  0.0278 -0.4428
 6568TIP3    H141195   6.621   4.716  10.991 -0.0647  1.5955  0.9972
 6568TIP3    H241196   6.762   4.730  10.937 -0.7638  2.8746 -0.5950
 6569TIP3   OH241197   5.308   4.333   4.398 -0.7080 -0.3659 -0.0186
 6569TIP3    H141198   5.312   4.240   4.374  0.5212 -0.4985  0.6026
 6569TIP3    H241199   5.222   4.343   4.438 -0.3891 -1.5615  1.0492
 6570TIP3   OH241200   3.446   3.944  12.874 -0.4900  0.0232  0.6481
 6570TIP3    H141201   3.505   4.018  12.858 -1.1958  0.5252  0.3036
 6570TIP3    H241202   3.371   3.983  12.918 -0.6876 -0.5651  0.8380
 6571TIP3   OH241203   1.745   3.104  12.996  0.5576 -0.2295  0.2058
 6571TIP3    H141204   1.771   3.193  12.974 -0.8851  0.5238  1.3932
 6571TIP3    H241205   1.731   3.105  13.091  1.5898 -2.0299  0.4262
 6572TIP3   OH241206   6.453   5.385  16.254 -0.2964  0.1133 -0.0604
 6572TIP3    H141207   6.417   5.456  16.307 -1.7742 -0.5882 -0.0546
 6572TIP3    H241208   6.381   5.360  16.196 -0.1712 -2.0078  0.6015
 6573TIP3   OH241209   0.969   1.692   3.314  0.6878  0.4152  0.1907
 6573TIP3    H141210   0.978   1.607   3.357  0.2116  0.3177  0.1050
 6573TIP3    H241211   1.024   1.751   3.365  0.5687  0.1775  0.5961
 6574TIP3   OH241212   0.989   3.081   2.655 -0.0404 -0.3390  0.0189
 6574TIP3    H141213   0.954   3.148   2.596 -0.6237  0.3139  1.0716
 6574TIP3    H241214   1.082   3.101   2.661 -0.0617 -0.1269 -0.3113
 6575TIP3   OH241215   3.457   3.568   3.487  0.4709  0.6866 -0.1014
 6575TIP3    H141216   3.375   3.537   3.448  0.5759 -1.7313  1.3867
 6575TIP3    H241217   3.430   3.604   3.572  0.9361 -0.3971  0.5262
 6576TIP3   OH241218   3.974   3.217  16.459  0.0367  0.2416 -0.5582
 6576TIP3    H141219   3.886   3.188  16.439  0.9246 -1.9330 -1.6113
 6576TIP3    H241220   3.988   3.193  16.551 -0.3904  0.4784 -0.4286
 6577TIP3   OH241221   0.554   0.083  14.359  0.3815  0.5073 -0.4325
 6577TIP3    H141222   0.540   0.156  14.420 -1.5550 -0.2605  0.1328
 6577TIP3    H241223   0.599   0.017  14.412 -2.3753 -0.6473  0.6850
 6578TIP3   OH241224   3.092   0.952   5.210  0.0408 -0.5555 -0.5312
 6578TIP3    H141225   3.129   0.965   5.123 -0.2435 -1.7263 -0.8502
 6578TIP3    H241226   2.997   0.964   5.198  0.2101  2.6357  0.3198
 6579TIP3   OH241227   3.896   6.108  14.417  0.5707 -0.3177 -0.2611
 6579TIP3    H141228   3.814   6.107  14.466  0.9061  1.0801  0.3758
 6579TIP3    H241229   3.902   6.021  14.378 -0.8967 -0.6480  0.1992
 6580TIP3   OH241230   2.418   1.421   3.736 -0.3332 -0.0724  0.2154
 6580TIP3    H141231   2.332   1.430   3.777 -0.4290 -0.4769  0.1064
 6580TIP3    H241232   2.480   1.440   3.806 -0.5127  0.4717  0.2318
 6581TIP3   OH241233   4.441   0.628   5.827  0.0279 -0.1227 -0.0617
 6581TIP3    H141234   4.455   0.644   5.920  0.1872 -0.4303 -0.0293
 6581TIP3    H241235   4.474   0.539   5.813  0.2922  0.0350 -0.4732
 6582TIP3   OH241236   5.732   2.870   5.843 -0.1617  0.0678  0.1593
 6582TIP3    H141237   5.680   2.846   5.920 -0.3736 -0.4367 -0.1405
 6582TIP3    H241238   5.697   2.955   5.816 -0.1021  0.2381  0.6066
 6583TIP3   OH241239   3.266   5.699  15.711 -0.1322  0.2491 -0.6000
 6583TIP3    H141240   3.216   5.766  15.663 -0.8624  0.1600  0.0226
 6583TIP3    H241241   3.273   5.734  15.799  2.5019  1.1184 -1.0667
 6584TIP3   OH241242   2.029   3.147   2.677 -0.1225 -0.2843  0.5767
 6584TIP3    H141243   1.974   3.223   2.699 -0.1955 -0.5056  1.1716
 6584TIP3    H241244   1.996   3.119   2.591  1.8583  2.1462 -1.1442
 6585TIP3   OH241245   4.357   4.948  17.082  0.0168  0.3488  0.5372
 6585TIP3    H141246   4.450   4.971  17.084 -0.1972  1.2758  0.2586
 6585TIP3    H241247   4.320   5.004  17.014 -0.3878 -1.4471 -0.8054
 6586TIP3   OH241248   6.456   2.146  13.223  0.5250 -0.4422  0.4760
 6586TIP3    H141249   6.536   2.185  13.258  0.0068 -0.6564  1.9374
 6586TIP3    H241250   6.446   2.186  13.136  1.9378 -0.0426  0.4717
 6587TIP3   OH241251   5.753   6.315  14.201  0.5857 -0.2651  0.0544
 6587TIP3    H141252   5.677   6.330  14.145  1.5833  2.0792 -0.8273
 6587TIP3    H241253   5.719   6.272  14.279 -1.2962 -1.0359 -1.1372
 6588TIP3   OH241254   4.147   2.537   2.968  0.5151 -0.2712  0.0599
 6588TIP3    H141255   4.130   2.552   3.061  1.2582 -1.0038  0.3247
 6588TIP3    H241256   4.240   2.554   2.957 -0.0218  2.5178 -1.1281
 6589TIP3   OH241257   1.859   1.466  13.496 -0.3073  0.4780 -0.5157
 6589TIP3    H141258   1.781   1.504  13.536 -0.8865 -0.7025 -0.4985
 6589TIP3    H241259   1.826   1.392  13.445  0.9111 -0.6103  0.2417
 6590TIP3   OH241260   6.278   1.021  16.757  0.1256 -0.2082  0.3536
 6590TIP3    H141261   6.196   0.999  16.712  1.3789 -2.4873 -1.0065
 6590TIP3    H241262   6.311   1.099  16.712 -0.6021 -0.1107 -0.0217
 6591TIP3   OH241263   1.561   5.981   1.499  0.2046 -0.1911  0.4199
 6591TIP3    H141264   1.572   6.045   1.569 -2.2806 -0.5939  1.3003
 6591TIP3    H241265   1.523   5.904   1.542 -1.5488 -0.4007 -1.3258
 6592TIP3   OH241266   5.160   1.458   3.461 -0.8028 -0.6426  0.0197
 6592TIP3    H141267   5.104   1.484   3.533 -0.0698 -0.9635  0.7249
 6592TIP3    H241268   5.112   1.389   3.416 -1.6058  0.0999 -0.2808
 6593TIP3   OH241269   1.078   0.821  13.658 -0.1879 -0.7763  0.3168
 6593TIP3    H141270   1.066   0.799  13.565  2.7341 -1.2666 -0.0598
 6593TIP3    H241271   1.136   0.752  13.691 -0.6536 -0.2401  2.3548
 6594TIP3   OH241272   3.366   3.910   6.280  0.9478 -0.5448  0.2401
 6594TIP3    H141273   3.342   3.909   6.373  1.0994 -0.9866  0.2736
 6594TIP3    H241274   3.290   3.949   6.236  0.8441 -0.4087  0.5381
 6595TIP3   OH241275   5.122   6.699  11.266 -0.0610  0.6244  0.1063
 6595TIP3    H141276   5.152   6.655  11.186  0.5162 -0.1568  0.7339
 6595TIP3    H241277   5.043   6.746  11.240 -1.1535 -1.4281 -0.4085
 6596TIP3   OH241278   1.561   3.548  15.315  0.3241 -0.3144  0.1949
 6596TIP3    H141279   1.468   3.561  15.335  0.2020  0.9463 -1.0200
 6596TIP3    H241280   1.589   3.479  15.375 -0.3503  2.0402  3.5696
 6597TIP3   OH241281   4.035   1.996   6.167 -0.1396 -0.3097  0.0956
 6597TIP3    H141282   3.948   1.960   6.185 -0.4089 -0.9284 -2.1786
 6597TIP3    H241283   4.086   1.921   6.137  0.5712  0.4111 -0.5440
 6598TIP3   OH241284   0.725   3.818   1.223  0.1357 -0.1049 -0.5668
 6598TIP3    H141285   0.654   3.765   1.188  0.8258 -2.0173  0.7627
 6598TIP3    H241286   0.783   3.755   1.267  2.7095  1.3216 -1.6480
 6599TIP3   OH241287   4.872   1.861   0.126  0.3450  0.3492 -0.1740
 6599TIP3    H141288   4.803   1.921   0.156  0.1271  0.0870 -0.1448
 6599TIP3    H241289   4.868   1.789   0.188  0.9617  0.5495  0.1056
 6600TIP3   OH241290   1.989   1.760  16.603  0.0574 -0.0033  0.3890
 6600TIP3    H141291   2.008   1.827  16.669 -0.5183  0.7589 -0.1978
 6600TIP3    H241292   2.058   1.694  16.615  0.9628  0.9544  0.6311
 6601TIP3   OH241293   3.703   2.502  12.848 -0.4558 -0.1632 -0.3657
 6601TIP3    H141294   3.742   2.537  12.768 -1.9800 -2.0768 -2.0442
 6601TIP3    H241295   3.685   2.579  12.902 -2.0487  1.5271 -3.1043
 6602TIP3   OH241296   3.309   3.492   0.612 -0.1183  0.2352  0.3433
 6602TIP3    H141297   3.382   3.430   0.609 -2.1834 -2.4198  0.6857
 6602TIP3    H241298   3.329   3.550   0.685  1.0206 -1.2910  1.2995
 6603TIP3   OH241299   5.589   6.695  11.747  0.4302 -0.0005  0.3583
 6603TIP3    H141300   5.625   6.706  11.659  0.1611  1.7561  0.4265
 6603TIP3    H241301   5.639   6.756  11.801 -0.0036 -0.4125  1.2453
 6604TIP3   OH241302   6.763   1.392  12.974 -0.1230  0.3789 -0.1936
 6604TIP3    H141303   6.818   1.369  13.050  0.0376  1.0449 -0.1004
 6604TIP3    H241304   6.728   1.478  12.996 -0.2071  0.5034 -0.8063
 6605TIP3   OH241305   3.657   5.803  14.858  0.3358  0.0566  0.4971
 6605TIP3    H141306   3.608   5.754  14.925  2.1091 -1.1727  0.9709
 6605TIP3    H241307   3.637   5.758  14.776  0.4001 -0.2109  0.6280
 6606TIP3   OH241308   1.971   1.193   1.263 -0.1244  0.6331 -0.0794
 6606TIP3    H141309   2.022   1.221   1.186 -0.3968  0.0768 -0.4695
 6606TIP3    H241310   2.030   1.134   1.310 -1.2144 -2.1214 -1.8930
 6607TIP3   OH241311   1.192   3.721  17.269 -0.5115 -0.2731  0.4441
 6607TIP3    H141312   1.116   3.762  17.310 -0.9411  0.0687 -0.6514
 6607TIP3    H241313   1.222   3.657  17.333 -0.6399  0.8143  1.6266
 6608TIP3   OH241314   5.915   5.580   5.494 -0.1360  0.1238 -0.4156
 6608TIP3    H141315   5.828   5.540   5.484  0.1150 -0.2221 -1.3573
 6608TIP3    H241316   5.933   5.620   5.409  1.5676 -1.7854 -1.0631
 6609TIP3   OH241317   6.239   6.425   0.943  1.1954  0.0964 -0.5354
 6609TIP3    H141318   6.213   6.457   1.029  1.0058 -1.4019 -0.0009
 6609TIP3    H241319   6.210   6.492   0.882 -1.7078 -0.3362  0.2514
 6610TIP3   OH241320   5.812   1.898  16.191 -0.4902  0.3010 -0.0354
 6610TIP3    H141321   5.854   1.973  16.233 -0.6576  0.0021  0.6848
 6610TIP3    H241322   5.751   1.936  16.128 -0.8602  0.7815  0.5984
 6611TIP3   OH241323   0.892   4.244   2.129  0.2867 -0.4472 -0.1654
 6611TIP3    H141324   0.958   4.179   2.150 -1.5536 -2.1731  0.6181
 6611TIP3    H241325   0.905   4.313   2.194 -0.8147 -2.4202  2.3284
 6612TIP3   OH241326   6.458   3.103   0.310  0.0885 -0.3863  0.4266
 6612TIP3    H141327   6.473   3.185   0.356  0.6006 -1.3825  2.1185
 6612TIP3    H241328   6.375   3.071   0.345 -0.4948 -0.2314 -0.7859
 6613TIP3   OH241329   2.771   0.602  15.997  0.4598  0.1923 -0.0281
 6613TIP3    H141330   2.687   0.643  15.974  0.6937 -0.3632 -2.0668
 6613TIP3    H241331   2.836   0.660  15.958  0.9371 -0.3780 -0.0827
 6614TIP3   OH241332   5.628   0.268  14.294  0.3577  0.2180 -0.0541
 6614TIP3    H141333   5.687   0.213  14.242  0.2730  0.0365  0.0434
 6614TIP3    H241334   5.558   0.293  14.233  0.0351 -0.3370  0.0823
 6615TIP3   OH241335   2.701   0.468  16.913 -0.3801 -0.6126  0.9955
 6615TIP3    H141336   2.784   0.515  16.917  0.6207 -2.1482 -0.3879
 6615TIP3    H241337   2.648   0.506  16.983  0.1899  2.7736 -0.2534
 6616TIP3   OH241338   5.526   2.084  12.262  0.2097 -0.3484  0.3457
 6616TIP3    H141339   5.501   1.999  12.226  1.4554 -0.5237 -0.1341
 6616TIP3    H241340   5.619   2.076  12.282  0.2116  0.7176  0.8542
 6617TIP3   OH241341   4.669   4.626  13.630  0.0523 -0.1406 -0.0888
 6617TIP3    H141342   4.753   4.616  13.586  0.4818 -0.6868  0.8073
 6617TIP3    H241343   4.692   4.634  13.723 -0.8653 -0.0193  0.1391
 6618TIP3   OH241344   5.778   0.055  10.908  0.1159 -0.5556 -0.2687
 6618TIP3    H141345   5.711  -0.003  10.943 -0.8065  0.2463 -0.6581
 6618TIP3    H241346   5.802   0.017  10.823 -0.8783 -0.0918 -0.7696
 6619TIP3   OH241347   0.162   2.498  13.262 -0.7104  0.0323 -0.1883
 6619TIP3    H141348   0.217   2.454  13.327 -0.1889 -0.4029 -0.9093
 6619TIP3    H241349   0.175   2.448  13.181 -2.2616 -0.1631 -0.3552
 6620TIP3   OH241350   4.363   4.610   4.297  0.4710  0.3411 -0.0862
 6620TIP3    H141351   4.422   4.596   4.371 -0.7898  0.9340  1.0994
 6620TIP3    H241352   4.332   4.700   4.309 -1.4699 -0.2961 -0.0302
 6621TIP3   OH241353   4.059   6.579   4.507  0.0376 -0.0016 -0.5561
 6621TIP3    H141354   4.096   6.628   4.434 -1.8169 -0.2712 -1.7432
 6621TIP3    H241355   3.968   6.609   4.513 -0.7259 -2.1854 -0.3531
 6622TIP3   OH241356   4.496   5.462  11.615  0.0191  0.0093 -0.8345
 6622TIP3    H141357   4.528   5.383  11.658 -0.0645 -0.3476 -1.4190
 6622TIP3    H241358   4.535   5.460  11.528  0.0302  0.6213 -0.8493
 6623TIP3   OH241359   5.347   5.676  12.436  0.2267 -0.3306  0.2699
 6623TIP3    H141360   5.285   5.724  12.491  1.5514  1.6274  0.1197
 6623TIP3    H241361   5.393   5.618  12.497 -0.6238 -0.6519  0.6335
 6624TIP3   OH241362   1.365   2.005   5.023  0.2394  0.1124  0.2679
 6624TIP3    H141363   1.344   1.960   5.105  0.0709 -0.1087  0.1062
 6624TIP3    H241364   1.402   1.936   4.968  0.9873  0.4059  0.3930
 6625TIP3   OH241365   6.407   3.244   5.995 -0.2051  0.0441 -0.2023
 6625TIP3    H141366   6.404   3.340   5.988 -0.2991  0.1909  1.4959
 6625TIP3    H241367   6.332   3.221   6.048  1.4309 -0.6609  1.9461
 6626TIP3   OH241368   3.486   5.950   4.449  0.7200 -0.3292  0.0904
 6626TIP3    H141369   3.484   5.932   4.355 -1.6184 -0.3448  0.0701
 6626TIP3    H241370   3.467   6.044   4.456  1.1994 -0.2605  0.5409
 6627TIP3   OH241371   4.837   4.545   1.893  0.1919  0.4909  0.0530
 6627TIP3    H141372   4.803   4.475   1.837  0.2575  0.1257  0.4658
 6627TIP3    H241373   4.894   4.596   1.835  0.9131 -0.3716 -0.0116
 6628TIP3   OH241374   1.065   4.741  10.912 -0.2451  0.4994  0.3565
 6628TIP3    H141375   1.032   4.800  10.980  0.4043 -0.2585  1.3552
 6628TIP3    H241376   1.042   4.784  10.829 -1.3830  1.2588  1.0460
 6629TIP3   OH241377   4.521   6.520   4.788 -0.4853  0.2544  0.5173
 6629TIP3    H141378   4.522   6.472   4.871 -0.5216 -0.2162  0.2531
 6629TIP3    H241379   4.438   6.495   4.747  0.3939 -1.0953 -0.5517
 6630TIP3   OH241380   4.959   3.461  11.823  0.8648  0.2418  0.0803
 6630TIP3    H141381   4.966   3.554  11.800  0.8123 -0.2580 -2.1904
 6630TIP3    H241382   4.866   3.448  11.841  0.9338  0.6888  0.8229
 6631TIP3   OH241383   5.600   5.769   5.204 -0.1239  0.3514 -0.3375
 6631TIP3    H141384   5.519   5.718   5.211  0.8032 -1.0776  0.3363
 6631TIP3    H241385   5.634   5.772   5.293  1.0839  0.0558 -0.7788
 6632TIP3   OH241386   5.504   0.053   5.960 -0.1276 -0.1251 -0.3213
 6632TIP3    H141387   5.475   0.143   5.977 -1.9413 -1.1716  2.7485
 6632TIP3    H241388   5.443   0.021   5.894 -0.3252  0.4458 -0.4237
 6633TIP3   OH241389   5.714   2.232  15.753  0.0353  0.4476  0.1751
 6633TIP3    H141390   5.797   2.249  15.797 -0.2840  0.2135  0.8723
 6633TIP3    H241391   5.738   2.222  15.660  0.8933 -0.4114  0.4700
 6634TIP3   OH241392   3.813   1.295   0.205 -0.1050 -0.0738 -0.2702
 6634TIP3    H141393   3.856   1.375   0.236 -0.5023 -0.2356  0.7269
 6634TIP3    H241394   3.789   1.314   0.114 -0.4829  1.0542  0.0572
 6635TIP3   OH241395   1.191   5.753   3.439  0.1724  0.3353 -0.0772
 6635TIP3    H141396   1.261   5.817   3.425 -0.2852  0.2329 -3.6293
 6635TIP3    H241397   1.119   5.804   3.476  1.2399  0.9043  1.3490
 6636TIP3   OH241398   3.680   6.814  16.467 -0.4055  0.5123  0.6689
 6636TIP3    H141399   3.721   6.733  16.436 -0.0597  0.7331  0.5421
 6636TIP3    H241400   3.658   6.796  16.558  0.5100  0.5817  0.9198
 6637TIP3   OH241401   6.103   6.573  12.984 -0.4286 -0.1094  0.0408
 6637TIP3    H141402   6.061   6.587  13.069 -1.4918  1.8478 -0.7428
 6637TIP3    H241403   6.121   6.479  12.981 -2.4106 -0.5896  1.5012
 6638TIP3   OH241404   6.025   0.970  16.625 -0.5367 -0.2574 -0.1586
 6638TIP3    H141405   6.058   0.969  16.535  1.4409  1.3693  0.4582
 6638TIP3    H241406   6.006   1.062  16.642  0.9495 -0.2184  1.6334
 6639TIP3   OH241407   4.377   4.235   1.099  0.4352 -0.3333  0.1231
 6639TIP3    H141408   4.434   4.261   1.171 -0.2750  0.6704  0.3588
 6639TIP3    H241409   4.288   4.243   1.135  0.1389 -2.3150 -0.0863
 6640TIP3   OH241410   2.969   1.788   0.992  0.0152  0.8273  0.3075
 6640TIP3    H141411   3.008   1.735   1.061 -0.0295  1.1012  0.5474
 6640TIP3    H241412   2.974   1.734   0.914  1.0200  0.9145  0.2978
 6641TIP3   OH241413   1.788   2.975   3.554 -0.2312 -0.2577  0.6120
 6641TIP3    H141414   1.863   2.952   3.499  0.6493 -0.0342  1.6968
 6641TIP3    H241415   1.800   3.068   3.572  0.4331 -0.6824  2.5600
 6642TIP3   OH241416   5.236   6.704   1.616 -0.2149 -0.1806  0.2952
 6642TIP3    H141417   5.299   6.645   1.658  0.0711 -0.5444 -0.6298
 6642TIP3    H241418   5.250   6.788   1.660  0.9770 -0.2359  0.0651
 6643TIP3   OH241419   5.564   5.915   5.495 -0.2415  0.1755  0.0415
 6643TIP3    H141420   5.609   5.859   5.558 -1.0357  1.4506  1.8349
 6643TIP3    H241421   5.554   5.999   5.540 -4.7814 -0.1031  0.0357
 6644TIP3   OH241422   6.752   5.222   3.824  0.7490 -0.3470  0.4337
 6644TIP3    H141423   6.691   5.225   3.898  1.4855 -0.2036  1.0502
 6644TIP3    H241424   6.745   5.132   3.792 -0.5194 -0.0588 -0.1511
 6645TIP3   OH241425   4.457   1.752  13.529 -0.4378  0.4078 -0.0016
 6645TIP3    H141426   4.466   1.665  13.490 -0.2156 -0.1068  1.1663
 6645TIP3    H241427   4.362   1.763  13.540 -0.5883  0.9766 -1.5521
 6646TIP3   OH241428   0.485   3.796  17.107 -0.2728 -0.5374 -0.0694
 6646TIP3    H141429   0.566   3.777  17.154  0.3492  3.2156  0.6905
 6646TIP3    H241430   0.419   3.740  17.148  0.8687  0.3306  3.2013
 6647TIP3   OH241431   4.358   0.418   2.370  0.8362  0.4863 -0.0012
 6647TIP3    H141432   4.361   0.385   2.280 -0.3401 -0.7450  0.3774
 6647TIP3    H241433   4.300   0.494   2.366  0.1011 -0.0710 -0.1518
 6648TIP3   OH241434   1.110   5.970   2.843 -0.0770 -0.1044 -0.1170
 6648TIP3    H141435   1.127   5.920   2.923 -0.3981 -0.5036 -0.2945
 6648TIP3    H241436   1.197   5.980   2.803 -0.1372 -1.5693 -0.6847
 6649TIP3   OH241437   3.049   4.623   1.315 -1.6601 -0.1221 -0.6071
 6649TIP3    H141438   2.991   4.696   1.335 -0.8277  0.6730 -0.9840
 6649TIP3    H241439   3.022   4.553   1.374 -3.1807  0.1205 -0.9854
 6650TIP3   OH241440   6.610   2.982  15.626  0.0331 -0.3114 -0.1396
 6650TIP3    H141441   6.632   2.904  15.677  0.0039 -0.0287  0.3092
 6650TIP3    H241442   6.522   3.006  15.657  0.9058  1.1690  1.3087
 6651TIP3   OH241443   5.279   0.037   6.173  0.2855 -0.0588  0.3288
 6651TIP3    H141444   5.255   0.116   6.124 -0.5618 -1.0453 -0.9037
 6651TIP3    H241445   5.205  -0.022   6.161  0.8036 -0.9698  1.4342
 6652TIP3   OH241446   6.027   5.950   3.609  0.4378 -0.5608 -0.0057
 6652TIP3    H141447   5.956   5.916   3.664  1.5194 -0.1661  1.7468
 6652TIP3    H241448   6.076   5.873   3.582  0.6662 -0.6951  0.7499
 6653TIP3   OH241449   1.005   2.132  14.480  0.0905 -0.2265  0.3979
 6653TIP3    H141450   1.021   2.170  14.566 -1.6792  2.0465 -0.1932
 6653TIP3    H241451   0.949   2.057  14.496  0.2661 -0.1783  1.2697
 6654TIP3   OH241452   2.515   6.352   4.614 -0.1894  0.8846 -0.4733
 6654TIP3    H141453   2.600   6.389   4.589  1.3974 -0.7721  1.9936
 6654TIP3    H241454   2.451   6.417   4.584  1.6488  1.1712 -4.4655
 6655TIP3   OH241455   4.229   0.004  12.545 -0.0056  0.7292 -0.8726
 6655TIP3    H141456   4.145   0.050  12.540  0.8331  2.4267 -0.1897
 6655TIP3    H241457   4.247  -0.024  12.455 -1.3176  0.2659 -1.0125
 6656TIP3   OH241458   3.055   2.754   5.633 -0.2690 -0.0591 -0.3912
 6656TIP3    H141459   2.992   2.777   5.702 -0.9284 -3.1261  0.1645
 6656TIP3    H241460   3.013   2.684   5.584  1.1724  0.4579 -2.5022
 6657TIP3   OH241461   5.487   2.941  11.770 -0.2823  1.3444  0.1458
 6657TIP3    H141462   5.422   2.894  11.717 -0.7468 -1.0267  2.5978
 6657TIP3    H241463   5.562   2.950  11.712 -1.3393  0.4466 -1.4726
 6658TIP3   OH241464   1.653   5.422  15.541 -0.0125  0.0459 -0.0988
 6658TIP3    H141465   1.596   5.373  15.600 -0.1153  0.2995  0.0146
 6658TIP3    H241466   1.630   5.514  15.556  2.1502  0.3678  1.7846
 6659TIP3   OH241467   6.435   3.922   0.033 -0.0916 -0.1703 -0.1197
 6659TIP3    H141468   6.424   3.970   0.115 -1.1158 -0.1246 -0.2780
 6659TIP3    H241469   6.419   3.987  -0.035 -0.2162 -0.4392 -0.3480
 6660TIP3   OH241470   0.271   0.422  16.601  0.3758  0.0392  0.1378
 6660TIP3    H141471   0.216   0.379  16.666  2.1792 -2.5413  0.1217
 6660TIP3    H241472   0.318   0.489  16.650 -1.1258  0.8194  0.5872
 6661TIP3   OH241473   5.058   1.028  15.112  0.3945 -0.1962  0.2019
 6661TIP3    H141474   5.072   0.964  15.042  0.8068 -1.5770  1.4870
 6661TIP3    H241475   5.143   1.070  15.124  0.2299  0.3106 -0.3594
 6662TIP3   OH241476   1.071   0.746   2.160  0.7953  0.0474  0.6588
 6662TIP3    H141477   1.145   0.734   2.101  0.0197 -1.2384 -0.1012
 6662TIP3    H241478   0.994   0.742   2.102 -0.0390 -2.1858  1.8223
 6663TIP3   OH241479   2.474   1.247   4.562 -0.5550 -0.0152  0.5275
 6663TIP3    H141480   2.403   1.199   4.519 -0.7066  1.1073 -0.5452
 6663TIP3    H241481   2.440   1.267   4.649 -1.0833 -0.5354  0.4473
 6664TIP3   OH241482   5.791   4.601   6.078  0.1926 -0.0143  0.4689
 6664TIP3    H141483   5.744   4.622   6.159  0.2179 -0.9219  0.7324
 6664TIP3    H241484   5.797   4.505   6.078  0.3733 -0.0117 -0.5090
 6665TIP3   OH241485   6.745   0.108  13.798  0.1124 -0.2084  0.1396
 6665TIP3    H141486   6.725   0.058  13.719  0.2407  0.8514 -0.5868
 6665TIP3    H241487   6.794   0.047  13.853 -0.0023 -0.9763 -0.5856
 6666TIP3   OH241488   3.080   0.266  13.029 -0.1680 -0.0865 -0.1666
 6666TIP3    H141489   3.151   0.276  12.965  0.7343  0.3898  0.8830
 6666TIP3    H241490   3.035   0.350  13.028  1.2801  0.7705  1.4561
 6667TIP3   OH241491   0.726   4.528   3.902  0.3721  1.3371 -0.2581
 6667TIP3    H141492   0.775   4.529   3.819  0.0518 -0.1005 -0.4923
 6667TIP3    H241493   0.637   4.552   3.877  0.2487  0.7839 -0.3511
 6668TIP3   OH241494   1.317   0.254  16.370 -0.1672 -0.1631 -0.6224
 6668TIP3    H141495   1.358   0.323  16.422 -0.2052 -1.0805  0.7050
 6668TIP3    H241496   1.262   0.300  16.308 -1.7314  1.0311  1.5010
 6669TIP3   OH241497   1.446   4.958  12.981  0.5255  0.5952  0.0713
 6669TIP3    H141498   1.489   5.037  13.015 -0.9828  0.7500  1.8349
 6669TIP3    H241499   1.364   4.954  13.030 -0.3206 -1.0259 -1.3889
 6670TIP3   OH241500   5.972   4.240  14.356 -0.5098 -0.1176  0.0299
 6670TIP3    H141501   6.024   4.183  14.413  2.1246 -0.4518 -2.4838
 6670TIP3    H241502   5.938   4.182  14.288 -0.0408  0.8534 -1.0736
 6671TIP3   OH241503   5.454   2.173  15.368 -0.0661 -0.0047 -0.4744
 6671TIP3    H141504   5.478   2.135  15.283  0.1653  2.7951 -1.7557
 6671TIP3    H241505   5.380   2.230  15.349  1.0529  1.9976  0.8463
 6672TIP3   OH241506   1.982   3.606  14.194  0.2852  0.2261 -0.0044
 6672TIP3    H141507   1.923   3.681  14.192  0.7363  0.5857 -1.9809
 6672TIP3    H241508   2.069   3.644  14.182  1.0742 -0.2592  3.1924
 6673TIP3   OH241509   1.577   1.547   2.246  0.0483 -0.1294 -0.1981
 6673TIP3    H141510   1.491   1.527   2.283 -0.5054  1.7984 -0.3573
 6673TIP3    H241511   1.636   1.485   2.290 -0.9053  0.6557  2.3899
 6674TIP3   OH241512   0.151   2.376   0.029  0.4171 -0.6106 -0.2442
 6674TIP3    H141513   0.153   2.306  -0.037  0.3213  0.7067 -1.6912
 6674TIP3    H241514   0.199   2.448  -0.011 -3.1564  1.7508 -0.6419
 6675TIP3   OH241515   5.475   3.275  15.789  0.2443 -0.0020  0.8605
 6675TIP3    H141516   5.462   3.181  15.776  0.1429  0.0840  0.3165
 6675TIP3    H241517   5.484   3.311  15.700  0.0864  0.5277  1.0522
 6676TIP3   OH241518   5.923   5.824  11.569 -0.1337  0.1999  0.2636
 6676TIP3    H141519   5.864   5.796  11.639  1.6242  0.5614  1.9734
 6676TIP3    H241520   5.980   5.749  11.555  1.1887  1.0153  1.0991
 6677TIP3   OH241521   2.861   2.397  16.662 -0.1294 -0.1226 -0.2362
 6677TIP3    H141522   2.821   2.418  16.747 -0.0291 -0.9754  0.0220
 6677TIP3    H241523   2.954   2.417  16.674 -0.3443  1.2714 -0.6484
 6678TIP3   OH241524   2.931   5.983   1.191 -0.3588 -0.2133  1.3270
 6678TIP3    H141525   2.862   6.039   1.229  0.4330  1.3131  0.6158
 6678TIP3    H241526   2.883   5.909   1.154 -1.3929 -0.3717  2.8863
 6679TIP3   OH241527   0.886   0.587  14.249  0.5612  0.0232 -0.5656
 6679TIP3    H141528   0.832   0.666  14.255 -0.1610 -0.4092 -1.1716
 6679TIP3    H241529   0.976   0.619  14.248  0.2571  0.9046 -1.6152
 6680TIP3   OH241530   4.160   5.280   0.021 -0.4711  0.6289 -0.2460
 6680TIP3    H141531   4.253   5.281  -0.001 -0.7392  1.1637 -1.4144
 6680TIP3    H241532   4.122   5.350  -0.030 -1.6563 -0.0844 -0.3872
 6681TIP3   OH241533   4.848   1.194   5.153  0.1089  0.5197 -0.3434
 6681TIP3    H141534   4.757   1.223   5.160  0.3234  0.9984  0.7489
 6681TIP3    H241535   4.860   1.135   5.228  0.7653  0.6731 -0.3161
 6682TIP3   OH241536   3.183   2.658  14.276  0.3681  0.2473  0.2591
 6682TIP3    H141537   3.207   2.733  14.222 -0.9244  1.3436  1.1432
 6682TIP3    H241538   3.097   2.632  14.244  0.7523 -0.8169  0.0388
 6683TIP3   OH241539   5.359   5.182  11.958  0.6999 -0.7821 -0.6072
 6683TIP3    H141540   5.265   5.190  11.938  0.7165 -0.2598 -0.5102
 6683TIP3    H241541   5.380   5.265  12.001  2.0777  0.8223 -4.0029
 6684TIP3   OH241542   4.871   2.436  14.693  0.2701  0.4019 -0.7014
 6684TIP3    H141543   4.946   2.461  14.639  0.3288 -0.2329 -0.9220
 6684TIP3    H241544   4.899   2.454  14.782  0.1270  1.5730 -0.8846
 6685TIP3   OH241545   6.096   2.984   5.437 -0.4350 -0.4054 -0.0133
 6685TIP3    H141546   6.123   3.005   5.347  1.6619 -0.2251  0.5856
 6685TIP3    H241547   6.103   3.068   5.483 -0.4761 -0.7071  0.5407
 6686TIP3   OH241548   5.435   4.694  13.561 -0.0687 -0.5631  0.1068
 6686TIP3    H141549   5.426   4.779  13.604  1.9986 -0.0655 -0.3103
 6686TIP3    H241550   5.346   4.670  13.535 -0.6583  1.6829 -0.1482
 6687TIP3   OH241551   2.430   6.480  12.025 -0.2609 -0.2114 -0.6292
 6687TIP3    H141552   2.368   6.407  12.023 -1.1361  0.5255 -0.9774
 6687TIP3    H241553   2.461   6.489  11.935 -0.2251 -0.0860 -0.6043
 6688TIP3   OH241554   4.574   4.742  15.464  0.6737 -0.2542 -0.2074
 6688TIP3    H141555   4.548   4.680  15.532 -0.0206  0.6029  0.3339
 6688TIP3    H241556   4.508   4.731  15.396  0.4249  0.0380 -0.0147
 6689TIP3   OH241557   6.404   3.567   1.723  0.0567 -0.3878  0.2697
 6689TIP3    H141558   6.402   3.641   1.784  0.2719 -0.7220  0.6825
 6689TIP3    H241559   6.458   3.501   1.767  1.2418 -0.1693 -0.8188
 6690TIP3   OH241560   4.068   2.576   1.601  0.2691 -0.2335 -0.3052
 6690TIP3    H141561   4.022   2.615   1.676  0.1188  0.6237 -0.8307
 6690TIP3    H241562   4.014   2.501   1.576  1.3447 -1.7580  1.6618
 6691TIP3   OH241563   6.062   4.908   4.888  0.3032 -0.1668  0.2013
 6691TIP3    H141564   5.992   4.895   4.825  0.3053  0.6154  0.0371
 6691TIP3    H241565   6.020   4.950   4.963  1.0276  2.7550 -0.9188
 6692TIP3   OH241566   5.026   4.719   1.735 -0.4230 -0.5163 -0.4121
 6692TIP3    H141567   5.006   4.719   1.642 -1.2899 -1.3070 -0.2446
 6692TIP3    H241568   5.111   4.675   1.742  0.1378  0.4629 -0.9059
 6693TIP3   OH241569   4.434   6.082  15.447  0.6514 -0.9808 -0.2954
 6693TIP3    H141570   4.379   6.069  15.370  2.0211 -0.2207 -1.4572
 6693TIP3    H241571   4.372   6.100  15.518 -0.6164  1.9609 -1.9399
 6694TIP3   OH241572   4.782   4.925   4.831  0.3424  0.8949 -0.4978
 6694TIP3    H141573   4.874   4.900   4.838 -0.3935 -2.0575 -0.1299
 6694TIP3    H241574   4.762   4.968   4.914  1.3958  1.7142 -0.6501
 6695TIP3   OH241575   2.577   4.924   4.284 -0.0986  0.1432 -0.1512
 6695TIP3    H141576   2.540   4.985   4.348  1.0856  0.6940  0.0247
 6695TIP3    H241577   2.559   4.966   4.199 -0.7753 -0.0982 -0.1342
 6696TIP3   OH241578   4.247   0.604   4.389  0.5139 -0.3685  0.0430
 6696TIP3    H141579   4.259   0.629   4.481 -2.4383  0.0142  0.4114
 6696TIP3    H241580   4.214   0.514   4.393 -1.3687  0.2497 -0.4518
 6697TIP3   OH241581   6.807   6.118   1.233  0.0059  0.3666  0.6662
 6697TIP3    H141582   6.816   6.046   1.171  2.9752 -1.0332  2.4737
 6697TIP3    H241583   6.834   6.196   1.184 -2.3788  0.2048 -1.0519
 6698TIP3   OH241584   3.440   0.708  11.530  0.2042 -0.5405  0.5288
 6698TIP3    H141585   3.535   0.717  11.521  0.1419 -0.9505 -0.6669
 6698TIP3    H241586   3.428   0.620  11.564  0.3070  0.0896  2.3187
 6699TIP3   OH241587   3.369   0.980   1.301 -0.0625 -0.1416 -0.1094
 6699TIP3    H141588   3.301   0.978   1.368 -0.6568 -0.8443 -0.7047
 6699TIP3    H241589   3.401   0.889   1.297  1.1696  0.2447  0.4062
 6700TIP3   OH241590   1.585   1.366  11.941 -0.3764  0.0935 -0.4639
 6700TIP3    H141591   1.560   1.340  11.853 -0.8235  0.9620 -0.6063
 6700TIP3    H241592   1.538   1.448  11.957  0.4938  0.4910  0.1864
 6701TIP3   OH241593   6.141   5.521  14.972 -0.3673  0.1500  0.1468
 6701TIP3    H141594   6.088   5.551  14.898 -1.8689 -2.6844 -0.0481
 6701TIP3    H241595   6.232   5.532  14.944 -0.8832  1.2182 -1.1835
 6702TIP3   OH241596   4.438   2.022  13.024  0.5551 -0.3016  0.1080
 6702TIP3    H141597   4.481   2.106  13.011  1.6996 -0.8739  0.0600
 6702TIP3    H241598   4.437   2.010  13.119  0.5198 -0.3116  0.1067
 6703TIP3   OH241599   6.034   5.391  16.108 -0.2393 -0.1245  0.2377
 6703TIP3    H141600   6.068   5.454  16.045  1.1045 -3.4893 -2.7166
 6703TIP3    H241601   5.954   5.358  16.068  0.5327 -2.1990  0.2894
 6704TIP3   OH241602   3.253   1.826   4.209 -0.8561  0.5173  0.3211
 6704TIP3    H141603   3.304   1.839   4.129 -1.7798  1.3385 -0.1468
 6704TIP3    H241604   3.293   1.749   4.250  1.2584  1.5947  0.3922
 6705TIP3   OH241605   3.032   6.554  16.930  0.1556  0.0014  0.2889
 6705TIP3    H141606   3.026   6.565  17.025 -1.1374  0.2717  0.1882
 6705TIP3    H241607   3.037   6.643  16.895 -0.0842 -0.0733  0.0617
 6706TIP3   OH241608   2.321   2.564  11.882  0.2206 -0.0605  0.0523
 6706TIP3    H141609   2.340   2.547  11.789 -0.3282  1.8958 -0.4630
 6706TIP3    H241610   2.368   2.495  11.929  0.7827 -0.9034 -1.6607
 6707TIP3   OH241611   3.883   4.368   0.248  0.2223 -0.1438  0.5463
 6707TIP3    H141612   3.896   4.412   0.332 -0.7185  0.5059  0.3618
 6707TIP3    H241613   3.945   4.411   0.189 -0.0505  0.3116  0.5887
 6708TIP3   OH241614   4.561   2.407  13.695 -0.0015 -0.4980  0.2754
 6708TIP3    H141615   4.544   2.384  13.786 -0.4873  0.1786  0.3629
 6708TIP3    H241616   4.482   2.380  13.648 -0.1861  0.1177  0.2273
 6709TIP3   OH241617   3.774   1.215  14.142  1.0983 -0.3019 -0.8249
 6709TIP3    H141618   3.855   1.194  14.189  0.4997 -4.3883 -1.3344
 6709TIP3    H241619   3.754   1.137  14.090 -3.4862  0.2097 -0.2679
 6710TIP3   OH241620   4.433   3.518  11.955  0.1744 -0.2240 -0.1335
 6710TIP3    H141621   4.521   3.530  11.918  0.3676  0.3270  0.4824
 6710TIP3    H241622   4.405   3.607  11.978  0.1703 -0.5685  1.2735
 6711TIP3   OH241623   4.314   2.625  12.627  0.7370 -0.2167 -0.3188
 6711TIP3    H141624   4.396   2.666  12.600  0.9362 -1.2252 -1.3299
 6711TIP3    H241625   4.329   2.600  12.718  0.2444  2.7953  0.6758
 6712TIP3   OH241626   3.378   0.488  13.600  0.2349  0.0712 -0.7455
 6712TIP3    H141627   3.322   0.487  13.678 -1.9727 -0.0314 -2.2245
 6712TIP3    H241628   3.404   0.397  13.588 -2.3285 -0.6164 -1.9709
 6713TIP3   OH241629   3.077   1.076   4.560  0.2741  0.6159  0.2276
 6713TIP3    H141630   3.126   1.130   4.498  1.7989  1.1528  1.8169
 6713TIP3    H241631   2.985   1.101   4.547  0.7145  1.7774 -0.7755
 6714TIP3   OH241632   5.106   5.011  14.178  0.0778  0.2702 -0.1377
 6714TIP3    H141633   5.190   4.969  14.160  0.8358  1.6532 -0.0532
 6714TIP3    H241634   5.075   4.970  14.259  0.7738 -0.1381 -0.0741
 6715TIP3   OH241635   2.047   2.102  12.296  0.2092 -0.2363  0.4342
 6715TIP3    H141636   2.031   2.197  12.290 -1.0691 -0.4877 -0.9130
 6715TIP3    H241637   2.098   2.091  12.376 -0.4867  1.4829  1.1720
 6716TIP3   OH241638   4.223   0.097   5.802 -0.1606 -0.2348  0.2632
 6716TIP3    H141639   4.246   0.044   5.878  0.1739  0.0416  0.3565
 6716TIP3    H241640   4.272   0.058   5.730  1.1796  0.7692  0.5902
 6717TIP3   OH241641   0.531   3.720  14.365 -0.0469 -0.8760  0.7931
 6717TIP3    H141642   0.536   3.800  14.417 -2.6799  0.1840 -0.4346
 6717TIP3    H241643   0.482   3.659  14.420  1.6968 -1.6183  1.6022
 6718TIP3   OH241644   2.590   3.074   6.172 -0.0870 -0.6486  0.4992
 6718TIP3    H141645   2.648   3.003   6.144  0.8396 -0.0252  0.7601
 6718TIP3    H241646   2.638   3.154   6.148 -0.0642 -0.1056  2.2071
 6719TIP3   OH241647   1.453   1.565  12.052 -0.5844 -0.1671 -0.2814
 6719TIP3    H141648   1.508   1.644  12.056 -0.6212  0.0366 -2.6171
 6719TIP3    H241649   1.453   1.532  12.142 -0.5496  2.4634  0.7934
 6720TIP3   OH241650   4.400   4.547  12.830 -0.3880 -0.5227 -0.2040
 6720TIP3    H141651   4.381   4.561  12.922  0.6699 -0.0458 -0.0457
 6720TIP3    H241652   4.345   4.472  12.805 -2.0231  0.4591  0.3354
 6721TIP3   OH241653   0.052   0.169   5.030  0.4066  0.0772  0.3170
 6721TIP3    H141654  -0.019   0.221   5.068 -0.8946 -2.1486  1.1245
 6721TIP3    H241655   0.123   0.177   5.094 -0.0419  0.2546  0.8042
 6722TIP3   OH241656   6.661   1.636  12.979 -0.3536 -0.5212  0.2950
 6722TIP3    H141657   6.579   1.656  12.934  1.0535  2.3688 -1.2092
 6722TIP3    H241658   6.690   1.719  13.015  2.0506 -1.4071  0.5776
 6723TIP3   OH241659   5.199   0.142  11.927  0.0536  0.3593  0.4185
 6723TIP3    H141660   5.279   0.186  11.897  1.1022 -1.5580  0.2045
 6723TIP3    H241661   5.223   0.105  12.012 -0.9696  0.6262  0.8416
 6724TIP3   OH241662   5.924   6.708  11.844 -0.1343  0.2593  0.4415
 6724TIP3    H141663   6.002   6.679  11.891 -0.1747  2.1869  1.8222
 6724TIP3    H241664   5.862   6.733  11.912 -2.2243 -1.7037 -0.6001
 6725TIP3   OH241665   5.096   1.855  16.011 -0.4312 -0.0395 -0.6658
 6725TIP3    H141666   5.066   1.881  16.098 -1.4812 -1.2807 -0.6168
 6725TIP3    H241667   5.191   1.862  16.014 -0.5706  1.9754 -0.1195
 6726TIP3   OH241668   4.332   2.380  15.834  0.8685  0.1418  0.1271
 6726TIP3    H141669   4.297   2.292  15.849 -1.4663  0.5393 -2.2814
 6726TIP3    H241670   4.268   2.438  15.877  1.7558  0.7446  0.6718
 6727TIP3   OH241671   1.746   1.632   3.064  0.0576 -0.1066  0.5371
 6727TIP3    H141672   1.809   1.701   3.044 -0.5571  0.2926 -0.0361
 6727TIP3    H241673   1.800   1.560   3.097  0.9311 -0.1065 -0.8093
 6728TIP3   OH241674   2.896   4.413   6.073  0.3700  0.6596  0.0690
 6728TIP3    H141675   2.957   4.365   6.129  1.3299  2.2485  0.4717
 6728TIP3    H241676   2.827   4.443   6.133 -0.0623  0.0711 -0.1242
 6729TIP3   OH241677   5.646   3.257   2.661  0.2783 -0.0457  0.4629
 6729TIP3    H141678   5.637   3.285   2.752  0.8501 -1.2919  0.9189
 6729TIP3    H241679   5.726   3.300   2.630  0.2921  0.0679  0.6583
 6730TIP3   OH241680   5.788   0.064  12.011 -0.1520 -0.0316  0.1596
 6730TIP3    H141681   5.817   0.083  12.100 -0.1118 -1.2890  0.4262
 6730TIP3    H241682   5.733   0.139  11.987  0.3177  0.6026  1.0129
 6731TIP3   OH241683   1.260   4.972  11.599  0.0141  0.1130 -0.0092
 6731TIP3    H141684   1.227   4.902  11.655 -0.8270 -0.0503 -0.6758
 6731TIP3    H241685   1.331   4.931  11.550 -0.0515 -0.0966  0.0681
 6732TIP3   OH241686   0.192   3.722  15.954  0.5971 -0.1705  0.3800
 6732TIP3    H141687   0.245   3.784  15.904  0.4633 -0.3128  0.0604
 6732TIP3    H241688   0.158   3.773  16.028  1.6452 -0.2243  0.9063
 6733TIP3   OH241689   5.928   6.516   1.109 -0.9231  0.4827  0.0491
 6733TIP3    H141690   5.840   6.498   1.142 -1.4510 -1.2024 -2.0181
 6733TIP3    H241691   5.914   6.543   1.018  0.6903  0.4556 -0.2373
 6734TIP3   OH241692   0.710   2.608  12.603  0.2271  0.6433  0.1250
 6734TIP3    H141693   0.740   2.633  12.516  0.7404  2.2535  0.7116
 6734TIP3    H241694   0.616   2.626  12.602  0.0024 -0.5130 -0.4602
 6735TIP3   OH241695   3.942   4.510   3.278 -0.4257 -0.2779  0.1827
 6735TIP3    H141696   3.907   4.443   3.337  1.8811 -0.0881  1.9333
 6735TIP3    H241697   3.946   4.589   3.332  1.1408  0.0777 -0.4158
 6736TIP3   OH241698   4.303   1.941  11.921  0.1880  0.3785  0.2542
 6736TIP3    H141699   4.226   1.954  11.976  0.1942 -1.5028  0.7896
 6736TIP3    H241700   4.377   1.944  11.981  0.4356  0.9971 -0.0753
 6737TIP3   OH241701   4.391   6.081   4.602  0.1311 -0.3626 -0.3169
 6737TIP3    H141702   4.379   6.046   4.514 -0.7800  0.4458 -0.5378
 6737TIP3    H241703   4.302   6.088   4.637  0.3834  0.5689  0.1675
 6738TIP3   OH241704   5.426   4.509  12.805  0.3254 -0.0453  0.2730
 6738TIP3    H141705   5.388   4.448  12.742 -0.1290  0.0623  0.4460
 6738TIP3    H241706   5.354   4.533  12.863  0.2645  1.4415 -0.3954
 6739TIP3   OH241707   1.780   6.154   3.343  0.0736  0.4099 -0.2880
 6739TIP3    H141708   1.716   6.139   3.412 -0.7170  0.0405 -1.0867
 6739TIP3    H241709   1.852   6.094   3.364  0.1470  0.7789  0.5716
 6740TIP3   OH241710   3.329   2.430  13.684  0.6961 -0.4925 -0.6405
 6740TIP3    H141711   3.353   2.522  13.673 -0.2547 -0.0815  0.4815
 6740TIP3    H241712   3.406   2.389  13.722  0.4319  0.3410  0.8916
 6741TIP3   OH241713   1.704   2.780   2.845 -0.2180  0.2934 -0.0341
 6741TIP3    H141714   1.773   2.762   2.909  0.1018  1.1636 -0.1175
 6741TIP3    H241715   1.683   2.695   2.808  2.0681  0.1641 -1.2647
 6742TIP3   OH241716   5.404   5.444   0.637  0.3819  0.0518 -0.0599
 6742TIP3    H141717   5.414   5.514   0.701  0.1224 -2.3116  2.7443
 6742TIP3    H241718   5.309   5.433   0.628  0.4143 -0.9210  0.6937
 6743TIP3   OH241719   2.766   0.803  14.255  0.0483  0.3650 -0.5778
 6743TIP3    H141720   2.847   0.829  14.210 -1.0961  2.7028 -1.4586
 6743TIP3    H241721   2.770   0.846  14.340 -1.2344  2.5025 -1.5134
 6744TIP3   OH241722   5.196   4.574  11.153  0.7128  0.3361  0.3299
 6744TIP3    H141723   5.119   4.545  11.103  0.1011  0.1503  1.3472
 6744TIP3    H241724   5.270   4.552  11.097  0.1291 -1.1045  0.0627
 6745TIP3   OH241725   4.333   2.118  15.628  0.3515  0.0506 -0.7229
 6745TIP3    H141726   4.324   2.190  15.565  0.7022  0.3389 -0.4484
 6745TIP3    H241727   4.248   2.075  15.626 -0.5487  1.6319  0.4837
 6746TIP3   OH241728   4.835   0.819  12.116 -0.2793  0.2426  0.8189
 6746TIP3    H141729   4.929   0.805  12.108 -0.4901 -1.2437  0.6890
 6746TIP3    H241730   4.798   0.731  12.130 -1.8702  0.4636 -1.4408
 6747TIP3   OH241731   4.418   3.887  15.663 -0.1559  0.3218  0.0785
 6747TIP3    H141732   4.472   3.927  15.595 -0.8824  3.3737  1.1231
 6747TIP3    H241733   4.330   3.883  15.624  0.1341 -1.5521 -0.4585
 6748TIP3   OH241734   2.595   0.140  16.118 -0.2330  0.1459  0.3492
 6748TIP3    H141735   2.614   0.047  16.107 -2.0274 -0.2952  0.6892
 6748TIP3    H241736   2.578   0.149  16.212 -1.3782  0.5506  0.1079
 6749TIP3   OH241737   0.883   5.422  16.353  0.4776 -0.6268  0.0990
 6749TIP3    H141738   0.933   5.343  16.333  1.1516  0.1751 -1.6368
 6749TIP3    H241739   0.794   5.391  16.370  1.1217 -1.9044  1.2902
 6750TIP3   OH241740   3.731   3.637  15.447  0.0595  0.1834  0.3008
 6750TIP3    H141741   3.788   3.714  15.445 -0.2549  0.4457  1.2038
 6750TIP3    H241742   3.650   3.666  15.405  0.5943 -0.2165 -1.0705
 6751TIP3   OH241743   6.570   1.552   3.096 -0.4354  0.3887 -0.0853
 6751TIP3    H141744   6.620   1.501   3.160 -0.0625 -0.9245 -1.3884
 6751TIP3    H241745   6.480   1.523   3.107 -0.2802 -0.2901 -0.5594
 6752TIP3   OH241746   6.439   4.430  16.686  0.6525  0.3072  0.7173
 6752TIP3    H141747   6.424   4.464  16.774  2.0883 -0.5998  1.3647
 6752TIP3    H241748   6.440   4.335  16.697  2.3261  0.2009  0.0352
 6753TIP3   OH241749   1.585   6.658  15.047  0.4912  0.3659 -0.1509
 6753TIP3    H141750   1.653   6.594  15.026  2.3744  1.9196  0.9257
 6753TIP3    H241751   1.597   6.676  15.140 -0.2079  2.0345 -0.3562
 6754TIP3   OH241752   6.093   6.196   4.649 -0.1816 -0.0063  0.6285
 6754TIP3    H141753   6.017   6.238   4.608  0.6167  0.0720 -0.8421
 6754TIP3    H241754   6.086   6.219   4.742 -2.1660 -0.3379  0.6162
 6755TIP3   OH241755   4.674   5.367   0.147  0.0537  0.2757  0.3851
 6755TIP3    H141756   4.620   5.434   0.107 -0.4274 -1.4103 -1.9956
 6755TIP3    H241757   4.741   5.415   0.195 -0.7435  2.4172 -0.5477
 6756TIP3   OH241758   6.194   4.083   4.112  0.2749  0.2739  0.7293
 6756TIP3    H141759   6.273   4.113   4.066  0.2650 -0.5933  0.1249
 6756TIP3    H241760   6.224   4.065   4.201  1.2698 -2.0008  0.0069
 6757TIP3   OH241761   3.569   0.752  10.606 -0.1278  0.0545 -0.0719
 6757TIP3    H141762   3.661   0.769  10.586  0.7834 -2.3259  1.6157
 6757TIP3    H241763   3.521   0.819  10.558  2.3043 -0.1853 -3.1599
 6758TIP3   OH241764   2.163   1.593  16.089  0.2093  0.8243 -0.1129
 6758TIP3    H141765   2.101   1.614  16.020 -1.4389 -0.4115  0.9247
 6758TIP3    H241766   2.117   1.530  16.145  3.0926 -1.7660 -0.3967
 6759TIP3   OH241767   4.374   6.433  13.075 -0.3923 -0.0356  0.0651
 6759TIP3    H141768   4.312   6.407  13.143  1.1080  0.8604  1.8903
 6759TIP3    H241769   4.332   6.507  13.031  0.0674  1.8638  2.5809
 6760TIP3   OH241770   2.508   1.083  13.603  0.7065  0.2249 -0.3528
 6760TIP3    H141771   2.523   1.011  13.665  0.7117  0.2417 -0.3348
 6760TIP3    H241772   2.548   1.159  13.645 -0.3368  0.4981  0.1897
 6761TIP3   OH241773   3.759   5.014  16.210 -0.3031  0.4797  0.3157
 6761TIP3    H141774   3.772   4.999  16.303 -0.5056  0.4415  0.3391
 6761TIP3    H241775   3.694   4.948  16.184  1.0923 -0.7297 -0.2438
 6762TIP3   OH241776   3.103   6.344   4.267 -0.3577 -0.2206  0.3835
 6762TIP3    H141777   3.130   6.364   4.357 -0.9392  1.9723  0.1290
 6762TIP3    H241778   3.009   6.362   4.266 -0.5876 -1.4040 -0.3767
 6763TIP3   OH241779   3.682   3.367   1.642  0.4083 -0.0809 -0.6620
 6763TIP3    H141780   3.744   3.429   1.680  0.2988 -0.3321 -0.0556
 6763TIP3    H241781   3.668   3.398   1.553 -0.0700  1.0936 -0.2018
 6764TIP3   OH241782   6.057   2.523  13.119 -0.2369  0.5446  0.0435
 6764TIP3    H141783   6.058   2.442  13.171 -2.0194  0.4884  0.0539
 6764TIP3    H241784   6.143   2.526  13.078  0.7685 -0.0816  1.9853
 6765TIP3   OH241785   6.564   0.419   5.851 -0.2464 -0.5659 -0.0773
 6765TIP3    H141786   6.631   0.407   5.784 -0.5785 -1.7568 -0.2241
 6765TIP3    H241787   6.482   0.391   5.809 -0.5257 -0.9379  0.6878
 6766TIP3   OH241788   4.724   5.080   0.073  0.1138 -0.2251 -0.4569
 6766TIP3    H141789   4.748   5.125   0.154  1.0084 -1.2461 -0.1282
 6766TIP3    H241790   4.698   4.993   0.101 -0.4663 -0.2980 -1.1909
 6767TIP3   OH241791   2.202   6.668  14.212  0.6203 -0.1342  0.5233
 6767TIP3    H141792   2.272   6.726  14.183  1.2346 -1.3861 -0.6331
 6767TIP3    H241793   2.225   6.646  14.302  1.2319  0.1894  0.4504
 6768TIP3   OH241794   0.787   4.560  11.632  0.1309 -0.0620  0.0875
 6768TIP3    H141795   0.783   4.480  11.684 -2.1119  0.3888  0.7020
 6768TIP3    H241796   0.846   4.618  11.680  0.5261 -0.7787  0.4723
 6769TIP3   OH241797   4.132   3.895   6.793 -0.3175 -0.0502 -0.3401
 6769TIP3    H141798   4.218   3.895   6.833  0.0794  0.5518 -1.1676
 6769TIP3    H241799   4.083   3.963   6.840 -0.5391 -0.7823  0.5115
 6770TIP3   OH241800   6.636   6.408  11.444 -0.2644  0.3569 -0.0324
 6770TIP3    H141801   6.593   6.449  11.368 -1.5731  0.9461  0.9949
 6770TIP3    H241802   6.646   6.317  11.418 -1.8169  0.2715 -0.4823
 6771TIP3   OH241803   4.078   4.089  11.235 -0.4072  0.2114  0.0733
 6771TIP3    H141804   4.091   4.089  11.140  0.9263  1.0612  0.2230
 6771TIP3    H241805   4.166   4.100  11.271 -0.5374 -2.5215  1.4932
 6772TIP3   OH241806   4.688   6.385  13.768 -0.7059  0.0435  0.4683
 6772TIP3    H141807   4.679   6.399  13.674 -1.8219 -1.3547  0.3316
 6772TIP3    H241808   4.599   6.368  13.799 -0.1666 -1.1624  1.4706
 6773TIP3   OH241809   1.979   5.350   4.450 -0.0975  0.0522 -0.1719
 6773TIP3    H141810   1.950   5.376   4.362 -0.5124 -0.4118 -0.1754
 6773TIP3    H241811   1.944   5.262   4.462 -0.5364  0.3268  0.6882
 6774TIP3   OH241812   1.224   1.507   6.631 -0.3468  0.0020  0.2384
 6774TIP3    H141813   1.193   1.459   6.554  1.0006 -0.1025 -0.2742
 6774TIP3    H241814   1.233   1.598   6.601  1.6701 -0.3003 -0.2484
 6775TIP3   OH241815   1.632   4.871  16.040 -0.0063 -0.1281 -0.3015
 6775TIP3    H141816   1.608   4.811  16.111 -0.4290  1.2100  0.7394
 6775TIP3    H241817   1.687   4.937  16.083 -0.7594  1.0432 -1.0873
 6776TIP3   OH241818   3.821   1.659  10.891 -0.4327  0.1243  0.0675
 6776TIP3    H141819   3.792   1.687  10.804  2.5079 -0.3371 -1.1698
 6776TIP3    H241820   3.838   1.741  10.938  1.8442  0.4985 -1.2749
 6777TIP3   OH241821   1.801   1.287  16.300  0.4092 -0.8896 -0.3191
 6777TIP3    H141822   1.744   1.216  16.270  0.0179 -1.7991  2.2917
 6777TIP3    H241823   1.742   1.363  16.309  0.6366 -0.4405 -2.1680
 6778TIP3   OH241824   2.189   2.612   5.850 -0.0970  0.2153 -0.2428
 6778TIP3    H141825   2.147   2.594   5.935 -2.7400  2.2995 -0.9290
 6778TIP3    H241826   2.227   2.700   5.861  2.7374 -0.9194 -0.2220
 6779TIP3   OH241827   5.990   3.077  12.829  0.0787  0.0411 -0.2710
 6779TIP3    H141828   5.973   3.115  12.742 -1.8219  0.1736  0.1363
 6779TIP3    H241829   5.950   3.139  12.890 -1.5824 -1.7383  0.5104
 6780TIP3   OH241830   2.673   3.060   1.257  0.0251  0.1272  1.1344
 6780TIP3    H141831   2.581   3.088   1.256  0.1491  0.5602  0.1306
 6780TIP3    H241832   2.672   2.974   1.215  0.2219  0.7092 -0.1242
 6781TIP3   OH241833   0.866   4.015   5.201 -0.1969 -0.0220  0.6757
 6781TIP3    H141834   0.788   4.067   5.222 -1.2027 -1.9241  1.9399
 6781TIP3    H241835   0.860   4.000   5.107 -0.4900  1.1487  0.4867
 6782TIP3   OH241836   3.222   5.583  11.954 -0.2782 -0.0148 -0.0049
 6782TIP3    H141837   3.129   5.564  11.969 -0.1507  0.2709  1.2655
 6782TIP3    H241838   3.235   5.567  11.860 -1.6920  0.2966 -0.2775
 6783TIP3   OH241839   1.112   5.419  13.013  0.0721 -0.1209  0.4446
 6783TIP3    H141840   1.179   5.442  12.949  0.5621  3.5099  2.0030
 6783TIP3    H241841   1.029   5.438  12.969  0.3173  0.5344  0.2566
 6784TIP3   OH241842   2.006   3.828  12.853 -0.4692 -0.0678  0.5891
 6784TIP3    H141843   1.998   3.828  12.948  1.2402 -0.9871  0.7723
 6784TIP3    H241844   2.100   3.825  12.837 -0.7498 -1.5153 -1.1037
 6785TIP3   OH241845   5.124   2.781  15.229  0.2505  0.4137 -0.2685
 6785TIP3    H141846   5.049   2.802  15.284  1.6968 -0.9593  2.4349
 6785TIP3    H241847   5.101   2.815  15.142 -3.4977 -0.0962  0.3707
 6786TIP3   OH241848   1.198   2.566  14.431 -0.0157  0.3061  0.3084
 6786TIP3    H141849   1.129   2.604  14.485  0.0474  0.3427  0.3630
 6786TIP3    H241850   1.211   2.478  14.466  0.2979  0.4689  0.6019
 6787TIP3   OH241851   1.966   0.692   2.904 -0.1309  0.1568  0.6104
 6787TIP3    H141852   1.956   0.622   2.839 -1.0634  0.1726  0.7307
 6787TIP3    H241853   1.881   0.735   2.906  0.8685  2.3612 -0.6527
 6788TIP3   OH241854   0.822   0.189  11.232 -0.1121  0.0315  0.1534
 6788TIP3    H141855   0.882   0.119  11.259 -0.0125 -0.2779 -0.8610
 6788TIP3    H241856   0.736   0.160  11.262 -0.5435 -1.8802 -2.6064
 6789TIP3   OH241857   5.063   5.793  15.956  0.3819 -0.9444 -0.1490
 6789TIP3    H141858   4.969   5.805  15.943  0.5508 -0.2666 -0.8387
 6789TIP3    H241859   5.084   5.716  15.903  0.4409 -0.2853 -1.1172
 6790TIP3   OH241860   4.262   6.239   3.659  0.3356  0.2016  0.1280
 6790TIP3    H141861   4.333   6.200   3.709  0.2878 -0.9845 -0.6967
 6790TIP3    H241862   4.266   6.196   3.574  1.9205  3.8038 -1.8170
 6791TIP3   OH241863   1.658   2.248  16.355 -0.0730  0.5405 -0.5625
 6791TIP3    H141864   1.735   2.242  16.300  0.0700  0.0535 -0.3179
 6791TIP3    H241865   1.692   2.263  16.443 -0.1968 -0.6622 -0.2900
 6792TIP3   OH241866   2.968   0.281  13.468 -0.1983 -0.4360  0.0324
 6792TIP3    H141867   2.878   0.292  13.435  0.0026 -2.5519 -1.4444
 6792TIP3    H241868   3.017   0.352  13.428 -0.8253 -0.4869 -0.8583
 6793TIP3   OH241869   1.728   5.763  14.116 -0.2306 -0.2407 -0.1062
 6793TIP3    H141870   1.784   5.840  14.117 -1.2573  0.5194  0.4465
 6793TIP3    H241871   1.640   5.797  14.100 -0.6345 -1.3529 -0.4040
 6794TIP3   OH241872   3.807   5.303   1.718  0.3303  0.3137  0.3953
 6794TIP3    H141873   3.882   5.295   1.777  0.5316 -0.9385  0.0124
 6794TIP3    H241874   3.738   5.251   1.760  0.1794  0.1780 -0.0084
 6795TIP3   OH241875   5.710   4.257  12.734 -0.2153 -0.5786 -0.5493
 6795TIP3    H141876   5.674   4.168  12.734 -2.6818  0.3657  0.0173
 6795TIP3    H241877   5.666   4.301  12.662 -0.9038  0.8728  0.7114
 6796TIP3   OH241878   3.787   6.386   4.259 -0.2250 -0.0707  0.3230
 6796TIP3    H141879   3.816   6.295   4.257 -2.4143 -0.8615  0.9127
 6796TIP3    H241880   3.815   6.422   4.175  2.2077 -0.7333  0.7890
 6797TIP3   OH241881   4.697   4.292   1.229 -0.0080  0.1212 -0.0480
 6797TIP3    H141882   4.685   4.385   1.209 -1.3679 -0.3080 -1.4202
 6797TIP3    H241883   4.778   4.269   1.185 -0.9362  0.1280 -1.8831
 6798TIP3   OH241884   2.865   1.924   3.178 -0.3546  0.6882  0.2150
 6798TIP3    H141885   2.904   1.852   3.228 -0.3629  0.4891 -0.0591
 6798TIP3    H241886   2.802   1.964   3.238 -0.9085 -0.0222  0.1243
 6799TIP3   OH241887   0.092   0.716   1.859 -0.6191  0.0192  0.0295
 6799TIP3    H141888   0.123   0.692   1.947 -2.4911 -0.4033  0.6226
 6799TIP3    H241889   0.164   0.766   1.821  0.9252 -1.2883  1.1268
 6800TIP3   OH241890   3.700   4.824   2.504 -0.3195 -0.0736 -0.3725
 6800TIP3    H141891   3.715   4.785   2.418  0.9062 -1.6923  0.5080
 6800TIP3    H241892   3.605   4.826   2.513 -0.4524 -1.3566 -1.1591
 6801TIP3   OH241893   4.019   5.882  12.731  0.2915  0.0267  0.0631
 6801TIP3    H141894   3.981   5.901  12.645  0.2131 -0.4773 -0.0151
 6801TIP3    H241895   3.949   5.903  12.793 -0.3729 -1.5402 -0.1198
 6802TIP3   OH241896   4.414   0.764   1.441  0.1244  0.2226 -0.7919
 6802TIP3    H141897   4.446   0.784   1.354 -0.0195  0.8505 -0.7068
 6802TIP3    H241898   4.319   0.776   1.435  0.2629  2.0548 -0.1189
 6803TIP3   OH241899   0.610   2.483  14.944 -0.2787 -0.0113 -0.3837
 6803TIP3    H141900   0.538   2.422  14.961 -0.0067 -0.4167 -0.6739
 6803TIP3    H241901   0.689   2.432  14.961 -0.0478  0.2159 -0.7838
 6804TIP3   OH241902   3.108   6.064  15.333 -0.6780 -0.4241  0.8138
 6804TIP3    H141903   3.190   6.092  15.374  0.0147  0.0850 -0.8336
 6804TIP3    H241904   3.113   5.969  15.330 -0.2409 -0.4040  0.9081
 6805TIP3   OH241905   0.882   2.378  14.881 -0.0039 -0.7052 -0.1361
 6805TIP3    H141906   0.860   2.291  14.849 -0.3507 -0.4697 -0.5468
 6805TIP3    H241907   0.915   2.425  14.804  2.9727 -1.3500  0.6215
 6806TIP3   OH241908   2.382   3.345  13.826  0.2749 -0.1227  0.3847
 6806TIP3    H141909   2.461   3.291  13.830  0.1588 -0.2843  0.5085
 6806TIP3    H241910   2.406   3.420  13.771  0.4329 -0.3065  0.2016
 6807TIP3   OH241911   5.351   3.963   4.879  0.8020 -0.1161  0.0803
 6807TIP3    H141912   5.359   3.868   4.882 -1.2871 -0.3380  0.4698
 6807TIP3    H241913   5.290   3.984   4.949  0.0952  1.3619 -0.9222
 6808TIP3   OH241914   2.886   0.654   3.799 -0.0091 -0.8188 -0.0774
 6808TIP3    H141915   2.965   0.689   3.841  0.0088 -1.2803  0.2881
 6808TIP3    H241916   2.867   0.574   3.848  0.3802 -1.7162 -1.3583
 6809TIP3   OH241917   5.200   0.500   2.020  0.0656  0.1782  0.3964
 6809TIP3    H141918   5.251   0.450   1.957 -2.2326  0.0348 -1.4746
 6809TIP3    H241919   5.149   0.435   2.068  1.3137  0.3427  2.0536
 6810TIP3   OH241920   5.136   2.772  12.965 -0.6158 -0.0870 -0.4853
 6810TIP3    H141921   5.098   2.855  12.938  2.7111  1.7819  0.0475
 6810TIP3    H241922   5.171   2.734  12.885  1.7666  1.3027 -0.1871
 6811TIP3   OH241923   1.355   3.992   4.317  0.3269  0.2824  0.1861
 6811TIP3    H141924   1.269   3.959   4.342 -0.0795 -0.0810 -1.5853
 6811TIP3    H241925   1.350   4.086   4.332 -0.0561  0.1485  0.9412
 6812TIP3   OH241926   0.048   6.753  11.795  0.4705  0.4463 -0.2246
 6812TIP3    H141927   0.138   6.780  11.778  0.0563  3.2455  1.5076
 6812TIP3    H241928  -0.006   6.822  11.757 -0.7940  0.6171  1.7191
 6813TIP3   OH241929   0.390   3.539  11.814 -0.0005  0.1043  0.2543
 6813TIP3    H141930   0.387   3.448  11.784 -0.8227 -0.1643  1.1058
 6813TIP3    H241931   0.307   3.576  11.787 -0.0894  0.3086  0.7990
 6814TIP3   OH241932   2.613   6.067  14.319  0.0376  0.1127 -0.6940
 6814TIP3    H141933   2.616   6.085  14.412  3.7917  0.8337 -0.7959
 6814TIP3    H241934   2.585   5.975  14.313  1.5143 -0.5415  1.3195
 6815TIP3   OH241935   3.292   3.458  16.767 -0.3492 -0.0376  0.5054
 6815TIP3    H141936   3.277   3.387  16.830 -0.5300 -0.8529 -0.4432
 6815TIP3    H241937   3.216   3.515  16.778  0.1496  0.4165  1.7837
 6816TIP3   OH241938   4.120   3.342  13.484  0.3431  0.6633  0.2911
 6816TIP3    H141939   4.166   3.370  13.564  0.7315  0.3799  0.1686
 6816TIP3    H241940   4.100   3.250  13.500 -0.1306  0.7716  0.3189
 6817TIP3   OH241941   5.372   1.946   0.921 -0.0983 -0.0391  0.0948
 6817TIP3    H141942   5.407   1.884   0.857  0.7308  0.0824  0.4244
 6817TIP3    H241943   5.297   1.900   0.959 -0.5280 -0.1667 -0.8606
 6818TIP3   OH241944   5.256   2.494  14.849  0.0645 -0.0363  0.1037
 6818TIP3    H141945   5.322   2.535  14.793 -1.0589  0.0964 -1.1769
 6818TIP3    H241946   5.257   2.402  14.823 -0.1566 -0.0556  0.1598
 6819TIP3   OH241947   5.243   4.611  12.977 -0.0123  0.0604 -0.0255
 6819TIP3    H141948   5.281   4.697  12.999  3.2427 -0.7709 -1.7010
 6819TIP3    H241949   5.165   4.632  12.925  0.3943  2.0198  0.0638
 6820TIP3   OH241950   4.276   5.065  15.944 -0.1522 -0.1107 -0.1264
 6820TIP3    H141951   4.367   5.040  15.929 -0.1901 -0.7570  0.6299
 6820TIP3    H241952   4.226   4.988  15.919 -0.4445  0.0167  0.0605
 6821TIP3   OH241953   4.531   1.023   3.231 -0.2741  0.1750  0.6767
 6821TIP3    H141954   4.564   0.937   3.207  3.9383  1.7747 -0.2657
 6821TIP3    H241955   4.493   1.057   3.150  0.4135  0.1107  0.3167
 6822TIP3   OH241956   3.123   3.651  16.114  0.2673 -0.3667 -0.2937
 6822TIP3    H141957   3.167   3.581  16.067  0.6096 -1.0293  0.9559
 6822TIP3    H241958   3.031   3.643  16.090  0.7032  0.7790 -2.6164
 6823TIP3   OH241959   3.549   0.958  16.983 -0.6186 -0.2314 -0.8209
 6823TIP3    H141960   3.513   0.872  16.961 -1.8129  0.5123 -1.9401
 6823TIP3    H241961   3.490   1.020  16.940  0.5925  1.1314 -0.5892
 6824TIP3   OH241962   2.176   3.346  14.815  0.3445 -0.2414  0.2914
 6824TIP3    H141963   2.125   3.413  14.770  0.3225 -1.4683 -1.6281
 6824TIP3    H241964   2.150   3.353  14.907  0.0207  2.0404  0.0715
 6825TIP3   OH241965   1.665   6.472  13.273  0.1365 -0.1259 -0.1272
 6825TIP3    H141966   1.729   6.448  13.207 -0.1206  0.0699 -0.4512
 6825TIP3    H241967   1.621   6.389  13.296  1.1430 -0.4278  0.7971
 6826TIP3   OH241968   0.415   4.494  16.826 -0.1809  0.5183 -0.2272
 6826TIP3    H141969   0.506   4.463  16.825 -0.6946 -1.6599  3.4172
 6826TIP3    H241970   0.422   4.585  16.852  0.9712  0.9048 -1.7080
 6827TIP3   OH241971   5.663   1.805  15.390 -0.8666 -0.3615 -0.2604
 6827TIP3    H141972   5.708   1.729  15.428 -1.7399 -1.4589 -1.3476
 6827TIP3    H241973   5.577   1.805  15.433 -0.5435  0.6048  0.4273
 6828TIP3   OH241974   1.500   4.660   1.579 -0.4365  0.5428  0.1991
 6828TIP3    H141975   1.494   4.566   1.564  0.0510  0.2341  1.7360
 6828TIP3    H241976   1.466   4.672   1.668  0.1258  1.7236  0.2761
 6829TIP3   OH241977   3.625   5.011   1.267  0.4933 -0.4885  0.0472
 6829TIP3    H141978   3.684   5.028   1.193 -0.2950  0.7940 -0.3120
 6829TIP3    H241979   3.667   4.939   1.314  0.6365 -1.9152 -2.0869
 6830TIP3   OH241980   4.361   1.751   1.866  0.3077 -0.1097  0.7422
 6830TIP3    H141981   4.407   1.669   1.847  0.9501  0.4479 -0.2098
 6830TIP3    H241982   4.376   1.766   1.960  0.2986 -1.0034  0.8896
 6831TIP3   OH241983   3.561   1.290   3.819  0.5444 -0.2055  0.3860
 6831TIP3    H141984   3.521   1.302   3.733  2.8158 -0.9749 -0.8599
 6831TIP3    H241985   3.628   1.223   3.805  2.0245  0.7630  2.4026
 6832TIP3   OH241986   0.027   6.638  10.586 -0.3439  0.3960 -0.1675
 6832TIP3    H141987   0.118   6.610  10.600 -0.1240  1.3215  0.3245
 6832TIP3    H241988   0.015   6.711  10.647 -1.9160 -0.7245  0.9286
 6833TIP3   OH241989   2.129   2.764   4.000  0.6247  0.3502  0.2131
 6833TIP3    H141990   2.182   2.842   3.981  0.0474  0.5878 -0.4944
 6833TIP3    H241991   2.156   2.700   3.934 -1.1003  1.0370 -1.2303
 6834TIP3   OH241992   3.009   4.335  12.012  0.1196 -0.2203 -0.8087
 6834TIP3    H141993   2.948   4.394  11.968  0.0617  0.1557 -0.2383
 6834TIP3    H241994   3.074   4.393  12.052  1.5363 -0.6603 -2.3865
 6835TIP3   OH241995   3.902   1.430  13.631  0.4564 -0.6342  1.0634
 6835TIP3    H141996   3.835   1.375  13.590 -0.5618  0.6901  0.8874
 6835TIP3    H241997   3.983   1.407  13.585  0.0039 -1.7567  0.7904
 6836TIP3   OH241998   0.339   2.519   1.796 -0.2129 -0.0603 -0.2336
 6836TIP3    H141999   0.351   2.602   1.842 -0.0944 -0.6270  0.7611
 6836TIP3    H242000   0.388   2.455   1.847 -1.0115 -0.9111 -0.5100
 6837TIP3   OH242001   1.659   1.586   2.596 -0.0458 -0.3758 -0.4539
 6837TIP3    H142002   1.575   1.546   2.571 -0.5256 -0.5794  1.3467
 6837TIP3    H242003   1.642   1.625   2.681  1.5140  0.2491 -0.4027
 6838TIP3   OH242004   5.053   2.648  15.916  0.2708  0.6072 -0.4896
 6838TIP3    H142005   4.972   2.602  15.934  2.0747 -2.3088  0.8647
 6838TIP3    H242006   5.104   2.588  15.861  2.0978  1.6537 -0.0493
 6839TIP3   OH242007   0.569   1.377   1.102 -0.0449  0.5223  0.3175
 6839TIP3    H142008   0.595   1.288   1.077 -0.4965  0.0251  1.5224
 6839TIP3    H242009   0.491   1.395   1.050  0.0539  0.2232  0.0631
 6840TIP3   OH242010   1.967   2.727   4.670  0.2445 -0.0344 -0.3144
 6840TIP3    H142011   2.026   2.769   4.607  0.5784 -1.1981 -0.7984
 6840TIP3    H242012   2.023   2.705   4.744  0.3691 -0.8445 -0.6373
 6841TIP3   OH242013   1.616   4.180   4.528  0.2511 -0.7312  0.1103
 6841TIP3    H142014   1.673   4.241   4.481 -1.5315  0.7183 -0.2855
 6841TIP3    H242015   1.629   4.202   4.620 -1.1540  1.1102 -0.0541
 6842TIP3   OH242016   4.362   3.493   1.127 -0.1220  0.0503  0.0302
 6842TIP3    H142017   4.272   3.460   1.120 -0.6439  1.6556 -1.9392
 6842TIP3    H242018   4.417   3.421   1.098 -0.8384 -0.6276  0.3184
 6843TIP3   OH242019   2.197   5.498   3.734 -0.2502 -0.2099  0.5706
 6843TIP3    H142020   2.164   5.565   3.674  0.5953  0.0412  0.3690
 6843TIP3    H242021   2.193   5.539   3.820 -0.0304 -0.0108  0.4879
 6844TIP3   OH242022   5.608   1.093   4.867 -0.0330  0.0812  0.3585
 6844TIP3    H142023   5.654   1.163   4.821 -1.9577  0.5574 -0.9982
 6844TIP3    H242024   5.635   1.013   4.821 -0.0894  0.2880 -0.0445
 6845TIP3   OH242025   1.913   2.901  16.132 -0.3014  0.1405  0.5785
 6845TIP3    H142026   1.946   2.976  16.183 -0.5039  0.7570 -0.1822
 6845TIP3    H242027   1.990   2.870  16.084 -0.3802  0.3327  0.3254
 6846TIP3   OH242028   5.291   6.004  11.886 -0.0132 -0.0873  0.0140
 6846TIP3    H142029   5.327   5.918  11.865 -0.3693 -0.3696  0.5283
 6846TIP3    H242030   5.324   6.023  11.973 -0.6084 -0.0828  0.2463
 6847TIP3   OH242031   0.903   2.291  15.408 -0.3280 -0.0880 -0.0305
 6847TIP3    H142032   0.965   2.272  15.338 -0.2211 -1.2613  0.3557
 6847TIP3    H242033   0.817   2.285  15.367 -0.2375 -0.0561 -0.2211
 6848TIP3   OH242034   0.434   0.783  15.653  0.0923 -0.2092  0.0880
 6848TIP3    H142035   0.354   0.753  15.609 -0.0837 -0.3414  0.5024
 6848TIP3    H242036   0.505   0.739  15.606 -0.1211 -0.6758  0.2000
 6849TIP3   OH242037   5.199   3.827   1.868 -0.1229  0.3183  0.0942
 6849TIP3    H142038   5.145   3.788   1.937 -0.9941 -0.2172 -0.8651
 6849TIP3    H242039   5.212   3.918   1.896  0.4133 -0.1411  1.4578
 6850TIP3   OH242040   6.004   3.049   0.216 -0.0855 -0.4985 -0.1743
 6850TIP3    H142041   5.988   2.958   0.192 -0.8103 -0.5348  0.4342
 6850TIP3    H242042   6.050   3.086   0.141 -0.3926 -1.1828 -0.7016
 6851TIP3   OH242043   4.195   0.528  11.816  0.3234 -0.1289 -0.7045
 6851TIP3    H142044   4.147   0.561  11.740 -0.2944  1.5773  0.3808
 6851TIP3    H242045   4.140   0.548  11.891  1.0853 -1.4606  0.2694
 6852TIP3   OH242046   3.578   6.081  12.788  0.4913  0.3275 -0.5640
 6852TIP3    H142047   3.609   5.993  12.809  3.1807  1.1792 -0.5338
 6852TIP3    H242048   3.497   6.067  12.740  0.5043 -2.1219 -0.0156
 6853TIP3   OH242049   1.270   5.713  10.918  0.6502  0.4321 -0.0292
 6853TIP3    H142050   1.338   5.778  10.940 -0.6833  2.1272 -0.6731
 6853TIP3    H242051   1.212   5.712  10.993  0.3645  0.3882 -0.2498
 6854TIP3   OH242052   0.871   5.304   4.974 -0.4223  0.1698  0.4719
 6854TIP3    H142053   0.868   5.258   4.890 -0.1786 -0.9798  1.0723
 6854TIP3    H242054   0.943   5.262   5.021 -0.7507  0.5980  1.3751
 6855TIP3   OH242055   0.663   3.983   1.697 -0.1934 -0.3610 -0.3457
 6855TIP3    H142056   0.684   4.076   1.692 -0.7561 -0.2889 -2.5753
 6855TIP3    H242057   0.637   3.968   1.788 -1.8225  2.0456 -0.3442
 6856TIP3   OH242058   0.521   3.544   6.520 -0.1035  0.5496 -0.0148
 6856TIP3    H142059   0.583   3.574   6.586 -0.4335 -1.4057  1.2818
 6856TIP3    H242060   0.543   3.452   6.506 -1.9909  0.1028 -0.3410
 6857TIP3   OH242061   2.964   4.306   1.362  0.6102 -0.6666 -0.2912
 6857TIP3    H142062   2.940   4.223   1.403 -0.3262 -1.3451 -2.0867
 6857TIP3    H242063   3.025   4.281   1.293  2.0954  0.4306  0.5601
 6858TIP3   OH242064   2.318   5.987   1.142 -0.2783  0.1222  0.3673
 6858TIP3    H142065   2.350   5.904   1.177  1.2615  1.2541  1.7981
 6858TIP3    H242066   2.354   5.992   1.054  0.2864 -0.3873  0.5627
 6859TIP3   OH242067   2.268   1.556   3.427 -0.3922 -0.3425 -0.2192
 6859TIP3    H142068   2.180   1.518   3.433 -1.7632  2.5525  0.3517
 6859TIP3    H242069   2.256   1.636   3.375  2.5724 -1.3831 -2.7931
 6860TIP3   OH242070   6.156   1.396  15.998 -0.3728  0.2860 -0.2679
 6860TIP3    H142071   6.220   1.407  16.068 -1.4774  1.3132  0.6343
 6860TIP3    H242072   6.077   1.365  16.043 -0.5232 -1.0363 -1.3586
 6861TIP3   OH242073   2.290   4.089   4.705  0.3599 -0.0332 -0.0018
 6861TIP3    H142074   2.211   4.128   4.666  0.7013 -0.0636 -0.7379
 6861TIP3    H242075   2.310   4.146   4.779 -1.7150 -1.3536  1.6985
 6862TIP3   OH242076   0.932   0.190  15.255  0.0656  0.2401  0.3594
 6862TIP3    H142077   0.964   0.115  15.305  0.4012  0.2129  0.1008
 6862TIP3    H242078   1.009   0.245  15.241 -0.5995  1.9688  2.8183
 6863TIP3   OH242079   5.079   1.305  11.804 -0.2784  0.3380  0.4924
 6863TIP3    H142080   5.174   1.322  11.805  0.0562 -0.7042 -2.4119
 6863TIP3    H242081   5.072   1.211  11.820 -0.4356 -0.2710 -2.4833
 6864TIP3   OH242082   4.257   3.626  15.413  0.4828  0.2032 -0.9794
 6864TIP3    H142083   4.256   3.589  15.325  0.9236  1.7538 -1.6728
 6864TIP3    H242084   4.319   3.699  15.407  1.8344 -0.7011  1.0566
 6865TIP3   OH242085   2.364   4.740  13.991  0.0208 -0.5752  0.4635
 6865TIP3    H142086   2.403   4.748  13.904 -0.8659 -1.0176  0.0095
 6865TIP3    H242087   2.305   4.815  13.999 -0.6037 -1.0401  0.2977
 6866TIP3   OH242088   6.691   0.784   3.246 -0.6508 -0.2061 -0.5379
 6866TIP3    H142089   6.676   0.739   3.163 -0.0076 -0.7158 -0.3855
 6866TIP3    H242090   6.705   0.714   3.309 -0.3909  0.1940 -0.1455
 6867TIP3   OH242091   1.704   4.999  15.691  0.0031  0.0040  0.0526
 6867TIP3    H142092   1.668   4.915  15.664  1.3145 -1.0586  1.4521
 6867TIP3    H242093   1.646   5.029  15.760 -0.5806  0.3775 -0.5834
 6868TIP3   OH242094   5.582   1.554  16.608 -0.2051  0.0932 -0.8281
 6868TIP3    H142095   5.642   1.523  16.540 -0.0610 -1.2326 -0.1139
 6868TIP3    H242096   5.540   1.475  16.642 -0.6247  0.7792  0.3132
 6869TIP3   OH242097   0.627   0.534  15.208 -0.1753  0.1249 -0.3244
 6869TIP3    H142098   0.665   0.466  15.264 -0.8141  0.4066  0.4688
 6869TIP3    H242099   0.702   0.582  15.174  0.3131 -1.1713 -1.1686
 6870TIP3   OH242100   5.385   0.511   4.723 -0.1790 -0.1448  0.2057
 6870TIP3    H142101   5.305   0.469   4.755 -0.2769 -0.2708 -0.2007
 6870TIP3    H242102   5.440   0.519   4.800  0.9046 -3.3427 -0.1173
 6871TIP3   OH242103   4.978   0.118  14.576 -0.6075 -0.5363  0.7537
 6871TIP3    H142104   4.973   0.033  14.533 -2.1222  0.2830 -0.8354
 6871TIP3    H242105   4.889   0.135  14.608 -0.5627  0.7937  0.2649
 6872TIP3   OH242106   1.263   1.961  10.980  0.1507  0.0185 -0.0119
 6872TIP3    H142107   1.210   2.032  10.944  0.1074  0.2259  0.4456
 6872TIP3    H242108   1.331   1.945  10.914 -0.5971 -0.3844 -0.6906
 6873TIP3   OH242109   4.827   6.571   2.549 -1.2320 -0.6398  0.0303
 6873TIP3    H142110   4.827   6.476   2.542  0.5782 -0.6658 -0.1148
 6873TIP3    H242111   4.889   6.590   2.620 -1.4056  0.4425 -0.0883
 6874TIP3   OH242112   4.419   0.437  16.339  0.0940 -0.2251 -0.7595
 6874TIP3    H142113   4.354   0.398  16.399 -0.1105 -0.6277 -1.2333
 6874TIP3    H242114   4.389   0.410  16.252 -1.0501  2.4276 -1.2729
 6875TIP3   OH242115   2.536   3.737  16.489 -0.0117  0.8212  0.5364
 6875TIP3    H142116   2.450   3.728  16.447  0.0550  1.7678  0.1602
 6875TIP3    H242117   2.520   3.714  16.581 -0.5059  0.2919  0.3273
 6876TIP3   OH242118   2.917   4.120  13.285 -0.2792  0.2312 -0.2100
 6876TIP3    H142119   2.877   4.199  13.249  0.0045  0.6355  0.3466
 6876TIP3    H242120   2.878   4.111  13.371  0.0231  0.0213 -0.0928
 6877TIP3   OH242121   3.174   6.072   1.980  0.2294 -0.2874 -0.0066
 6877TIP3    H142122   3.232   6.014   1.931  1.2348  1.4228 -0.9127
 6877TIP3    H242123   3.156   6.025   2.062 -0.7353 -2.7978 -1.5537
 6878TIP3   OH242124   6.025   6.373   3.975  0.6426 -0.0818 -0.4668
 6878TIP3    H142125   6.021   6.461   3.935  1.8316  0.4622  0.5537
 6878TIP3    H242126   5.962   6.322   3.924  0.8303  1.0281 -1.9043
 6879TIP3   OH242127   0.923   3.425  16.662 -0.2665  0.2477 -0.2389
 6879TIP3    H142128   0.902   3.370  16.739  0.2807  0.1181 -0.1780
 6879TIP3    H242129   1.017   3.439  16.668 -0.1718  0.0106 -1.0375
 6880TIP3   OH242130   0.712   4.627  14.823  0.4688  0.3509 -0.2684
 6880TIP3    H142131   0.777   4.557  14.820  1.1997  1.0310 -1.0249
 6880TIP3    H242132   0.760   4.705  14.794 -0.2801  1.2012  0.7064
 6881TIP3   OH242133   0.703   2.688   2.373 -0.2764 -0.5615 -0.6944
 6881TIP3    H142134   0.785   2.661   2.412 -0.0169 -0.3803 -1.1099
 6881TIP3    H242135   0.636   2.641   2.422  0.0090  0.0276  0.2973
 6882TIP3   OH242136   2.997   0.200  17.033  0.0440 -0.0826  0.3555
 6882TIP3    H142137   2.974   0.139  17.103  0.2346 -0.0812  0.4192
 6882TIP3    H242138   2.994   0.147  16.953  2.0867 -0.6685  0.6105
 6883TIP3   OH242139   4.444   6.511  14.343  0.2126 -0.1255 -0.2596
 6883TIP3    H142140   4.362   6.506  14.391  0.5697  1.3934  0.5805
 6883TIP3    H242141   4.509   6.536  14.409  0.9162  0.9842 -1.3295
 6884TIP3   OH242142   6.383   1.207   2.227 -0.0745 -0.1363  0.2595
 6884TIP3    H142143   6.420   1.204   2.139  1.6421  0.2246  0.9338
 6884TIP3    H242144   6.293   1.176   2.217 -0.1306  0.5661 -1.7254
 6885TIP3   OH242145   1.747   4.479  16.981 -0.6449 -0.0794 -0.2502
 6885TIP3    H142146   1.737   4.572  16.961  0.0269 -0.1689 -1.0153
 6885TIP3    H242147   1.670   4.459  17.035  0.0914  1.3232  1.4152
 6886TIP3   OH242148   5.504   5.580  15.492  0.1091  0.0784 -0.3602
 6886TIP3    H142149   5.598   5.578  15.471  0.4571  1.0681  0.9583
 6886TIP3    H242150   5.493   5.513  15.560 -0.1435 -0.0329 -0.5094
 6887TIP3   OH242151   5.582   5.583  17.101  0.0363 -0.7141 -0.3389
 6887TIP3    H142152   5.661   5.530  17.109  0.8542  0.0887 -2.3166
 6887TIP3    H242153   5.613   5.673  17.105 -0.9234 -0.3929 -0.0304
 6888TIP3   OH242154   1.908   0.915  15.868  0.2163  0.0754 -0.4345
 6888TIP3    H142155   1.922   0.832  15.823  2.6307 -0.7470  1.5572
 6888TIP3    H242156   1.993   0.958  15.866 -0.3035  1.2533  0.9016
 6889TIP3   OH242157   2.118   0.555  12.187  0.3145  0.1158 -0.3987
 6889TIP3    H142158   2.213   0.565  12.182  0.2625  1.7479  0.8905
 6889TIP3    H242159   2.098   0.561  12.281 -1.1190  0.6247 -0.7066
 6890TIP3   OH242160   6.787   0.248   0.072 -0.7166 -0.1252  0.2173
 6890TIP3    H142161   6.786   0.268  -0.021 -2.1808  0.2290  0.2795
 6890TIP3    H242162   6.769   0.154   0.077  0.0960 -0.2919  0.1299
 6891TIP3   OH242163   4.618   4.238  16.987  0.5502  0.1262 -0.2065
 6891TIP3    H142164   4.638   4.327  16.957 -0.9928  1.3787  2.1766
 6891TIP3    H242165   4.528   4.244  17.020  0.0561 -2.5852 -0.8429
 6892TIP3   OH242166   6.813   3.684  16.767 -0.2103 -0.9080 -0.1058
 6892TIP3    H142167   6.854   3.728  16.693 -0.5652 -0.6193 -0.1322
 6892TIP3    H242168   6.801   3.594  16.738  1.0618 -1.1900  0.1567
 6893TIP3   OH242169   3.883   3.062  10.459  0.1200 -0.0053  0.0983
 6893TIP3    H142170   3.946   3.107  10.402 -0.2379 -0.7432 -0.8949
 6893TIP3    H242171   3.812   3.126  10.470  0.1823  0.1340 -0.2938
 6894TIP3   OH242172   4.740   0.621   6.114  0.5257 -0.2305 -0.2137
 6894TIP3    H142173   4.645   0.609   6.119  0.4015  1.0134  0.9583
 6894TIP3    H242174   4.768   0.559   6.047 -0.8064 -2.2480  1.0114
 6895TIP3   OH242175   1.832   5.837   3.961  0.0302 -0.1671 -0.3359
 6895TIP3    H142176   1.869   5.753   3.934  0.1631 -0.2773  0.1771
 6895TIP3    H242177   1.759   5.851   3.901 -1.2353 -1.5903  0.7939
 6896TIP3   OH242178   3.668   3.154   5.047  0.1873 -0.4675  0.2427
 6896TIP3    H142179   3.704   3.088   4.989 -0.3747 -1.1740  0.6766
 6896TIP3    H242180   3.743   3.205   5.077  0.6505 -1.0493  0.0721
 6897TIP3   OH242181   1.379   0.856   6.795 -0.2660  0.0925 -0.1381
 6897TIP3    H142182   1.374   0.945   6.828 -1.0861  0.8698 -2.1716
 6897TIP3    H242183   1.340   0.802   6.864  0.4300  1.2576  1.1998
 6898TIP3   OH242184   1.006   0.949   0.278 -0.2424 -0.8167 -0.1217
 6898TIP3    H142185   1.015   0.878   0.341 -0.8046  0.1978  1.1402
 6898TIP3    H242186   0.947   1.011   0.320  1.8901  1.4425 -0.2248
 6899TIP3   OH242187   3.492   1.004   3.273  0.0938  0.1450  0.6935
 6899TIP3    H142188   3.423   1.055   3.230  0.1958  0.5029  0.9525
 6899TIP3    H242189   3.444   0.936   3.321 -0.0956  0.5201  1.0437
 6900TIP3   OH242190   6.105   3.054  15.032 -0.3850  0.2225 -0.1663
 6900TIP3    H142191   6.057   2.975  15.006 -1.5003  1.2403 -1.3383
 6900TIP3    H242192   6.196   3.036  15.006 -0.6321 -0.6583 -0.4697
 6901TIP3   OH242193   0.392   3.052   3.167  0.0817  0.2317  0.4646
 6901TIP3    H142194   0.360   3.065   3.257 -0.6309  1.5055  0.0614
 6901TIP3    H242195   0.402   2.958   3.158 -0.5591  0.0308  1.6482
 6902TIP3   OH242196   5.665   0.050   1.009  0.5266 -0.5113  0.3104
 6902TIP3    H142197   5.676  -0.029   0.956 -1.4562 -1.2097  0.8234
 6902TIP3    H242198   5.667   0.019   1.100 -1.0985 -0.1479  0.5082
 6903TIP3   OH242199   1.739   1.495  15.521 -0.0768  0.0244  0.1803
 6903TIP3    H142200   1.693   1.477  15.603 -1.0678 -1.2642 -0.6150
 6903TIP3    H242201   1.750   1.409  15.480 -1.8972  0.7982 -2.2233
 6904TIP3   OH242202   2.732   4.434  17.227  0.2271  0.5170  0.0237
 6904TIP3    H142203   2.800   4.407  17.289  0.4339  2.9268  0.9524
 6904TIP3    H242204   2.775   4.435  17.142  0.3378 -1.4044  0.0064
 6905TIP3   OH242205   6.662   3.281  15.191 -0.5187 -0.4231 -0.1859
 6905TIP3    H142206   6.621   3.295  15.105  0.7245  0.8778 -0.6070
 6905TIP3    H242207   6.750   3.249  15.170  0.3513  1.3740  0.5091
 6906TIP3   OH242208   2.871   3.429  16.255  0.3893  0.2621 -0.4922
 6906TIP3    H142209   2.790   3.458  16.298  0.4132 -0.1781 -0.1414
 6906TIP3    H242210   2.941   3.470  16.307  0.3944  0.4899 -0.6806
 6907TIP3   OH242211   0.958   0.888  14.316  0.2435  0.3117 -0.2689
 6907TIP3    H142212   0.872   0.892  14.276  1.1310  0.5944 -2.2381
 6907TIP3    H242213   1.012   0.840  14.254  1.5748  0.3101  0.8305
 6908TIP3   OH242214   3.938   6.483   0.969 -0.0339 -0.1293 -0.6666
 6908TIP3    H142215   3.916   6.414   1.032  3.4954 -0.7255  0.0986
 6908TIP3    H242216   3.956   6.436   0.888 -0.0716  0.1801 -0.8567
 6909TIP3   OH242217   0.977   1.533   3.607  0.2052 -0.0051 -0.1170
 6909TIP3    H142218   0.974   1.510   3.700 -0.3818 -1.9512 -0.5757
 6909TIP3    H242219   0.909   1.599   3.596  0.2824  0.2447  0.8345
 6910TIP3   OH242220   3.275   5.970   1.377 -0.0429 -0.0541  0.3296
 6910TIP3    H142221   3.334   5.997   1.307  0.3152  0.6016  0.8809
 6910TIP3    H242222   3.202   6.032   1.373 -0.6835 -0.8180 -0.3054
 6911TIP3   OH242223   6.506   0.863   5.698  0.0269 -0.2622  0.1992
 6911TIP3    H142224   6.496   0.807   5.774  0.4266  0.9578  1.1732
 6911TIP3    H242225   6.574   0.820   5.645  0.5799 -0.5142  1.1002
 6912TIP3   OH242226   1.208   2.084  15.134  0.6356 -0.2668 -0.3433
 6912TIP3    H142227   1.205   2.157  15.196  1.8802 -1.2846  0.9768
 6912TIP3    H242228   1.126   2.037  15.147  0.8262 -0.3884  0.4231
 6913TIP3   OH242229   5.890   2.527   2.578  0.0729  0.5804  0.1170
 6913TIP3    H142230   5.864   2.600   2.635 -0.4937  1.0398 -0.7124
 6913TIP3    H242231   5.938   2.468   2.636 -0.9580  0.7672  1.2047
 6914TIP3   OH242232   0.130   6.183  13.995 -0.0085  0.0969  0.3554
 6914TIP3    H142233   0.122   6.273  13.963  1.1780  0.2127  0.3325
 6914TIP3    H242234   0.224   6.172  14.011 -0.1648 -1.0867  0.5191
 6915TIP3   OH242235   3.891   5.883  14.300 -0.0755 -0.2525 -0.0667
 6915TIP3    H142236   3.821   5.837  14.254  1.9091 -0.0412 -3.6742
 6915TIP3    H242237   3.969   5.831  14.282  1.1275  0.8298  1.7210
 6916TIP3   OH242238   1.094   1.203   0.963  0.1614  0.1497 -0.3156
 6916TIP3    H142239   1.177   1.171   0.927  0.1626 -0.9403  0.5983
 6916TIP3    H242240   1.119   1.247   1.044 -0.2520 -1.4472  0.7259
 6917TIP3   OH242241   4.341   3.760  14.524 -0.2690  0.0496 -0.1079
 6917TIP3    H142242   4.401   3.833  14.541  0.2137 -0.4276  0.2678
 6917TIP3    H242243   4.396   3.694  14.483 -0.8987  0.2434 -1.3271
 6918TIP3   OH242244   0.499   0.711   5.719  0.0976 -0.4594 -0.4766
 6918TIP3    H142245   0.506   0.615   5.711  1.0775 -0.5892  1.2825
 6918TIP3    H242246   0.578   0.744   5.676  0.3525 -0.5298 -0.0713
 6919TIP3   OH242247   0.290   3.270  11.692 -0.0843  0.2375  0.1836
 6919TIP3    H142248   0.300   3.232  11.779 -0.3406  2.6239  1.3377
 6919TIP3    H242249   0.204   3.241  11.662  0.4643 -1.4997  0.2075
 6920TIP3   OH242250   4.491   6.109   0.239  0.0294 -0.1967  0.2078
 6920TIP3    H142251   4.584   6.113   0.259  0.2517  0.0511 -0.8039
 6920TIP3    H242252   4.480   6.024   0.196  0.1661  0.5365 -1.3581
 6921TIP3   OH242253   0.813   5.506  14.636 -0.0863 -0.4940  0.2994
 6921TIP3    H142254   0.895   5.552  14.618  0.9146 -2.0774  0.5306
 6921TIP3    H242255   0.754   5.534  14.566  1.0388 -0.1964 -0.5715
 6922TIP3   OH242256   1.550   3.241  16.491 -0.6924 -0.0134  0.1117
 6922TIP3    H142257   1.625   3.279  16.445 -1.0106  2.1763  1.2649
 6922TIP3    H242258   1.478   3.245  16.428 -0.1056 -1.3022 -0.6935
 6923TIP3   OH242259   1.996   0.008   3.068 -0.7251  0.0925 -0.2779
 6923TIP3    H142260   2.044  -0.049   3.008 -1.9552  0.7835 -2.0382
 6923TIP3    H242261   1.917  -0.042   3.090  0.2486 -0.6313  1.7758
 6924TIP3   OH242262   4.979   6.216   5.048 -0.3233  0.4672  0.4210
 6924TIP3    H142263   5.037   6.200   5.123  0.5951 -1.0321 -0.5569
 6924TIP3    H242264   4.983   6.135   4.997 -1.4678  1.2067 -0.9041
 6925TIP3   OH242265   0.132   6.734   4.308  0.3522  0.3120  0.1328
 6925TIP3    H142266   0.166   6.679   4.237  1.9110  0.0811  1.0339
 6925TIP3    H242267   0.038   6.713   4.311  0.6762 -1.3684 -0.3677
 6926TIP3   OH242268   4.951   0.922   3.251 -0.0632  0.2645 -0.5744
 6926TIP3    H142269   4.966   0.978   3.327  1.0687 -1.7987  0.7987
 6926TIP3    H242270   5.024   0.942   3.192  0.5390 -0.0154  0.0675
 6927TIP3   OH242271   4.561   3.680  12.736 -0.2669 -0.5392 -0.4958
 6927TIP3    H142272   4.573   3.647  12.825  1.0449  0.3349 -0.3075
 6927TIP3    H242273   4.527   3.606  12.686 -1.2485 -0.9742  0.7746
 6928TIP3   OH242274   1.395   1.291   3.825 -0.2711 -0.9436  0.0040
 6928TIP3    H142275   1.467   1.339   3.782 -1.0988 -0.3559 -0.7624
 6928TIP3    H242276   1.358   1.355   3.886 -1.0861 -0.7354 -0.6904
 6929TIP3   OH242277   2.864   2.470   2.079  0.1822 -0.9697  0.5910
 6929TIP3    H142278   2.936   2.428   2.126 -0.3826 -0.2143  2.1915
 6929TIP3    H242279   2.906   2.540   2.028  0.7248 -1.3564  0.5018
 6930TIP3   OH242280   0.881   5.071  11.858 -0.2304 -0.1386 -0.5997
 6930TIP3    H142281   0.884   5.165  11.841 -3.3329  0.2911  0.6371
 6930TIP3    H242282   0.865   5.031  11.773  0.0219  0.5321 -0.9673
 6931TIP3   OH242283   2.558   3.959   3.880  0.1854 -0.4600 -0.3850
 6931TIP3    H142284   2.613   3.923   3.811  1.0467  0.3446 -0.1299
 6931TIP3    H242285   2.574   3.904   3.956  0.7262 -0.1631 -0.2818
 6932TIP3   OH242286   6.720   2.746   1.475 -0.5763  0.1456  0.5523
 6932TIP3    H142287   6.795   2.706   1.431  0.7660  0.9453  2.0193
 6932TIP3    H242288   6.655   2.676   1.479  0.7861 -1.1559  0.9022
 6933TIP3   OH242289   0.403   3.187   5.773  0.0566 -0.1864  0.0872
 6933TIP3    H142290   0.405   3.146   5.859 -1.5537 -2.3725 -0.8236
 6933TIP3    H242291   0.350   3.266   5.785 -1.4566 -1.2763  0.8366
 6934TIP3   OH242292   4.297   3.952   6.575  0.6639 -0.1409  0.1653
 6934TIP3    H142293   4.226   3.920   6.630  0.4679  1.9286  1.2144
 6934TIP3    H242294   4.358   3.994   6.636  0.7004  1.7758 -1.0808
 6935TIP3   OH242295   0.774   4.500   0.163 -0.1815 -0.1285  0.4306
 6935TIP3    H142296   0.688   4.540   0.155  0.2279  0.9268  1.0077
 6935TIP3    H242297   0.797   4.509   0.256  0.1273 -1.3080  0.4803
 6936TIP3   OH242298   5.429   3.651  13.086  0.9192 -0.4305  0.3271
 6936TIP3    H142299   5.405   3.570  13.040  0.0280  0.1869 -0.3437
 6936TIP3    H242300   5.399   3.638  13.175  0.3914 -0.6830  0.1189
 6937TIP3   OH242301   1.064   6.381   5.744 -0.5159 -0.0140 -0.2035
 6937TIP3    H142302   1.069   6.423   5.658 -0.4034  1.0356  0.3075
 6937TIP3    H242303   1.006   6.306   5.730 -0.7569  0.3244 -1.1186
 6938TIP3   OH242304   0.557   5.494   0.877  0.2154 -0.1218  0.0319
 6938TIP3    H142305   0.592   5.487   0.788  1.4331  0.3859  0.4508
 6938TIP3    H242306   0.568   5.586   0.900  1.2458 -0.5136  1.2146
 6939TIP3   OH242307   4.552   4.092  15.897  0.1827 -0.4863 -0.0540
 6939TIP3    H142308   4.559   4.102  15.992  1.3965  0.0452 -0.1754
 6939TIP3    H242309   4.572   4.000  15.881  0.3943 -0.4824  0.1791
 6940TIP3   OH242310   1.768   4.703   1.498  0.0410 -0.2561  0.1829
 6940TIP3    H142311   1.679   4.714   1.531 -0.3250 -1.2692 -0.4132
 6940TIP3    H242312   1.784   4.783   1.447 -0.8781 -0.4510 -0.4442
 6941TIP3   OH242313   3.737   4.079   6.354  0.7185  0.0126 -0.4599
 6941TIP3    H142314   3.723   3.991   6.321 -1.7828  1.1765 -2.8690
 6941TIP3    H242315   3.811   4.113   6.302  0.8210 -0.2119 -0.4597
 6942TIP3   OH242316   2.548   0.495   0.421 -0.5803 -0.0633 -0.0013
 6942TIP3    H142317   2.502   0.423   0.378 -1.3905 -0.5237  1.5882
 6942TIP3    H242318   2.481   0.541   0.471  0.4984 -0.2545  1.7157
 6943TIP3   OH242319   1.481   6.131   2.317 -0.0731 -0.0150  0.3738
 6943TIP3    H142320   1.480   6.169   2.405 -3.0894 -1.5825  1.1756
 6943TIP3    H242321   1.434   6.195   2.263 -0.1195 -0.0181  0.4102
 6944TIP3   OH242322   3.986   4.561  17.256  0.4395  0.0399  0.7873
 6944TIP3    H142323   4.078   4.587  17.264  0.5514 -0.3344  0.7481
 6944TIP3    H242324   3.977   4.534  17.164 -0.5186  3.1455 -0.1706
 6945TIP3   OH242325   0.380   4.232   3.949 -0.2393  0.0106 -0.1174
 6945TIP3    H142326   0.392   4.233   3.854 -0.1621  0.1740 -0.1047
 6945TIP3    H242327   0.301   4.284   3.964  0.5660  1.2289  0.0299
 6946TIP3   OH242328   6.552   1.099   5.943 -0.5436  0.6226 -0.0135
 6946TIP3    H142329   6.645   1.122   5.939 -0.9542  2.2685 -1.4312
 6946TIP3    H242330   6.546   1.016   5.896  0.0733  1.0428 -0.8625
 6947TIP3   OH242331   5.606   6.702  10.482 -0.1446 -0.6914  0.4411
 6947TIP3    H142332   5.678   6.646  10.452 -0.6713 -0.9441 -0.3996
 6947TIP3    H242333   5.564   6.652  10.551  0.8554 -0.2712  1.3848
 6948TIP3   OH242334   3.935   6.171   4.141 -0.3633  0.0730 -0.5576
 6948TIP3    H142335   4.010   6.212   4.183  0.0575  1.0683 -2.1995
 6948TIP3    H242336   3.969   6.134   4.060 -1.2465 -1.3729 -0.3264
 6949TIP3   OH242337   2.481   3.223  16.654 -0.2581 -0.0224 -0.3741
 6949TIP3    H142338   2.411   3.179  16.702 -1.8534 -1.2361 -3.5039
 6949TIP3    H242339   2.562   3.190  16.694 -1.4513 -1.4506  0.9844
 6950TIP3   OH242340   0.686   2.525   4.593 -0.7734  0.0164  0.0217
 6950TIP3    H142341   0.780   2.531   4.613 -0.8638  1.0740  0.2137
 6950TIP3    H242342   0.682   2.506   4.499 -0.3684 -0.1593  0.0379
 6951TIP3   OH242343   3.446   3.894  12.602  0.6075 -0.4073 -0.0316
 6951TIP3    H142344   3.372   3.844  12.568  0.3841 -0.0219 -0.1129
 6951TIP3    H242345   3.445   3.877  12.697  0.9075 -1.0483 -0.1401
 6952TIP3   OH242346   0.465   2.081  14.477  0.0533 -0.5515  0.2765
 6952TIP3    H142347   0.517   2.140  14.532  2.8512 -2.2725 -0.2950
 6952TIP3    H242348   0.505   2.090  14.390 -1.8175 -0.6660 -0.6345
 6953TIP3   OH242349   5.355   4.308  14.284  0.5355 -0.5965  0.3568
 6953TIP3    H142350   5.422   4.376  14.282 -0.2413  0.3211  2.2321
 6953TIP3    H242351   5.331   4.301  14.376  1.5181 -4.4420  0.4652
 6954TIP3   OH242352   4.544   5.440   5.988 -0.5316  0.1676  0.6326
 6954TIP3    H142353   4.529   5.372   6.053 -1.6411 -0.8578 -0.6383
 6954TIP3    H242354   4.460   5.484   5.979 -1.2616 -1.4957 -1.9943
 6955TIP3   OH242355   4.299   1.344   5.172  0.5476 -0.0617 -0.5547
 6955TIP3    H142356   4.208   1.375   5.179  0.6771  0.0818  0.6630
 6955TIP3    H242357   4.337   1.397   5.102 -1.0403 -1.9885 -3.0783
 6956TIP3   OH242358   1.183   5.705  11.550  0.5937 -0.5733 -0.2114
 6956TIP3    H142359   1.189   5.640  11.479  1.1026 -0.7401 -0.0178
 6956TIP3    H242360   1.103   5.754  11.530  0.1909 -1.2619 -0.3598
 6957TIP3   OH242361   6.187   5.400  15.529 -0.1731  0.8359  0.1451
 6957TIP3    H142362   6.119   5.433  15.587 -0.1004  0.0871  0.6711
 6957TIP3    H242363   6.192   5.306  15.548  0.7013  0.8023 -0.1922
 6958TIP3   OH242364   4.640   3.379  16.655  0.0371  0.3881 -0.1954
 6958TIP3    H142365   4.714   3.335  16.696  1.2608  0.9688 -1.6873
 6958TIP3    H242366   4.565   3.322  16.672  0.6301  0.1907  2.0520
 6959TIP3   OH242367   2.731   1.976   5.457  0.0152 -0.0243 -0.0271
 6959TIP3    H142368   2.657   1.928   5.418 -0.6304  1.9638 -1.4023
 6959TIP3    H242369   2.737   2.057   5.406  3.7661 -0.4727 -0.5970
 6960TIP3   OH242370   0.579   0.051  13.028  0.0961  0.4199  0.1525
 6960TIP3    H142371   0.542   0.057  13.116  1.1202  0.4919  0.5966
 6960TIP3    H242372   0.627  -0.032  13.028 -2.1469 -0.9715 -1.2579
 6961TIP3   OH242373   5.760   0.776  12.262 -0.0017  0.3367  0.1438
 6961TIP3    H142374   5.694   0.832  12.223  0.6656  1.7960  1.0389
 6961TIP3    H242375   5.841   0.826  12.256  1.0267 -1.3288 -0.7467
 6962TIP3   OH242376   3.644   4.839  14.142 -0.1633  0.1594 -0.0707
 6962TIP3    H142377   3.654   4.875  14.230 -0.4679 -1.3930  0.6301
 6962TIP3    H242378   3.570   4.779  14.150 -2.1204  2.0963 -2.0836
 6963TIP3   OH242379   3.072   2.544  17.106 -0.0994  0.3041 -1.1928
 6963TIP3    H142380   2.987   2.520  17.143 -0.8173  3.2836 -0.7130
 6963TIP3    H242381   3.126   2.466  17.120 -1.3196 -0.0290  3.1186
 6964TIP3   OH242382   1.319   5.618  10.399 -0.2432  0.5918  0.4836
 6964TIP3    H142383   1.394   5.567  10.428 -0.9127 -0.0620  1.1080
 6964TIP3    H242384   1.260   5.620  10.475 -1.0374  0.7441 -0.1177
 6965TIP3   OH242385   0.950   6.008  11.165 -0.0206 -0.1270  0.2470
 6965TIP3    H142386   0.981   6.098  11.156  1.7210 -0.5928  1.1512
 6965TIP3    H242387   0.977   5.965  11.084  0.3319 -0.1549  0.3788
 6966TIP3   OH242388   0.403   1.874  16.208  0.0084  0.1415  0.0716
 6966TIP3    H142389   0.362   1.950  16.168 -0.9090  0.0539  0.8063
 6966TIP3    H242390   0.371   1.874  16.299 -2.2074 -2.5800 -0.5559
 6967TIP3   OH242391   4.074   4.717   4.417  0.3765  1.0014 -0.0150
 6967TIP3    H142392   4.163   4.721   4.453  0.3731 -0.0216  0.1233
 6967TIP3    H242393   4.076   4.644   4.355 -0.7091  0.0895  0.9866
 6968TIP3   OH242394   6.785   1.715  16.480  0.4327 -0.7566  0.3466
 6968TIP3    H142395   6.774   1.623  16.457  0.1863 -0.2642 -1.7420
 6968TIP3    H242396   6.879   1.729  16.484  0.4970 -0.7500 -0.9945
 6969TIP3   OH242397   1.443   2.511   2.324  0.0769 -0.0263 -0.5338
 6969TIP3    H142398   1.431   2.421   2.357 -0.1737  0.1998  0.0117
 6969TIP3    H242399   1.480   2.558   2.399  0.5540  0.2367 -0.9379
 6970TIP3   OH242400   6.122   6.381   2.444 -0.4287  0.3215 -0.3977
 6970TIP3    H142401   6.112   6.444   2.516  0.2856 -1.2445  1.1425
 6970TIP3    H242402   6.035   6.376   2.405 -1.0072  0.7339  0.7706
 6971TIP3   OH242403   1.733   4.296   2.739 -0.0082  0.0674  1.1273
 6971TIP3    H142404   1.667   4.251   2.686  2.2712 -4.3743  1.6175
 6971TIP3    H242405   1.793   4.334   2.675  0.3718 -1.4909  0.5047
 6972TIP3   OH242406   6.800   1.620  14.601  0.1348  0.3419  0.1525
 6972TIP3    H142407   6.763   1.534  14.585 -1.5738  0.7694  1.4101
 6972TIP3    H242408   6.757   1.677  14.537  0.1045  0.5074  0.3176
 6973TIP3   OH242409   5.175   3.794  16.382 -0.7366 -0.1091 -0.6949
 6973TIP3    H142410   5.199   3.759  16.468 -0.3353 -1.1518 -1.2140
 6973TIP3    H242411   5.081   3.779  16.375 -0.8428  0.3367 -0.2887
 6974TIP3   OH242412   1.492   0.392  10.957 -0.1108 -0.4184  0.0694
 6974TIP3    H142413   1.500   0.310  11.005  1.4151 -0.2814  0.1006
 6974TIP3    H242414   1.577   0.434  10.967 -0.7599  1.0408 -0.1904
 6975TIP3   OH242415   5.668   6.507   1.193 -0.0296  0.2870  0.4900
 6975TIP3    H142416   5.648   6.599   1.212 -2.1960 -0.1366  0.4463
 6975TIP3    H242417   5.662   6.463   1.277  2.6336  0.3611  0.8253
 6976TIP3   OH242418   3.476   4.689   6.866  0.4475  0.0254  0.7425
 6976TIP3    H142419   3.389   4.681   6.906 -0.8128  1.0376 -1.6060
 6976TIP3    H242420   3.490   4.783   6.858  0.8207 -0.1383 -0.7866
 6977TIP3   OH242421   0.967   4.645   1.812  0.2487  0.1440 -0.4177
 6977TIP3    H142422   0.980   4.729   1.857 -0.5656  1.8697 -3.1779
 6977TIP3    H242423   1.052   4.601   1.820  1.2630  1.9873 -0.3213
 6978TIP3   OH242424   2.420   0.773   3.479  0.4389 -0.5463  0.3602
 6978TIP3    H142425   2.373   0.775   3.562 -0.0863 -0.6347  0.0701
 6978TIP3    H242426   2.352   0.788   3.413  0.9982  0.5124  0.0009
 6979TIP3   OH242427   4.948   5.039  12.674 -0.4045  0.1077  0.3573
 6979TIP3    H142428   4.911   5.072  12.755  0.0009  0.4051  0.4270
 6979TIP3    H242429   4.891   5.074  12.605 -1.7951 -1.5689  0.5814
 6980TIP3   OH242430   6.522   5.506  14.562  0.4236 -0.2405 -0.4511
 6980TIP3    H142431   6.494   5.547  14.643  1.3000 -0.8061  0.1589
 6980TIP3    H242432   6.488   5.562  14.493 -0.2450  0.3044  0.3101
 6981TIP3   OH242433   3.047   5.345  10.478 -0.8387  0.1103 -0.1162
 6981TIP3    H142434   3.137   5.345  10.510 -1.0171 -0.3844  0.3912
 6981TIP3    H242435   3.024   5.253  10.468 -0.7682  0.2321 -1.7792
 6982TIP3   OH242436   1.333   0.199   1.164  0.2695  0.1409 -0.0627
 6982TIP3    H142437   1.250   0.190   1.116 -0.0817  1.8595  0.1468
 6982TIP3    H242438   1.368   0.110   1.168 -1.7026 -0.6767  0.1067
 6983TIP3   OH242439   4.931   0.861   2.702 -0.1812  0.6512 -0.6332
 6983TIP3    H142440   4.972   0.876   2.787  0.5007 -0.4149 -0.7491
 6983TIP3    H242441   5.001   0.824   2.648 -1.5844 -2.8918 -0.3302
 6984TIP3   OH242442   0.254   0.650  15.011 -0.0113  0.6630 -0.3378
 6984TIP3    H142443   0.328   0.597  15.042 -0.7638 -0.2948 -0.1056
 6984TIP3    H242444   0.218   0.689  15.091  1.0443  2.2364 -0.5983
 6985TIP3   OH242445   1.947   4.322  16.866 -0.8003  1.1353  0.0629
 6985TIP3    H142446   1.897   4.391  16.909 -0.6941  0.9019  0.5668
 6985TIP3    H242447   1.885   4.249  16.858 -1.1060  1.4894 -1.0409
 6986TIP3   OH242448   5.940   2.901   4.545  0.4357  0.2101 -0.3294
 6986TIP3    H142449   5.990   2.976   4.578  1.9959 -0.8592 -0.1843
 6986TIP3    H242450   6.001   2.828   4.549 -0.4290 -0.6831 -2.3365
 6987TIP3   OH242451   1.258   6.653   5.318  0.2425 -0.4196 -0.2500
 6987TIP3    H142452   1.344   6.673   5.355  0.5688 -1.7025 -0.2957
 6987TIP3    H242453   1.264   6.682   5.227  0.0448  1.0322  0.1587
 6988TIP3   OH242454   2.358   3.195   4.617  0.2063  0.5518  0.1190
 6988TIP3    H142455   2.316   3.263   4.564  0.4284  2.5480  2.3222
 6988TIP3    H242456   2.285   3.143   4.652 -0.0264  0.2817 -0.7369
 6989TIP3   OH242457   1.064   4.077   2.265  0.5432  0.4259 -0.2351
 6989TIP3    H142458   1.152   4.075   2.304  0.3133 -1.5202  0.2387
 6989TIP3    H242459   1.040   3.986   2.255 -1.4503  0.9268 -0.3534
 6990TIP3   OH242460   5.976   1.739  17.182 -0.3627  0.4066  0.1401
 6990TIP3    H142461   6.004   1.653  17.151  0.2586  0.6950 -0.1053
 6990TIP3    H242462   6.050   1.797  17.164 -1.6302  1.5139 -1.9448
 6991TIP3   OH242463   0.251   2.883  15.294 -0.0441  0.2753  0.1659
 6991TIP3    H142464   0.227   2.827  15.221 -1.4587  2.9856 -1.5661
 6991TIP3    H242465   0.322   2.938  15.261 -0.5449  1.3936  0.8621
 6992TIP3   OH242466   1.652   6.572   4.133  0.7546  0.2851  0.2888
 6992TIP3    H142467   1.741   6.607   4.135  0.6621  0.4803  1.1877
 6992TIP3    H242468   1.640   6.531   4.218  0.1742 -0.2300 -0.0359
 6993TIP3   OH242469   5.240   5.332   2.864 -0.4605 -0.3906  0.2315
 6993TIP3    H142470   5.228   5.395   2.793  0.5043  0.5559  0.8765
 6993TIP3    H242471   5.335   5.318   2.868 -0.2804  0.9498  2.4335
 6994TIP3   OH242472   3.811   6.480  11.013  0.2001 -0.5183 -0.2399
 6994TIP3    H142473   3.858   6.416  10.959 -0.5690 -1.2050 -0.1153
 6994TIP3    H242474   3.740   6.510  10.958 -0.6957 -1.3511  0.4179
 6995TIP3   OH242475   0.572   5.544  13.727  0.1133 -0.0056 -0.5231
 6995TIP3    H142476   0.570   5.579  13.638 -0.3605  0.2490 -0.4174
 6995TIP3    H242477   0.510   5.471  13.726  1.1744 -0.9179 -0.7684
 6996TIP3   OH242478   2.845   0.743   4.095  0.6626 -0.2429 -0.5432
 6996TIP3    H142479   2.898   0.783   4.164 -1.3578  0.5289  0.6475
 6996TIP3    H242480   2.842   0.650   4.119  0.1456 -0.0135  0.3486
 6997TIP3   OH242481   4.615   5.394  11.343 -0.5080 -0.1231 -0.7206
 6997TIP3    H142482   4.628   5.300  11.355  0.1755  0.1795  1.2159
 6997TIP3    H242483   4.567   5.401  11.260 -3.4294 -2.3824  0.5990
 6998TIP3   OH242484   2.742   2.123  16.180 -0.9302 -0.0727  0.0775
 6998TIP3    H142485   2.712   2.210  16.151  0.1691  0.6887  1.1376
 6998TIP3    H242486   2.717   2.119  16.272  2.7714  0.9750  1.3147
 6999TIP3   OH242487   1.976   2.908   1.078  0.4708 -0.2301  0.4379
 6999TIP3    H142488   1.950   2.991   1.036  2.5986 -1.1351 -3.1059
 6999TIP3    H242489   2.056   2.930   1.126 -0.1681  0.1627  1.3477
 7000TIP3   OH242490   2.767   6.135   1.396 -0.3030 -0.5879 -0.2624
 7000TIP3    H142491   2.768   6.230   1.395  0.6643 -0.5757  0.4347
 7000TIP3    H242492   2.740   6.112   1.485 -0.5280 -0.9709 -0.4247
 7001TIP3   OH242493   4.773   1.316   3.634  0.2663  0.2579  0.5428
 7001TIP3    H142494   4.688   1.346   3.603 -0.0319 -0.2784  0.8270
 7001TIP3    H242495   4.795   1.375   3.705 -0.1682  0.0049  0.8893
 7002TIP3   OH242496   5.547   5.271  15.982 -0.4446 -0.0526 -0.1029
 7002TIP3    H142497   5.554   5.221  15.901 -1.4421  0.0050 -0.2354
 7002TIP3    H242498   5.493   5.217  16.039 -1.1946  0.6915 -0.1043
 7003TIP3   OH242499   4.883   1.549  14.627  0.1308  0.4496 -0.1806
 7003TIP3    H142500   4.879   1.454  14.626  0.5998  0.4164  0.3939
 7003TIP3    H242501   4.793   1.577  14.645  0.3522  0.0525  1.6788
 7004TIP3   OH242502   5.912   0.400  12.958  0.4260  0.2944  0.0764
 7004TIP3    H142503   5.931   0.493  12.945  1.5805  0.0283 -0.1803
 7004TIP3    H242504   5.854   0.377  12.885  1.3445  0.4576 -0.7179
 7005TIP3   OH242505   3.687   6.704  12.491  0.5793  0.0436  0.2835
 7005TIP3    H142506   3.607   6.652  12.477 -1.3588  2.3708  1.8963
 7005TIP3    H242507   3.717   6.725  12.403 -1.5341  0.3961 -0.4198
 7006TIP3   OH242508   5.248   2.564   4.631  0.3568  0.6503 -0.1017
 7006TIP3    H142509   5.323   2.621   4.648  0.8787  0.4825 -1.6384
 7006TIP3    H242510   5.222   2.585   4.541 -1.1945  0.4165  0.2672
 7007TIP3   OH242511   5.970   5.967  17.019 -0.2517  0.2268  0.2148
 7007TIP3    H142512   5.916   6.036  16.981 -0.9598 -1.1377 -1.3621
 7007TIP3    H242513   5.909   5.913  17.069  0.2363  0.4896  1.1291
 7008TIP3   OH242514   1.320   2.471   3.474  0.3192  0.2619 -0.2202
 7008TIP3    H142515   1.294   2.551   3.520  0.9735 -0.5633  1.6704
 7008TIP3    H242516   1.244   2.413   3.483  1.2901 -0.7814  2.0411
 7009TIP3   OH242517   4.157   1.734   1.342 -0.4415  0.0922 -0.5614
 7009TIP3    H142518   4.076   1.753   1.388  0.5228  0.0456  1.2585
 7009TIP3    H242519   4.154   1.640   1.324 -0.5304 -0.0384  0.0936
 7010TIP3   OH242520   4.358   4.045  13.378  0.4499 -0.2193  0.5625
 7010TIP3    H142521   4.313   3.962  13.368 -1.5471  0.8168  0.3791
 7010TIP3    H242522   4.388   4.067  13.290 -2.6548  1.1123 -0.3083
 7011TIP3   OH242523   1.246   0.783  12.863 -0.3552  0.0025 -0.2193
 7011TIP3    H142524   1.161   0.827  12.861 -0.5550 -0.3652  0.0196
 7011TIP3    H242525   1.283   0.799  12.777  1.2906  3.9489  1.0143
 7012TIP3   OH242526   4.733   4.607  16.199  0.0758 -0.2187  0.1579
 7012TIP3    H142527   4.759   4.683  16.251  0.8629  1.4475 -2.4819
 7012TIP3    H242528   4.637   4.611  16.198  0.0701  0.0675  0.9490
 7013TIP3   OH242529   1.559   6.201   3.570  0.5447  0.8711  0.2004
 7013TIP3    H142530   1.507   6.280   3.583  0.7400  0.9513  0.4963
 7013TIP3    H242531   1.636   6.213   3.626  0.8501  0.7229 -0.1801
 7014TIP3   OH242532   5.343   4.875   0.189  0.2445 -0.2406  0.3344
 7014TIP3    H142533   5.417   4.859   0.248  0.1228  1.4348  0.9928
 7014TIP3    H242534   5.383   4.874   0.102  0.7687 -0.8731  0.5702
 7015TIP3   OH242535   6.072   0.488  11.469 -0.2180  0.5650  0.2219
 7015TIP3    H142536   6.091   0.576  11.501  0.1003  0.3148  0.7305
 7015TIP3    H242537   5.994   0.499  11.415 -1.0130  0.9359  1.4022
 7016TIP3   OH242538   2.182   4.619  14.406  0.3785 -0.0563 -0.3240
 7016TIP3    H142539   2.136   4.703  14.402 -0.6626 -0.6363 -1.6495
 7016TIP3    H242540   2.132   4.566  14.468  1.0640  0.3084  0.5494
 7017TIP3   OH242541   1.854   5.375   3.383 -0.2660 -0.2027 -0.0499
 7017TIP3    H142542   1.937   5.342   3.349 -0.1424 -0.9352  0.9027
 7017TIP3    H242543   1.812   5.298   3.422 -0.9923  0.3361  0.2498
 7018TIP3   OH242544   4.204   2.848   2.999 -0.3066  0.2993  0.2501
 7018TIP3    H142545   4.123   2.847   2.947  0.7773  0.2873 -1.5086
 7018TIP3    H242546   4.185   2.791   3.073 -2.4590  1.5804  0.7852
 7019TIP3   OH242547   6.646   4.512  15.424  0.1270 -0.5232 -0.0684
 7019TIP3    H142548   6.556   4.543  15.411 -0.1135 -1.2071 -0.0866
 7019TIP3    H242549   6.689   4.525  15.340 -0.2381 -1.0926 -0.3489
 7020TIP3   OH242550   3.603   3.515   0.178 -0.5980 -0.0821 -0.2109
 7020TIP3    H142551   3.580   3.561   0.097  1.1439  0.3857 -0.4862
 7020TIP3    H242552   3.696   3.492   0.167 -0.7797 -1.5476  0.9392
 7021TIP3   OH242553   2.285   6.643  13.740 -0.9930 -0.5974  0.3765
 7021TIP3    H142554   2.210   6.583  13.740 -0.7681 -0.8895  1.0482
 7021TIP3    H242555   2.320   6.638  13.829 -1.6128  1.3483  0.7939
 7022TIP3   OH242556   3.011   0.925  14.122 -0.1358 -0.6909 -0.2311
 7022TIP3    H142557   3.086   0.870  14.141 -1.6797 -2.1071  2.3373
 7022TIP3    H242558   3.035   1.012  14.155  0.0187 -1.4109  1.6735
 7023TIP3   OH242559   0.119   5.568   4.295  0.2787  0.1799  0.0088
 7023TIP3    H142560   0.057   5.629   4.255  0.1603 -0.3136 -0.5669
 7023TIP3    H242561   0.139   5.607   4.380  0.3399  1.1206 -0.4233
 7024TIP3   OH242562   0.070   3.889  13.954  0.1455  0.6289 -0.3665
 7024TIP3    H142563  -0.024   3.874  13.951  0.2083 -0.4173  1.5478
 7024TIP3    H242564   0.108   3.802  13.963  1.2589  1.1002 -0.3086
 7025TIP3   OH242565   5.952   1.598   3.989 -0.5877 -0.4234 -0.4782
 7025TIP3    H142566   5.960   1.503   4.001 -0.7371 -0.1606  2.1698
 7025TIP3    H242567   5.927   1.632   4.075  1.2906  2.2438 -0.8507
 7026TIP3   OH242568   5.039   4.649  11.487 -0.5686  0.7170  0.2603
 7026TIP3    H142569   5.080   4.572  11.447 -1.5796 -0.2136  0.9474
 7026TIP3    H242570   5.109   4.690  11.537 -0.1612 -0.1230  0.3952
 7027TIP3   OH242571   5.165   4.123   5.703  0.1300  0.1911  0.5389
 7027TIP3    H142572   5.114   4.062   5.756  2.2629 -0.8704  1.5176
 7027TIP3    H242573   5.151   4.094   5.613 -1.8038  0.6317  0.6552
 7028TIP3   OH242574   3.990   2.035  15.918 -0.0811  0.2416  0.3543
 7028TIP3    H142575   3.934   2.109  15.942  0.9967  1.5232 -0.9810
 7028TIP3    H242576   3.962   2.012  15.829  0.5966  0.0029  0.2032
 7029TIP3   OH242577   3.405   1.179  14.401 -0.3739  0.0552 -0.3857
 7029TIP3    H142578   3.484   1.233  14.402 -0.4350  0.2193  2.2115
 7029TIP3    H242579   3.425   1.108  14.341  1.4642  0.5313 -0.3804
 7030TIP3   OH242580   4.123   4.733  15.322 -0.2774  0.6080 -0.7451
 7030TIP3    H142581   4.128   4.676  15.398  0.6261 -1.5449 -2.2874
 7030TIP3    H242582   4.086   4.815  15.354  1.1329  0.2048  2.1978
 7031TIP3   OH242583   1.497   2.770  15.438  0.2530  0.6429  0.1278
 7031TIP3    H142584   1.569   2.768  15.501  1.1210  1.6634 -0.7958
 7031TIP3    H242585   1.538   2.795  15.355 -0.7440 -1.2770 -1.0198
 7032TIP3   OH242586   0.102   6.304  14.866 -0.2339  0.3264  0.0206
 7032TIP3    H142587   0.115   6.339  14.777 -4.1154 -0.6771 -1.1381
 7032TIP3    H242588   0.141   6.216  14.863 -0.0857  0.4075 -0.5746
 7033TIP3   OH242589   2.522   3.348   6.519  0.3311  0.2641  0.1226
 7033TIP3    H142590   2.531   3.414   6.451 -0.0760 -0.2220 -0.4165
 7033TIP3    H242591   2.522   3.397   6.601 -0.6676  1.0058 -0.2992
 7034TIP3   OH242592   4.914   2.757   2.294 -0.6356  0.5612 -0.6053
 7034TIP3    H142593   4.923   2.785   2.385 -1.1861 -1.2552  0.0726
 7034TIP3    H242594   5.001   2.765   2.257  0.1481 -0.7999  0.7950
 7035TIP3   OH242595   0.386   3.061  12.730  0.4659 -0.2776  0.5844
 7035TIP3    H142596   0.479   3.038  12.721  0.6507  0.8642 -0.9030
 7035TIP3    H242597   0.387   3.154  12.756 -0.2677 -0.3102  0.7526
 7036TIP3   OH242598   5.805   4.114   0.039 -0.1555 -0.5179 -0.2246
 7036TIP3    H142599   5.858   4.104  -0.040  0.9210  1.8421  0.1121
 7036TIP3    H242600   5.782   4.025   0.065  0.7430 -1.4072 -2.3362
 7037TIP3   OH242601   1.247   4.419   5.301  0.3817  0.0108 -0.2764
 7037TIP3    H142602   1.337   4.410   5.272  0.2604  1.0721 -1.0671
 7037TIP3    H242603   1.253   4.447   5.393  0.8139 -1.3172  0.1088
 7038TIP3   OH242604   1.785   0.608   6.483 -0.4701  0.1191 -0.1156
 7038TIP3    H142605   1.705   0.654   6.509 -0.7041 -0.7986  0.8653
 7038TIP3    H242606   1.855   0.671   6.501 -0.7592  0.0204  1.4851
 7039TIP3   OH242607   0.606   2.103  11.523 -0.0296 -0.0238  0.0829
 7039TIP3    H142608   0.574   2.116  11.433 -0.3434  1.8294  0.4276
 7039TIP3    H242609   0.699   2.121  11.519 -0.0034 -0.1572  0.0882
 7040TIP3   OH242610   3.430   4.480  13.177 -0.1345 -0.1270  0.1737
 7040TIP3    H142611   3.520   4.513  13.178 -1.0685  2.9118 -2.1405
 7040TIP3    H242612   3.422   4.435  13.092 -0.7236 -0.6311  0.4904
 7041TIP3   OH242613   4.491   5.578  13.466  0.2780  0.3305  0.0611
 7041TIP3    H142614   4.565   5.577  13.406  0.7109  1.3261  0.5499
 7041TIP3    H242615   4.491   5.492  13.507  0.9038  0.1802 -0.2480
 7042TIP3   OH242616   5.112   3.800   2.996  0.7085 -0.0503 -0.4748
 7042TIP3    H142617   5.086   3.874   3.051 -0.4935 -1.2445  0.6383
 7042TIP3    H242618   5.029   3.758   2.971  1.3922 -1.8396  0.1187
 7043TIP3   OH242619   0.547   1.242   3.410  0.4417  1.0190 -0.6590
 7043TIP3    H142620   0.587   1.181   3.349 -0.2013 -1.2300  1.0357
 7043TIP3    H242621   0.458   1.209   3.422  0.6319  1.1583  1.6613
 7044TIP3   OH242622   0.394   4.423   1.093  0.0536 -0.3026 -0.1927
 7044TIP3    H142623   0.482   4.436   1.058 -0.2845 -0.2108 -1.0162
 7044TIP3    H242624   0.379   4.329   1.085  0.3053 -0.4086  0.5122
 7045TIP3   OH242625   4.452   6.709  16.697 -0.1423 -0.1890  0.0563
 7045TIP3    H142626   4.385   6.672  16.639  0.3840 -0.3604 -0.4602
 7045TIP3    H242627   4.425   6.683  16.785 -1.3900  0.7675 -0.0219
 7046TIP3   OH242628   1.061   2.909   3.467  0.7561 -0.0022  0.2437
 7046TIP3    H142629   0.993   2.915   3.534  0.2833 -1.9285 -0.0132
 7046TIP3    H242630   1.045   2.984   3.409 -0.8642 -0.1822  0.4277
 7047TIP3   OH242631   1.536   5.409   4.948 -0.0918  0.1648 -0.0604
 7047TIP3    H142632   1.595   5.473   4.988 -0.7575  1.8628 -1.6409
 7047TIP3    H242633   1.512   5.351   5.020  0.0544  2.0680  1.6324
 7048TIP3   OH242634   2.801   5.117  10.972  0.1181  0.8937  0.0119
 7048TIP3    H142635   2.854   5.161  10.905  2.5277 -0.4820  0.9158
 7048TIP3    H242636   2.744   5.058  10.923 -0.8314  2.5515 -0.9948
 7049TIP3   OH242637   1.333   1.555  15.721  0.3285 -0.6895  0.2993
 7049TIP3    H142638   1.351   1.472  15.677 -1.0269 -0.8583  0.0220
 7049TIP3    H242639   1.241   1.573  15.701  0.1366  0.0391  1.7260
 7050TIP3   OH242640   0.962   2.529  16.693 -0.7373  0.0037  0.4915
 7050TIP3    H142641   0.890   2.466  16.700  0.5520 -1.5223  0.6080
 7050TIP3    H242642   1.017   2.495  16.622  0.8208  0.1085  1.6061
 7051TIP3   OH242643   6.752   6.384   5.321  0.1608 -0.2741 -0.5724
 7051TIP3    H142644   6.756   6.300   5.275  1.2756  0.3458 -1.6705
 7051TIP3    H242645   6.831   6.386   5.374 -0.7871 -0.6903  0.9173
 7052TIP3   OH242646   0.984   6.524  12.918 -0.2078  0.5376 -0.2010
 7052TIP3    H142647   0.998   6.508  13.011  0.2398 -1.5576 -0.5799
 7052TIP3    H242648   0.909   6.470  12.895  0.0493  0.5705 -1.1762
 7053TIP3   OH242649   4.538   3.997   2.907 -0.0473 -0.0540  0.3465
 7053TIP3    H142650   4.527   4.092   2.903 -1.6848 -0.1683  1.2905
 7053TIP3    H242651   4.585   3.982   2.989 -0.2205 -0.0823  0.4411
 7054TIP3   OH242652   4.881   5.326   5.172  0.3172 -0.3134  0.1004
 7054TIP3    H142653   4.894   5.421   5.172  0.1047 -0.2673 -0.8597
 7054TIP3    H242654   4.882   5.301   5.264 -0.8013  0.7975  0.4443
 7055TIP3   OH242655   6.549   1.163  13.523  0.5475 -0.2273  0.3032
 7055TIP3    H142656   6.586   1.175  13.435 -1.1730  1.6637 -0.2448
 7055TIP3    H242657   6.510   1.076  13.521  0.7789 -0.3204 -0.7356
 7056TIP3   OH242658   5.438   2.630  14.683  0.0548  0.9582  0.1533
 7056TIP3    H142659   5.457   2.637  14.590  0.7470 -0.2068  0.1892
 7056TIP3    H242660   5.453   2.718  14.718  1.1067  1.0877 -0.5961
 7057TIP3   OH242661   6.579   3.762  15.181 -0.3605 -0.0402 -0.0601
 7057TIP3    H142662   6.496   3.790  15.219  0.1232 -0.2616  1.2112
 7057TIP3    H242663   6.602   3.682  15.230  1.6242  1.1617  1.1285
 7058TIP3   OH242664   4.815   2.602   2.928 -0.2011 -0.4301 -0.3040
 7058TIP3    H142665   4.791   2.656   2.853 -0.6640 -0.5475 -0.2461
 7058TIP3    H242666   4.758   2.525   2.920  0.9908 -1.2836 -0.8314
 7059TIP3   OH242667   5.040   6.704  14.434 -0.0155  0.2388 -0.1965
 7059TIP3    H142668   5.042   6.648  14.357 -0.3427 -0.3512  0.2177
 7059TIP3    H242669   5.129   6.702  14.468  0.0868  0.3609 -0.4518
 7060TIP3   OH242670   4.191   1.013  16.371 -0.1397 -0.8364 -0.2073
 7060TIP3    H142671   4.147   1.052  16.296 -2.1789 -2.4506  0.0587
 7060TIP3    H242672   4.210   0.923  16.345 -0.2751 -1.2292  0.9539
 7061TIP3   OH242673   3.503   4.440  11.212  0.0933 -0.0543  0.2174
 7061TIP3    H142674   3.517   4.534  11.212 -3.2025  0.5393 -0.5161
 7061TIP3    H242675   3.495   4.417  11.120 -0.6514 -0.7691  0.4503
 7062TIP3   OH242676   6.594   5.719  14.313  0.0886 -0.1382  0.7095
 7062TIP3    H142677   6.499   5.732  14.312 -0.0595 -0.4935 -2.9462
 7062TIP3    H242678   6.607   5.629  14.283  1.6529 -0.8001  3.0064
 7063TIP3   OH242679   0.141   2.025   1.115 -1.1152  0.2784  0.0576
 7063TIP3    H142680   0.058   2.071   1.102 -0.6645  0.7250 -1.4587
 7063TIP3    H242681   0.206   2.080   1.072  0.2833  0.7701  2.5779
 7064TIP3   OH242682   0.804   5.904  12.646  0.4864  0.1533 -0.3822
 7064TIP3    H142683   0.847   5.848  12.710  1.9592  1.9548  0.3057
 7064TIP3    H242684   0.822   5.863  12.562 -1.4462 -2.2363  0.2537
 7065TIP3   OH242685   1.957   6.573   4.156  0.7292  0.7188  0.1722
 7065TIP3    H142686   1.952   6.486   4.194 -4.0858  0.0094 -1.4437
 7065TIP3    H242687   2.005   6.561   4.074  0.1860 -0.4588  0.0052
 7066TIP3   OH242688   3.673   6.761   5.363 -0.0292  0.0273  0.2955
 7066TIP3    H142689   3.579   6.780   5.359  0.2571  1.6820  0.5966
 7066TIP3    H242690   3.678   6.670   5.392 -1.5393  0.3865  1.8660
 7067TIP3   OH242691   0.231   6.343  15.586 -0.5670  0.5550  0.2172
 7067TIP3    H142692   0.205   6.435  15.588 -1.6045  0.2742  1.1387
 7067TIP3    H242693   0.195   6.310  15.504 -0.7603  0.8361  0.1860
 7068TIP3   OH242694   4.378   4.528   0.354  0.1733 -0.2301  0.1496
 7068TIP3    H142695   4.472   4.515   0.350  0.1437 -0.1270 -2.8418
 7068TIP3    H242696   4.341   4.451   0.311 -1.0880  0.1477  0.4871
 7069TIP3   OH242697   2.264   1.462   2.049 -0.1894 -0.4458  0.1352
 7069TIP3    H142698   2.206   1.529   2.084 -0.3020 -1.4749  2.0516
 7069TIP3    H242699   2.205   1.396   2.012 -0.4192 -1.8100  2.6591
 7070TIP3   OH242700   6.545   4.313  17.161 -0.0171  0.4914  0.1171
 7070TIP3    H142701   6.477   4.290  17.225 -0.5173 -0.4431 -0.7308
 7070TIP3    H242702   6.572   4.230  17.123  2.6067  0.6826  1.3665
 7071TIP3   OH242703   4.449   5.225  15.349 -0.2611 -0.5280  0.3323
 7071TIP3    H142704   4.437   5.212  15.443  0.0503 -0.4829  0.3802
 7071TIP3    H242705   4.409   5.147  15.309  1.3997 -1.5871  0.6102
 7072TIP3   OH242706   6.776   2.360  13.754 -0.1399 -0.3091 -0.6945
 7072TIP3    H142707   6.680   2.361  13.758 -0.0961 -0.4302  2.2642
 7072TIP3    H242708   6.797   2.268  13.737 -0.5812 -0.9432  1.7983
 7073TIP3   OH242709   3.038   3.752  11.720  0.3063 -0.2704  0.4888
 7073TIP3    H142710   3.123   3.792  11.703  0.4676 -1.1617 -0.9629
 7073TIP3    H242711   3.006   3.796  11.799  0.8530  2.0964 -0.5298
 7074TIP3   OH242712   0.109   5.636  16.086  0.4464 -0.4732 -0.2559
 7074TIP3    H142713   0.090   5.615  15.995 -1.7888  1.1019 -0.2413
 7074TIP3    H242714   0.163   5.714  16.082 -1.0197  0.5715 -0.2659
 7075TIP3   OH242715   2.298   5.212  16.123 -0.2509 -0.1008 -0.1714
 7075TIP3    H142716   2.345   5.257  16.193  2.1404 -0.1633 -1.6042
 7075TIP3    H242717   2.344   5.238  16.043 -1.3473 -1.9114 -1.4780
 7076TIP3   OH242718   2.637   2.662   3.068 -0.3638 -0.3109 -0.3635
 7076TIP3    H142719   2.615   2.573   3.041  0.0422 -0.9854  1.3972
 7076TIP3    H242720   2.603   2.670   3.157  0.5863  0.9216 -0.0750
 7077TIP3   OH242721   0.659   0.058   4.257 -0.3764 -0.5202  0.0891
 7077TIP3    H142722   0.568   0.050   4.283 -0.7147  3.6709  1.0066
 7077TIP3    H242723   0.656   0.089   4.166 -0.0474  0.9992  0.5553
 7078TIP3   OH242724   0.961   2.003   0.408 -0.1184  0.6519 -0.2554
 7078TIP3    H142725   0.869   2.027   0.417 -0.6233 -0.4265 -1.9819
 7078TIP3    H242726   0.989   2.046   0.328  0.6398  0.2956 -0.1859
 7079TIP3   OH242727   4.742   0.060   4.231  0.4951 -0.5226  0.1954
 7079TIP3    H142728   4.683   0.056   4.155  0.7896 -0.9238 -0.0126
 7079TIP3    H242729   4.723  -0.020   4.280  0.0898 -0.1177  0.7104
 7080TIP3   OH242730   4.661   2.210   0.861  0.2517  0.1603 -0.1215
 7080TIP3    H142731   4.690   2.301   0.850 -1.4561  0.7552  0.0070
 7080TIP3    H242732   4.741   2.163   0.884  1.0668  1.7544  0.5190
 7081TIP3   OH242733   1.797   6.491  11.773 -0.2637  0.4035  0.2421
 7081TIP3    H142734   1.760   6.485  11.685 -0.0154  1.2622  0.0759
 7081TIP3    H242735   1.721   6.504  11.830 -0.4806 -0.6771  0.2326
 7082TIP3   OH242736   2.263   6.116   1.386  0.3222  0.3723 -0.1506
 7082TIP3    H142737   2.274   6.089   1.295  0.0406  0.9590 -0.3686
 7082TIP3    H242738   2.310   6.051   1.437  0.5017  0.0511 -0.7206
 7083TIP3   OH242739   5.567   4.393   5.591 -0.8039 -0.0165  0.2644
 7083TIP3    H142740   5.474   4.406   5.575 -1.1286  0.1877  2.0828
 7083TIP3    H242741   5.570   4.341   5.671  0.6414 -1.5593 -0.7278
 7084TIP3   OH242742   1.407   5.052   1.928 -0.1378 -0.1968  0.2050
 7084TIP3    H142743   1.321   5.091   1.943 -0.3248  0.4343 -2.0086
 7084TIP3    H242744   1.469   5.118   1.959 -0.4504 -0.3289  1.1238
 7085TIP3   OH242745   0.379   3.831  16.134 -0.0124 -0.7003  0.2104
 7085TIP3    H142746   0.308   3.888  16.162  0.0758 -0.8582  0.7538
 7085TIP3    H242747   0.447   3.892  16.103 -0.0771 -0.5278  0.4062
 7086TIP3   OH242748   1.234   1.385  11.225  0.4328  0.5946 -0.4096
 7086TIP3    H142749   1.143   1.376  11.195  1.3339 -0.6333 -3.0474
 7086TIP3    H242750   1.281   1.418  11.149  2.2741  1.0464  0.8573
 7087TIP3   OH242751   2.405   0.840  11.600  0.9816 -0.3011  0.4585
 7087TIP3    H142752   2.363   0.869  11.681 -0.9121  0.4458 -0.7189
 7087TIP3    H242753   2.420   0.747  11.612 -0.6927 -0.5167  1.1004
 7088TIP3   OH242754   4.076   5.693  14.263 -0.3038 -0.3255 -0.0750
 7088TIP3    H142755   4.145   5.653  14.315  1.6574  0.1832 -2.1052
 7088TIP3    H242756   4.023   5.619  14.233 -0.3566 -0.7830  1.1044
 7089TIP3   OH242757   0.781   1.836  12.410 -0.1393  0.2963  0.5025
 7089TIP3    H142758   0.825   1.811  12.491  0.3145  0.0515  0.1864
 7089TIP3    H242759   0.798   1.930  12.401 -1.2544  0.6051  1.3294
 7090TIP3   OH242760   3.037   5.830   3.623 -0.0600  0.6425  0.2657
 7090TIP3    H142761   3.051   5.831   3.529  0.7479  0.9484  0.3773
 7090TIP3    H242762   3.119   5.863   3.660 -0.3378  0.4615  1.0775
 7091TIP3   OH242763   6.407   3.230  13.672  0.3061  0.4210  1.0422
 7091TIP3    H142764   6.376   3.317  13.648  0.3279  0.3776  0.8528
 7091TIP3    H242765   6.360   3.171  13.614 -1.2580  0.1151  2.5619
 7092TIP3   OH242766   3.580   2.603  15.371 -0.8096  0.2183 -0.5780
 7092TIP3    H142767   3.571   2.696  15.392  0.4764  0.1742  0.3002
 7092TIP3    H242768   3.589   2.560  15.456 -0.8220 -0.6420 -1.0031
 7093TIP3   OH242769   5.650   4.817   5.656 -0.3502 -0.3294 -0.6286
 7093TIP3    H142770   5.598   4.804   5.735 -0.7637  0.6168 -0.7364
 7093TIP3    H242771   5.687   4.731   5.637 -0.8798 -0.7348  0.1472
 7094TIP3   OH242772   3.554   1.405  16.636  0.3517 -0.2454 -0.1074
 7094TIP3    H142773   3.504   1.431  16.713 -0.4259  0.0552 -0.6924
 7094TIP3    H242774   3.491   1.410  16.564  1.3679  0.7230 -0.9736
 7095TIP3   OH242775   2.122   5.688  15.314 -0.0270  0.1609 -0.2966
 7095TIP3    H142776   2.101   5.620  15.378  0.7825  0.5142  0.3600
 7095TIP3    H242777   2.109   5.646  15.229 -1.4356 -0.2232  0.0744
 7096TIP3   OH242778   0.381   5.923   2.570  0.2724  0.1273  0.3421
 7096TIP3    H142779   0.397   5.915   2.664  0.8227 -0.2999  0.2147
 7096TIP3    H242780   0.340   5.841   2.545  0.3715  0.1336  0.1570
 7097TIP3   OH242781   4.328   3.051   1.153  0.4504  0.3093 -0.0559
 7097TIP3    H142782   4.385   3.002   1.093 -0.4705 -1.3175  0.3703
 7097TIP3    H242783   4.260   3.087   1.096  0.3425 -0.0822 -0.1769
 7098TIP3   OH242784   4.231   2.974   1.749  0.3013 -0.1794 -0.1776
 7098TIP3    H142785   4.146   3.018   1.750  0.8163  0.8368  0.3116
 7098TIP3    H242786   4.286   3.028   1.693  0.4060 -1.3053 -1.2119
 7099TIP3   OH242787   2.799   0.767   2.173 -0.5152 -0.3386 -0.3791
 7099TIP3    H142788   2.762   0.853   2.152  1.6256  0.3549 -1.6660
 7099TIP3    H242789   2.834   0.735   2.089  0.4047 -1.6018  0.4486
 7100TIP3   OH242790   3.798   5.978   4.951  0.7132 -0.1154 -0.6087
 7100TIP3    H142791   3.872   5.919   4.931  0.6227 -0.5036  0.1842
 7100TIP3    H242792   3.784   6.026   4.869  0.3384 -1.6950 -1.5392
 7101TIP3   OH242793   1.643   0.378  13.787  0.4982 -0.4701 -0.4283
 7101TIP3    H142794   1.565   0.326  13.810 -0.4188  1.2434  0.5847
 7101TIP3    H242795   1.717   0.322  13.811 -0.4455 -0.8326  1.9319
 7102TIP3   OH242796   0.939   2.307  15.128 -0.1743 -0.0564  0.4982
 7102TIP3    H142797   0.890   2.338  15.052 -0.6219 -0.2133  0.7208
 7102TIP3    H242798   0.921   2.213  15.131  0.6124 -0.2243  0.2360
 7103TIP3   OH242799   3.335   2.448  16.812  0.5128 -0.0836 -0.5386
 7103TIP3    H142800   3.326   2.518  16.876  0.5187 -0.7413  0.1932
 7103TIP3    H242801   3.332   2.367  16.864  1.4756 -0.5973 -1.2627
 7104TIP3   OH242802   1.892   5.670   2.926 -0.5239 -0.1550  0.5900
 7104TIP3    H142803   1.831   5.681   2.854 -1.5162 -1.5565  1.1715
 7104TIP3    H242804   1.853   5.720   2.999  0.3679  1.0831  0.2576
 7105TIP3   OH242805   0.628   4.030   0.168  0.0571  0.0941 -0.0600
 7105TIP3    H142806   0.701   4.050   0.111 -0.1669  0.4918 -0.2116
 7105TIP3    H242807   0.649   4.073   0.251  0.5432 -0.7657  0.2769
 7106TIP3   OH242808   5.448   2.143  10.995  0.5257  0.2516 -0.0442
 7106TIP3    H142809   5.389   2.072  10.969  0.1917 -0.1249  1.6449
 7106TIP3    H242810   5.417   2.219  10.945 -0.8187 -0.1578  0.1307
 7107TIP3   OH242811   1.637   6.283  16.599  0.6254 -0.6456  0.1560
 7107TIP3    H142812   1.623   6.234  16.680  0.6585  0.0862  0.6170
 7107TIP3    H242813   1.556   6.272  16.549 -1.0231  2.0098  1.9707
 7108TIP3   OH242814   1.574   6.428   0.835 -0.1447  0.5153 -0.0062
 7108TIP3    H142815   1.536   6.449   0.921  1.0275 -0.2557  0.7230
 7108TIP3    H242816   1.609   6.511   0.803  0.7641  0.5311  0.9720
 7109TIP3   OH242817   2.733   5.204   4.226  0.7090 -0.3569  0.0574
 7109TIP3    H142818   2.779   5.277   4.268 -0.4282  0.1862  0.4106
 7109TIP3    H242819   2.757   5.210   4.134  0.9096  0.2408  0.1438
 7110TIP3   OH242820   0.492   5.243   3.614 -0.8688  0.4125  0.0731
 7110TIP3    H142821   0.503   5.164   3.667 -0.8486  0.0079 -0.5263
 7110TIP3    H242822   0.492   5.315   3.678 -1.5876 -0.1203  0.6929
 7111TIP3   OH242823   3.576   5.965   5.902 -0.1037 -0.2858 -0.0944
 7111TIP3    H142824   3.625   6.047   5.908  0.4494 -0.5450 -0.8741
 7111TIP3    H242825   3.615   5.909   5.969 -2.0682  0.8449  2.1268
 7112TIP3   OH242826   6.036   0.130   3.144  0.2616  0.6899  0.1662
 7112TIP3    H142827   6.124   0.096   3.132  0.0805  0.2517  0.0442
 7112TIP3    H242828   6.029   0.201   3.080  1.0344  1.7380  1.2089
 7113TIP3   OH242829   0.891   3.078  15.699 -0.1098  0.0979 -0.9898
 7113TIP3    H142830   0.867   3.152  15.755  1.8685 -0.3708  0.5905
 7113TIP3    H242831   0.969   3.041  15.740 -1.4196 -3.3651 -1.3084
 7114TIP3   OH242832   3.559   5.689   5.446  0.1583 -0.0026 -0.1098
 7114TIP3    H142833   3.492   5.738   5.399 -2.4467 -2.7631  0.4212
 7114TIP3    H242834   3.589   5.623   5.384  2.6604  1.2813 -0.3989
 7115TIP3   OH242835   1.536   1.385   3.141 -0.8327  0.1092 -0.6033
 7115TIP3    H142836   1.465   1.335   3.180  0.2669 -1.2162 -0.2091
 7115TIP3    H242837   1.512   1.476   3.154 -1.8378 -0.3140  0.6530
 7116TIP3   OH242838   6.602   2.007   3.676  0.3023 -0.0927 -0.2500
 7116TIP3    H142839   6.632   1.943   3.742 -0.2474  0.4002  0.4890
 7116TIP3    H242840   6.682   2.030   3.628  0.7169 -0.4663  0.2393
 7117TIP3   OH242841   5.930   3.167  13.506 -0.2070 -0.2377 -0.1007
 7117TIP3    H142842   5.904   3.191  13.417  0.3781 -0.3051 -0.2938
 7117TIP3    H242843   5.903   3.241  13.561  0.2947  0.2266 -0.4748
 7118TIP3   OH242844   5.009   5.382  14.431 -0.0848  0.7684  0.1446
 7118TIP3    H142845   4.976   5.470  14.448 -1.4567  0.2073  0.5415
 7118TIP3    H242846   5.017   5.341  14.517  0.8868  0.6104 -0.0074
 7119TIP3   OH242847   1.437   4.166   3.151 -0.6363 -0.0209 -0.3255
 7119TIP3    H142848   1.351   4.143   3.117 -0.4646 -1.4094  0.1485
 7119TIP3    H242849   1.499   4.126   3.090 -0.2074  3.1091 -2.1930
 7120TIP3   OH242850   2.286   3.569   4.587  0.0125 -0.1389  0.1833
 7120TIP3    H142851   2.243   3.647   4.552 -0.6287 -0.8181 -0.5856
 7120TIP3    H242852   2.308   3.592   4.677 -1.9387  0.2646  0.5938
 7121TIP3   OH242853   0.062   3.784  14.749  0.4192  0.0430 -0.4921
 7121TIP3    H142854   0.014   3.730  14.811  1.8350  0.8222  1.3762
 7121TIP3    H242855   0.129   3.725  14.712  2.7138  0.6027  2.3830
 7122TIP3   OH242856   0.436   0.026  12.229 -0.3111  0.1386 -0.7295
 7122TIP3    H142857   0.416  -0.027  12.306  2.0866 -0.2653 -0.3073
 7122TIP3    H242858   0.502   0.088  12.258 -0.5275  1.0643 -2.0907
 7123TIP3   OH242859   1.513   2.478   0.116 -0.6173  0.0857 -0.6758
 7123TIP3    H142860   1.514   2.494   0.210 -3.1823  1.5292 -0.7995
 7123TIP3    H242861   1.586   2.529   0.082 -0.3679  0.4662  0.4153
 7124TIP3   OH242862   5.546   3.045  16.290 -0.0025 -0.3039  0.1165
 7124TIP3    H142863   5.593   3.128  16.296 -0.1910 -0.2689  1.1742
 7124TIP3    H242864   5.482   3.059  16.220  1.4377 -0.3063 -1.2617
 7125TIP3   OH242865   1.544   6.478   1.805  0.0637  0.2291 -0.7405
 7125TIP3    H142866   1.611   6.410   1.816  0.7459  0.9583 -0.2574
 7125TIP3    H242867   1.576   6.530   1.732  0.0237  0.5803 -0.5066
 7126TIP3   OH242868   3.868   6.671  14.487  0.6090  0.0246 -0.2469
 7126TIP3    H142869   3.914   6.735  14.540  2.1581 -0.1333 -1.3347
 7126TIP3    H242870   3.792   6.719  14.452  2.0579  1.5133 -1.5226
 7127TIP3   OH242871   4.041   0.694  11.967 -0.6000  0.0057  0.2741
 7127TIP3    H142872   3.967   0.755  11.973 -2.2842 -1.7902 -0.7696
 7127TIP3    H242873   4.004   0.609  11.991  0.8949 -1.1112 -1.1080
 7128TIP3   OH242874   5.714   0.685  13.470  0.1335  0.2720  0.3181
 7128TIP3    H142875   5.721   0.678  13.375  1.8831  1.3545  0.3405
 7128TIP3    H242876   5.781   0.625  13.504  0.8646  1.3332  0.8122
 7129TIP3   OH242877   6.185   4.584  11.538  0.1138  0.1227  0.1173
 7129TIP3    H142878   6.229   4.559  11.457  0.1585 -1.4662  0.5905
 7129TIP3    H242879   6.167   4.500  11.582 -1.0493  0.8807  1.1455
 7130TIP3   OH242880   5.495   2.779   2.050  0.5957  0.1794  0.7053
 7130TIP3    H142881   5.407   2.801   2.020  0.8666  0.9995  0.4998
 7130TIP3    H242882   5.548   2.779   1.971  0.9415  0.4753  0.9351
 7131TIP3   OH242883   2.620   0.213   3.549  0.3018 -0.4506 -0.1924
 7131TIP3    H142884   2.552   0.153   3.580 -1.2678  0.7687 -1.1320
 7131TIP3    H242885   2.584   0.300   3.563  1.5196  0.2367 -1.0695
 7132TIP3   OH242886   5.903   5.112   5.106 -0.2091  0.2010 -0.2051
 7132TIP3    H142887   5.867   5.185   5.156  0.0888  0.1191  0.1329
 7132TIP3    H242888   5.826   5.064   5.075 -0.4112  0.8141 -0.6687
 7133TIP3   OH242889   0.780   5.702  10.429  0.1344 -0.2708  0.1007
 7133TIP3    H142890   0.805   5.773  10.488  0.7967  1.1180 -1.7567
 7133TIP3    H242891   0.684   5.703  10.429  0.0998  1.7679 -1.1268
 7134TIP3   OH242892   6.149   6.333  12.032 -0.1118  0.8561 -0.0278
 7134TIP3    H142893   6.133   6.330  12.126 -1.2859 -0.3485 -0.2208
 7134TIP3    H242894   6.214   6.402  12.020  0.4439  0.6690  1.7092
 7135TIP3   OH242895   4.060   2.789  16.577  0.2117  0.1022 -0.0658
 7135TIP3    H142896   4.051   2.694  16.573 -1.3610  0.1934  0.5841
 7135TIP3    H242897   4.131   2.809  16.516  1.0039 -1.5283  0.2488
 7136TIP3   OH242898   1.657   6.359   6.626  0.5570  0.3034  0.2335
 7136TIP3    H142899   1.585   6.397   6.676  1.1008  1.7791 -0.0579
 7136TIP3    H242900   1.731   6.416   6.644  1.7727 -1.3771  0.7938
 7137TIP3   OH242901   4.462   5.631   6.317  0.0088 -0.5897 -0.0314
 7137TIP3    H142902   4.370   5.654   6.302  0.0133  0.1522  0.9338
 7137TIP3    H242903   4.462   5.536   6.325 -0.8639 -0.5199  1.0584
 7138TIP3   OH242904   0.457   5.361  16.970 -0.3584  0.0919  0.0813
 7138TIP3    H142905   0.525   5.318  16.918  0.1616  1.9822 -0.8968
 7138TIP3    H242906   0.501   5.387  17.051 -0.1873  0.3433 -0.0892
 7139TIP3   OH242907   0.909   1.497   5.873  0.2461  0.0745  0.4257
 7139TIP3    H142908   0.829   1.446   5.858  0.2274  0.6191 -1.6695
 7139TIP3    H242909   0.980   1.432   5.872  0.0282 -0.1579 -0.0176
 7140TIP3   OH242910   5.690   3.397  16.799  0.1463  0.5069 -0.9713
 7140TIP3    H142911   5.599   3.412  16.825  0.8615  0.9150  1.6017
 7140TIP3    H242912   5.701   3.450  16.719 -1.5224  1.4659 -0.6192
 7141TIP3   OH242913   2.331   2.384  12.893 -0.3166 -0.4239 -0.2550
 7141TIP3    H142914   2.331   2.349  12.804 -0.9870  1.3629 -0.9943
 7141TIP3    H242915   2.243   2.418  12.905 -0.0522 -0.1078  0.8776
 7142TIP3   OH242916   6.651   0.848  14.426 -0.2766 -0.2267 -0.3164
 7142TIP3    H142917   6.721   0.909  14.402 -0.1258  0.1568  1.0423
 7142TIP3    H242918   6.696   0.767  14.450 -0.3781 -0.3412 -0.5054
 7143TIP3   OH242919   0.582   2.787  12.038 -0.0010  0.1408  0.2642
 7143TIP3    H142920   0.531   2.830  12.107 -0.1287 -1.0613  0.9537
 7143TIP3    H242921   0.590   2.697  12.068  0.9131 -0.1364 -0.7670
 7144TIP3   OH242922   5.767   5.314  14.760  0.7445 -0.2965 -0.0960
 7144TIP3    H142923   5.726   5.382  14.706  0.1029 -0.5457  0.0713
 7144TIP3    H242924   5.842   5.357  14.800  0.2273  0.3666  0.1684
 7145TIP3   OH242925   2.032   2.173  17.236  0.1629 -0.0845 -0.4141
 7145TIP3    H142926   2.117   2.139  17.266  0.3869  0.4534 -0.4412
 7145TIP3    H242927   2.053   2.254  17.191 -0.5962  1.5049  1.9365
 7146TIP3   OH242928   5.301   6.007   2.634  0.7110  0.4887  0.5056
 7146TIP3    H142929   5.222   5.989   2.583  1.9294 -2.4183 -0.6264
 7146TIP3    H242930   5.270   6.051   2.713 -1.8928  0.3322 -0.3458
 7147TIP3   OH242931   2.537   2.619  16.796  0.7093  0.7381  0.4572
 7147TIP3    H142932   2.541   2.591  16.887  1.7751  1.5646  0.6898
 7147TIP3    H242933   2.619   2.667  16.782  0.3610  1.0102 -0.8072
 7148TIP3   OH242934   6.030   2.705   0.453 -0.0104 -0.2233  0.0197
 7148TIP3    H142935   6.110   2.739   0.495 -0.3505 -1.9709  2.2679
 7148TIP3    H242936   6.062   2.660   0.374  1.3859 -1.5722  1.2882
 7149TIP3   OH242937   2.158   5.478  13.752 -0.3618 -0.2590 -0.6945
 7149TIP3    H142938   2.152   5.574  13.747 -0.3958 -0.0876  1.5268
 7149TIP3    H242939   2.084   5.447  13.699  0.5481  0.8521 -2.7354
 7150TIP3   OH242940   4.714   6.149   2.463  0.2319 -0.4576  0.0339
 7150TIP3    H142941   4.755   6.178   2.544 -0.3382  2.0204 -0.4738
 7150TIP3    H242942   4.637   6.099   2.491 -1.0101  1.9247  1.1159
 7151TIP3   OH242943   0.012   2.918   1.691  0.0243 -0.2214 -0.4534
 7151TIP3    H142944   0.049   2.997   1.653  1.8814  0.0012  1.6129
 7151TIP3    H242945   0.009   2.856   1.618 -0.0161  1.2328 -1.7594
 7152TIP3   OH242946   5.022   4.732  10.949 -0.3751  0.0994  0.1322
 7152TIP3    H142947   4.967   4.656  10.965 -0.9376  0.8636  2.1987
 7152TIP3    H242948   4.974   4.782  10.883  0.4423 -1.6955 -1.9285
 7153TIP3   OH242949   4.782   0.869   4.107 -0.3935  0.3314 -0.0473
 7153TIP3    H142950   4.802   0.788   4.154  0.4842 -0.2436 -1.3523
 7153TIP3    H242951   4.718   0.843   4.041  0.4739  0.5215 -0.9764
 7154TIP3   OH242952   6.252   4.597  14.356  0.6559 -0.4608 -0.1822
 7154TIP3    H142953   6.206   4.523  14.315 -0.6594 -0.3013  0.9422
 7154TIP3    H242954   6.207   4.675  14.322 -1.2257 -0.3411  2.2872
 7155TIP3   OH242955   3.543   4.960  17.058  0.7341 -0.3284  0.2988
 7155TIP3    H142956   3.534   4.907  16.979  0.9155 -0.0398  0.0852
 7155TIP3    H242957   3.630   4.939  17.092  0.3335 -1.1089  0.9060
 7156TIP3   OH242958   4.753   1.689  12.443 -0.2948 -0.6397  0.1716
 7156TIP3    H142959   4.731   1.737  12.363 -1.3743 -0.5376  0.5157
 7156TIP3    H242960   4.790   1.606  12.413  1.5759  0.3534 -0.4421
 7157TIP3   OH242961   3.670   2.588  14.954 -0.6882  0.0425 -0.4663
 7157TIP3    H142962   3.731   2.588  15.029  0.7654 -1.3028 -1.5711
 7157TIP3    H242963   3.630   2.674  14.956  0.2993  0.5200  1.0808
 7158TIP3   OH242964   1.810   4.777  15.063  0.0463  0.0939 -0.0330
 7158TIP3    H142965   1.874   4.844  15.087 -0.4362  0.2492  0.8827
 7158TIP3    H242966   1.863   4.705  15.030  0.6174  0.6593 -0.3750
 7159TIP3   OH242967   4.632   0.165   5.588 -0.2247  0.2068 -0.3527
 7159TIP3    H142968   4.594   0.099   5.646 -1.0874  0.4681 -0.6079
 7159TIP3    H242969   4.660   0.117   5.511 -0.0379  0.0140 -0.1661
 7160TIP3   OH242970   1.962   1.787  11.801 -0.1295  0.2083 -0.3981
 7160TIP3    H142971   1.907   1.860  11.773  0.0888 -0.3483 -2.4459
 7160TIP3    H242972   2.049   1.810  11.771  0.0748 -0.5674 -0.4219
 7161TIP3   OH242973   5.045   3.970   0.661 -0.6163 -0.3666 -0.4195
 7161TIP3    H142974   5.128   4.014   0.676 -1.1323  0.3728  0.4083
 7161TIP3    H242975   5.044   3.951   0.567  0.0032  0.6233 -0.6438
 7162TIP3   OH242976   6.624   5.175   2.994 -0.1142 -0.2311  0.2863
 7162TIP3    H142977   6.598   5.098   3.044  0.1360 -1.3722 -1.2642
 7162TIP3    H242978   6.590   5.159   2.906  2.1055  0.2294 -0.7079
 7163TIP3   OH242979   0.424   2.477  15.267  0.2821 -0.0165  0.4935
 7163TIP3    H142980   0.500   2.418  15.268  0.2863 -0.0529 -0.5456
 7163TIP3    H242981   0.352   2.424  15.302  0.3400 -0.5851 -0.2157
 7164TIP3   OH242982   0.235   1.967  13.020 -0.6334  0.0877 -0.2511
 7164TIP3    H142983   0.215   2.020  12.943 -1.0402  0.6756  0.2441
 7164TIP3    H242984   0.277   1.888  12.985 -2.0501 -0.3056 -1.2042
 7165TIP3   OH242985   0.316   0.568   3.747  0.0317 -0.1952  0.8576
 7165TIP3    H142986   0.310   0.487   3.696 -0.0782 -0.3696  1.1441
 7165TIP3    H242987   0.408   0.575   3.772  0.5197  0.9227 -1.0184
 7166TIP3   OH242988   1.586   6.090   1.756 -0.6559 -0.6449 -0.3209
 7166TIP3    H142989   1.501   6.050   1.773 -0.8057 -0.7172 -1.2300
 7166TIP3    H242990   1.600   6.149   1.831 -1.4408 -0.7208 -0.1088
 7167TIP3   OH242991   1.230   4.166  14.761 -0.2088 -0.0739 -0.2040
 7167TIP3    H142992   1.254   4.073  14.761 -2.5123 -0.7795  1.5734
 7167TIP3    H242993   1.160   4.173  14.696 -0.3673  0.3028  0.0023
 7168TIP3   OH242994   2.946   1.860  13.372  0.2488 -0.1138  0.0154
 7168TIP3    H142995   3.028   1.844  13.419  0.6002  0.9509 -0.2252
 7168TIP3    H242996   2.973   1.877  13.282 -0.3931 -1.7208 -0.5186
 7169TIP3   OH242997   1.318   4.943  11.063  1.0738 -0.4465  0.5403
 7169TIP3    H142998   1.292   4.892  10.987  1.7209 -0.8428  0.5792
 7169TIP3    H242999   1.394   4.897  11.099  0.5001 -0.5191  1.6988
 7170TIP3   OH243000   3.032   4.098   0.634  0.0257  0.5114 -0.3637
 7170TIP3    H143001   3.119   4.079   0.670  1.3056  0.6124 -3.0971
 7170TIP3    H243002   2.987   4.146   0.703  2.6935  1.7193  0.6680
 7171TIP3   OH243003   3.998   3.799  12.074 -0.0860  0.0100 -0.5750
 7171TIP3    H143004   3.935   3.817  12.145 -0.0393  0.4021 -0.6314
 7171TIP3    H243005   3.944   3.796  11.995 -0.3699 -1.9957 -0.3475
 7172TIP3   OH243006   3.303   0.406  12.800  0.4836 -0.4116 -0.1593
 7172TIP3    H143007   3.351   0.481  12.765  0.2359 -0.8067 -1.3795
 7172TIP3    H243008   3.211   0.433  12.797  0.3299 -0.9989 -1.2547
 7173TIP3   OH243009   4.819   4.778   4.179  0.0415  0.9719  0.6229
 7173TIP3    H143010   4.835   4.688   4.151 -0.4560  1.1100 -0.1508
 7173TIP3    H243011   4.880   4.793   4.251  0.3098  0.1041  0.5811
 7174TIP3   OH243012   5.944   5.758  15.068 -0.2955  0.3844  0.1959
 7174TIP3    H143013   6.012   5.819  15.039  0.8939 -1.5555 -1.4148
 7174TIP3    H243014   5.982   5.671  15.052 -1.4017 -0.8701  3.5357
 7175TIP3   OH243015   3.564   2.538  13.256  0.0224 -0.3101  0.3245
 7175TIP3    H143016   3.502   2.552  13.327  0.9290  0.0274  1.0780
 7175TIP3    H243017   3.650   2.536  13.299  0.7489  1.4424 -0.9107
 7176TIP3   OH243018   6.471   6.199   6.436  0.2992  0.7553  0.2708
 7176TIP3    H143019   6.478   6.193   6.340 -2.3198 -0.9094  0.0829
 7176TIP3    H243020   6.475   6.108   6.465 -2.0265  0.9407  1.3903
 7177TIP3   OH243021   1.692   3.889   2.783  0.0930 -0.5682  0.5218
 7177TIP3    H143022   1.755   3.902   2.712  0.9691  0.9161  1.5258
 7177TIP3    H243023   1.637   3.967   2.780 -1.1958 -1.4561  0.2043
 7178TIP3   OH243024   3.027   2.915   5.390 -0.0041  0.6823  0.0263
 7178TIP3    H143025   3.054   2.862   5.465  0.4846 -0.1219 -0.7001
 7178TIP3    H243026   3.014   2.852   5.320 -0.5346  1.4192 -0.5543
 7179TIP3   OH243027   2.927   2.334  15.827  0.3141  0.0537  0.0148
 7179TIP3    H143028   2.918   2.268  15.758  0.9836 -0.0188 -0.0051
 7179TIP3    H243029   2.868   2.304  15.896 -1.4588  0.8580 -1.0604
 7180TIP3   OH243030   4.289   2.256   5.171 -0.1161 -0.0471 -0.3067
 7180TIP3    H143031   4.364   2.238   5.114 -0.6915 -0.5425 -0.9270
 7180TIP3    H243032   4.306   2.343   5.206  0.7651 -0.1701 -0.4109
 7181TIP3   OH243033   6.040   4.968  16.170 -0.3081 -0.1824  0.1418
 7181TIP3    H143034   6.127   4.931  16.155 -0.9163 -1.2073 -0.9825
 7181TIP3    H243035   5.981   4.893  16.172 -1.5406  0.6500 -1.9722
 7182TIP3   OH243036   1.409   6.298  11.375 -0.7215  0.0245 -0.1789
 7182TIP3    H143037   1.379   6.381  11.337  0.2586  0.6847  0.4596
 7182TIP3    H243038   1.335   6.239  11.362 -2.3623  1.6033  1.3592
 7183TIP3   OH243039   6.233   3.024  14.794  0.1885 -0.3639 -0.0643
 7183TIP3    H143040   6.230   2.930  14.814  2.0075 -0.3181  0.6410
 7183TIP3    H243041   6.235   3.027  14.699  2.0152 -1.1980 -0.1109
 7184TIP3   OH243042   3.980   2.575   4.961 -0.3949 -0.2070 -0.0924
 7184TIP3    H143043   4.029   2.547   4.884 -0.2590  1.5751 -0.6933
 7184TIP3    H243044   3.888   2.571   4.934 -0.5253 -1.7522  0.4349
 7185TIP3   OH243045   5.440   5.465  16.854  0.3061 -0.2604 -0.3353
 7185TIP3    H143046   5.522   5.417  16.842 -0.4091 -1.6526  0.0713
 7185TIP3    H243047   5.459   5.529  16.923  1.2517 -0.0246 -0.7976
 7186TIP3   OH243048   6.678   0.526  13.050 -0.0420  0.2588  0.4809
 7186TIP3    H143049   6.762   0.510  13.007  0.1828  2.7091 -0.1250
 7186TIP3    H243050   6.626   0.447  13.031  2.4959 -1.9798  2.0741
 7187TIP3   OH243051   1.726   5.805   3.114 -0.2610  0.3061 -0.0797
 7187TIP3    H143052   1.806   5.819   3.166 -0.8036  1.8157  0.3990
 7187TIP3    H243053   1.655   5.817   3.177 -0.8960  0.1657 -0.7697
 7188TIP3   OH243054   5.559   6.738  14.341  0.0390  0.3258 -0.1549
 7188TIP3    H143055   5.586   6.823  14.377 -0.1696  0.4768 -0.3521
 7188TIP3    H243056   5.558   6.752  14.246  1.0920 -0.2138 -0.2594
 7189TIP3   OH243057   0.188   0.174  14.478  0.4889 -0.3636 -0.0314
 7189TIP3    H143058   0.253   0.179  14.548 -1.2666  0.5800  1.6266
 7189TIP3    H243059   0.218   0.236  14.412  2.2163 -1.3238 -0.1926
 7190TIP3   OH243060   5.475   4.381  11.862 -0.5290  0.6208 -0.2684
 7190TIP3    H143061   5.538   4.323  11.906  1.3421  0.7492 -2.6344
 7190TIP3    H243062   5.421   4.414  11.934  2.3918  0.9173  2.0109
 7191TIP3   OH243063   4.254   3.938   4.375 -0.5075 -0.0149 -0.0911
 7191TIP3    H143064   4.322   3.874   4.351  1.7979  3.1377 -2.8696
 7191TIP3    H243065   4.296   3.994   4.440 -0.9358  1.1078 -0.7601
 7192TIP3   OH243066   6.434   5.648   4.652  0.0722 -0.2338  0.2535
 7192TIP3    H143067   6.339   5.633   4.649  0.0153 -0.1190  1.0753
 7192TIP3    H243068   6.467   5.612   4.571 -0.6341 -0.6335  0.1376
 7193TIP3   OH243069   2.579   6.742  12.336 -0.2393  0.7508  0.1443
 7193TIP3    H143070   2.654   6.749  12.395  1.5252  0.5595 -1.9634
 7193TIP3    H243071   2.609   6.687  12.264 -2.5072  0.4481 -0.6701
 7194TIP3   OH243072   3.009   5.650  13.442  0.2344  0.6249 -0.1862
 7194TIP3    H143073   3.045   5.567  13.475 -0.9695 -0.0752 -0.5962
 7194TIP3    H243074   2.915   5.640  13.451  0.0176  1.4854 -1.3459
 7195TIP3   OH243075   4.992   5.536  17.151 -0.5239 -0.1628 -0.0615
 7195TIP3    H143076   4.974   5.455  17.199 -0.1004 -0.4701 -0.4176
 7195TIP3    H243077   5.024   5.597  17.218 -1.4383 -0.0761  0.3194
 7196TIP3   OH243078   5.203   5.339   3.544 -0.4069  0.6803  0.0155
 7196TIP3    H143079   5.183   5.401   3.614 -1.7846 -0.4666  0.6829
 7196TIP3    H243080   5.119   5.316   3.506 -0.1000 -1.5895  0.5343
 7197TIP3   OH243081   4.191   1.685  15.698  0.8079 -0.4721 -0.2315
 7197TIP3    H143082   4.252   1.612  15.703  1.1879 -0.0913  1.0236
 7197TIP3    H243083   4.181   1.714  15.789 -1.2432 -0.5257 -0.3967
 7198TIP3   OH243084   2.463   3.939  12.955 -0.2318 -0.4068  0.6126
 7198TIP3    H143085   2.524   3.868  12.975 -0.3871 -0.9338 -0.6667
 7198TIP3    H243086   2.506   3.988  12.885 -1.4107 -1.0078 -0.5696
 7199TIP3   OH243087   0.090   6.292  12.495  0.7528 -0.5568  0.3087
 7199TIP3    H143088   0.067   6.200  12.507  1.2523 -0.6474  0.5734
 7199TIP3    H243089   0.179   6.290  12.461  0.2055 -0.2294 -1.2409
 7200TIP3   OH243090   2.036   2.646  11.936  0.7682 -0.2037 -0.4009
 7200TIP3    H143091   2.126   2.618  11.947  1.1309  1.1819  0.4905
 7200TIP3    H243092   2.043   2.732  11.894 -0.1686 -0.4276 -1.0361
 7201TIP3   OH243093   3.032   2.204   5.370 -0.2688 -0.9090 -0.6792
 7201TIP3    H143094   3.054   2.273   5.308  0.8470 -1.3861 -0.8345
 7201TIP3    H243095   3.100   2.209   5.437 -0.4551 -1.5409 -0.4286
 7202TIP3   OH243096   3.716   4.033   6.055 -0.0766 -0.3787  0.0253
 7202TIP3    H143097   3.797   4.033   6.105 -0.1320 -1.1053  0.1294
 7202TIP3    H243098   3.740   4.067   5.969  0.3581 -0.6856  0.0241
 7203TIP3   OH243099   5.856   3.390   1.760  0.6061 -0.4875 -0.0696
 7203TIP3    H143100   5.945   3.364   1.784  0.6098 -0.0579  0.4081
 7203TIP3    H243101   5.808   3.389   1.843  0.6709  1.2440  0.0283
 7204TIP3   OH243102   4.769   5.953   6.400 -0.2064 -0.3592 -0.0274
 7204TIP3    H143103   4.801   5.943   6.490  1.3999 -2.7653 -0.7586
 7204TIP3    H243104   4.809   6.034   6.369  0.8459 -0.5205  0.8349
 7205TIP3   OH243105   0.747   0.018   5.129 -0.3285  0.6546 -0.7633
 7205TIP3    H143106   0.673   0.066   5.167 -0.0207  1.2465 -0.9047
 7205TIP3    H243107   0.804  -0.001   5.203 -1.5643 -1.5874 -0.2986
 7206TIP3   OH243108   5.610   4.356   0.325  0.3679  0.5117  0.0437
 7206TIP3    H143109   5.605   4.283   0.387  0.6487  0.2085 -0.2825
 7206TIP3    H243110   5.520   4.387   0.317  0.5900  1.9313  2.2045
 7207TIP3   OH243111   3.345   2.834  12.101  0.0750  0.0781 -0.9393
 7207TIP3    H143112   3.412   2.831  12.032  0.3724 -1.4193 -0.6251
 7207TIP3    H243113   3.373   2.904  12.159  1.2301 -0.3387 -0.9704
 7208TIP3   OH243114   3.375   6.086   3.421  0.2646  0.2098  0.5149
 7208TIP3    H143115   3.404   6.176   3.407  1.3453  0.0599  1.6445
 7208TIP3    H243116   3.327   6.088   3.504  0.9122 -0.3791  0.9121
 7209TIP3   OH243117   1.652   0.010  15.834  0.0257 -0.0847 -0.6551
 7209TIP3    H143118   1.685  -0.037  15.757 -0.3031 -0.4133 -0.5992
 7209TIP3    H243119   1.675  -0.046  15.908  1.0324  0.5974 -0.4310
 7210TIP3   OH243120   1.801   6.033   3.731  0.1517 -0.0976 -0.2066
 7210TIP3    H143121   1.708   6.019   3.750  0.1729  1.1669  0.9257
 7210TIP3    H243122   1.823   5.962   3.670 -0.9875 -1.7975  1.2520
 7211TIP3   OH243123   5.855   1.791  14.933  0.0596 -0.0623 -0.0854
 7211TIP3    H143124   5.794   1.796  15.007 -0.0373 -0.0860 -0.1627
 7211TIP3    H243125   5.886   1.880  14.922  0.7558 -0.2139  0.5451
 7212TIP3   OH243126   4.305   3.138   3.342  1.0605 -0.3031  0.6200
 7212TIP3    H143127   4.268   3.088   3.269 -1.2936 -0.0025  1.5246
 7212TIP3    H243128   4.316   3.227   3.308  0.5152 -0.2982  0.4546
 7213TIP3   OH243129   4.177   0.612   2.329  0.2628  0.2571 -0.5554
 7213TIP3    H143130   4.125   0.685   2.297  0.8887  0.9347 -0.0449
 7213TIP3    H243131   4.128   0.534   2.301  0.9464  0.7728 -3.5212
 7214TIP3   OH243132   5.448   1.871   4.084 -0.9688 -0.0764 -0.0462
 7214TIP3    H143133   5.421   1.880   4.175  1.4089  1.0553  0.6342
 7214TIP3    H243134   5.420   1.953   4.043  0.1518  0.5018  0.3158
 7215TIP3   OH243135   5.376   1.549   1.552 -0.0397  0.9128  0.5567
 7215TIP3    H143136   5.300   1.598   1.520  0.7650  1.6967 -0.2009
 7215TIP3    H243137   5.443   1.615   1.567  0.9759  0.0795 -0.2024
 7216TIP3   OH243138   3.676   4.227  15.120 -0.0729 -0.4242  0.1366
 7216TIP3    H143139   3.707   4.152  15.070 -0.3826 -0.5126  0.0792
 7216TIP3    H243140   3.581   4.223  15.113 -0.0703  0.4287 -0.5433
 7217TIP3   OH243141   2.694   4.075  13.817  0.0370  0.0756 -0.2056
 7217TIP3    H143142   2.717   4.163  13.849 -0.6970  0.4029 -0.5513
 7217TIP3    H243143   2.632   4.042  13.882  2.4285 -1.3890  1.5127
 7218TIP3   OH243144   0.845   2.256  13.728  0.0111  0.4796  0.2099
 7218TIP3    H143145   0.886   2.339  13.704  0.1636  0.3423 -0.0061
 7218TIP3    H243146   0.836   2.209  13.645  1.5417 -0.4645  0.5433
 7219TIP3   OH243147   2.196   0.088  13.709  0.1412 -0.6274 -0.0570
 7219TIP3    H143148   2.228  -0.001  13.724 -1.5671 -1.1488  0.6604
 7219TIP3    H243149   2.105   0.087  13.738 -0.0044  1.2923 -0.2913
 7220TIP3   OH243150   4.431   3.423   2.872  0.7408 -0.4254  0.1168
 7220TIP3    H143151   4.435   3.481   2.796  1.9288 -0.4219  0.1616
 7220TIP3    H243152   4.383   3.474   2.938 -2.2698 -1.2303 -1.2532
 7221TIP3   OH243153   4.267   0.705   2.039 -0.2374 -0.3930 -0.6141
 7221TIP3    H143154   4.201   0.739   2.099 -0.2258 -0.3494 -0.6262
 7221TIP3    H243155   4.241   0.738   1.953 -0.7353 -1.1464 -0.7687
 7222TIP3   OH243156   0.267   3.823   0.113  0.1891  0.2709 -0.1971
 7222TIP3    H143157   0.294   3.738   0.078  1.1914  1.0714 -1.4381
 7222TIP3    H243158   0.173   3.815   0.126  0.3507 -1.1986  0.2125
 7223TIP3   OH243159   6.235   0.946  14.441  0.1872 -0.0729  0.7805
 7223TIP3    H143160   6.195   1.027  14.473  1.3395  0.8482 -0.0455
 7223TIP3    H243161   6.317   0.938  14.491 -0.0705 -0.9295  1.0991
 7224TIP3   OH243162   5.068   0.506   1.660 -0.2221 -0.1549  0.1800
 7224TIP3    H143163   4.993   0.564   1.650  0.9739  1.3770 -0.1781
 7224TIP3    H243164   5.079   0.466   1.573 -1.2327 -1.2263  0.5062
 7225TIP3   OH243165   6.024   4.746  14.501  0.0648 -0.3457  0.6164
 7225TIP3    H143166   6.110   4.732  14.540  0.5348  1.5330  0.3865
 7225TIP3    H243167   5.979   4.805  14.561 -1.1455 -1.4245  0.8081
 7226TIP3   OH243168   0.887   4.603  14.505  0.9423 -0.5782 -0.0399
 7226TIP3    H143169   0.886   4.531  14.568 -1.3155 -1.3777 -0.8866
 7226TIP3    H243170   0.980   4.616  14.485  1.4600 -2.8549  0.5985
 7227TIP3   OH243171   6.789   1.926  14.034 -0.2461  0.2168 -0.1089
 7227TIP3    H143172   6.725   1.860  14.059  0.3910 -0.1692  0.5452
 7227TIP3    H243173   6.848   1.933  14.109  0.6936  0.2995 -0.8220
 7228TIP3   OH243174   2.591   3.689   4.946 -0.3741  0.5959 -0.5157
 7228TIP3    H143175   2.645   3.767   4.943 -0.2243  0.5256  0.3036
 7228TIP3    H243176   2.538   3.698   5.025 -2.1933  1.0626 -1.7232
 7229TIP3   OH243177   1.534   5.289   2.930 -0.1865  0.1691  0.3022
 7229TIP3    H143178   1.447   5.318   2.958  0.2081  0.6132  1.1132
 7229TIP3    H243179   1.592   5.363   2.951  0.1035  0.6757 -2.0186
 7230TIP3   OH243180   5.651   0.756   2.383  0.4285  0.2452 -0.1702
 7230TIP3    H143181   5.650   0.694   2.309  1.0731  0.9752 -0.8060
 7230TIP3    H243182   5.561   0.756   2.415 -0.0133  0.3979 -1.3728
 7231TIP3   OH243183   2.549   0.391  11.272  0.4349 -0.4640 -0.3917
 7231TIP3    H143184   2.540   0.306  11.229 -1.1673  0.1253 -1.3031
 7231TIP3    H243185   2.588   0.447  11.205 -0.2980 -0.0104 -0.4438
 7232TIP3   OH243186   4.373   5.697  14.568 -0.1801  0.0726  0.2758
 7232TIP3    H143187   4.397   5.754  14.495 -1.2228 -1.1759 -1.1102
 7232TIP3    H243188   4.285   5.724  14.592  0.0453  0.2790  0.9036
 7233TIP3   OH243189   4.251   5.461   4.148 -0.4225 -0.2988  0.1407
 7233TIP3    H143190   4.279   5.374   4.118 -2.4267 -1.4632  1.4425
 7233TIP3    H243191   4.229   5.449   4.240 -0.1047  1.7840  0.5372
 7234TIP3   OH243192   4.593   1.953  10.832 -0.6272 -0.6453  0.2766
 7234TIP3    H143193   4.583   2.041  10.796  1.7162  0.1719  1.4326
 7234TIP3    H243194   4.591   1.895  10.755 -0.6450  0.5665 -0.6611
 7235TIP3   OH243195   4.111   6.814   0.207  0.2401 -0.2368 -0.1866
 7235TIP3    H143196   4.028   6.804   0.161 -0.3182 -0.5610  0.8721
 7235TIP3    H243197   4.123   6.909   0.214 -0.5147 -0.1855  0.4877
 7236TIP3   OH243198   3.708   4.511  15.369 -0.0611  0.0342 -0.4293
 7236TIP3    H143199   3.648   4.509  15.443 -2.3661 -0.0864 -2.1815
 7236TIP3    H243200   3.795   4.504  15.408 -1.2354 -2.0895  2.1457
 7237TIP3   OH243201   6.311   1.619   2.858  0.0785  0.3021 -0.0959
 7237TIP3    H143202   6.251   1.562   2.808  0.4010 -1.0897  1.0385
 7237TIP3    H243203   6.286   1.605   2.949  1.7462  0.1406  0.3550
 7238TIP3   OH243204   2.066   2.729  13.939  0.5788  0.2294 -0.5979
 7238TIP3    H143205   1.980   2.766  13.918  1.5431  1.1098 -3.5452
 7238TIP3    H243206   2.049   2.665  14.007 -2.1481  1.5618  0.1168
 7239TIP3   OH243207   3.179   3.270   6.071 -0.3310 -0.2269  0.0247
 7239TIP3    H143208   3.172   3.183   6.032  0.0694  0.2321 -1.1299
 7239TIP3    H243209   3.268   3.298   6.048  0.6381 -0.6748  2.9112
 7240TIP3   OH243210   5.413   2.973  15.676  0.2308  0.1935  0.0738
 7240TIP3    H143211   5.334   2.957  15.727  0.7832  1.0615  1.2324
 7240TIP3    H243212   5.471   2.900  15.698  0.3018  0.3294  0.3295
 7241TIP3   OH243213   0.257   2.236  13.763  0.5655  0.2707 -0.1126
 7241TIP3    H143214   0.189   2.170  13.775 -1.1133  1.6191 -1.6226
 7241TIP3    H243215   0.339   2.189  13.779 -0.6008 -1.9068 -0.0973
 7242TIP3   OH243216   3.032   4.771   2.198 -0.1960  0.2454 -0.4005
 7242TIP3    H143217   3.095   4.729   2.139 -0.0589 -0.0575 -0.0368
 7242TIP3    H243218   2.962   4.707   2.208 -0.7441  0.7174 -1.0871
 7243TIP3   OH243219   5.997   0.856   3.861 -0.7010 -0.1441 -0.0539
 7243TIP3    H143220   6.026   0.765   3.867  1.9280  0.7066  1.8676
 7243TIP3    H243221   5.944   0.869   3.940 -0.5422  0.1723 -0.0008
 7244TIP3   OH243222   0.254   0.348   1.292  0.1546  0.2934 -0.0229
 7244TIP3    H143223   0.204   0.272   1.323 -0.1306  0.3410 -0.3539
 7244TIP3    H243224   0.286   0.322   1.206  0.8420  0.2059  0.2575
 7245TIP3   OH243225   5.541   1.886   2.762 -0.0006  0.0916  0.2892
 7245TIP3    H143226   5.606   1.956   2.753  0.9031 -0.8437 -0.6695
 7245TIP3    H243227   5.585   1.808   2.730 -1.3389 -0.7282  0.3874
 7246TIP3   OH243228   0.400   5.688   1.581  0.3430  0.5486  0.0510
 7246TIP3    H143229   0.457   5.763   1.597 -1.9494  2.2492  0.8784
 7246TIP3    H243230   0.376   5.694   1.489 -0.9631  1.7874  0.4237
 7247TIP3   OH243231   3.774   4.012  16.073  0.1150  0.4878  0.1290
 7247TIP3    H143232   3.680   4.008  16.057  0.0795 -0.6546  0.5045
 7247TIP3    H243233   3.787   3.965  16.155  1.2660 -1.7922 -1.2474
 7248TIP3   OH243234   1.612   6.487  13.807  0.0509  0.3083 -0.0330
 7248TIP3    H143235   1.567   6.570  13.789 -0.5871  0.2232  1.0741
 7248TIP3    H243236   1.602   6.436  13.727  0.5122  1.3214 -0.7490
 7249TIP3   OH243237   5.436   1.797  12.821 -0.5054 -0.0656  0.3795
 7249TIP3    H143238   5.451   1.858  12.749 -1.5377 -0.6619 -0.3641
 7249TIP3    H243239   5.488   1.720  12.799 -1.1818 -0.4274  0.0292
 7250TIP3   OH243240   1.280   3.535   0.154 -0.2174  0.3078  0.2251
 7250TIP3    H143241   1.335   3.458   0.173 -0.0962  0.4670  0.5316
 7250TIP3    H243242   1.326   3.608   0.195 -0.3378  0.5446 -0.0582
 7251TIP3   OH243243   5.042   0.865   4.419 -0.1841  0.5632 -0.1384
 7251TIP3    H143244   5.081   0.843   4.503 -0.0456  0.6006 -0.1923
 7251TIP3    H243245   4.978   0.933   4.438 -0.6889  0.0451  0.0484
 7252TIP3   OH243246   3.269   5.410   4.300  0.2954  0.2570  0.1535
 7252TIP3    H143247   3.307   5.494   4.325 -0.0444  0.2870  0.5796
 7252TIP3    H243248   3.301   5.395   4.212  1.3474  0.2531  0.5277
 7253TIP3   OH243249   4.827   1.285  10.781 -0.2261 -0.1701 -0.1304
 7253TIP3    H143250   4.761   1.344  10.743 -0.1899  0.3146  0.5414
 7253TIP3    H243251   4.865   1.241  10.705  0.0163  0.9581 -0.6929
 7254TIP3   OH243252   5.418   4.536   4.148  0.5142  0.2334  0.2922
 7254TIP3    H143253   5.497   4.482   4.157  0.5881 -0.0718 -1.7001
 7254TIP3    H243254   5.351   4.476   4.116 -0.2647  0.7161  0.9728
 7255TIP3   OH243255   6.296   0.370  15.076  0.3163 -0.3195 -0.0378
 7255TIP3    H143256   6.306   0.430  15.150  2.1480  0.6379 -0.9702
 7255TIP3    H243257   6.238   0.416  15.015  1.0423  0.1599 -0.3823
 7256TIP3   OH243258   4.933   6.155  13.264  0.1066  0.1672 -0.2581
 7256TIP3    H143259   4.883   6.117  13.337  2.1031  0.4388  1.3619
 7256TIP3    H243260   4.960   6.241  13.297  1.0089  0.3212 -1.3602
 7257TIP3   OH243261   2.231   3.030  13.350  0.4132  0.5371 -0.1599
 7257TIP3    H143262   2.247   2.969  13.278  0.0248  0.4619 -0.1890
 7257TIP3    H243263   2.278   2.992  13.424  0.0922  0.1421 -0.1528
 7258TIP3   OH243264   5.493   4.588  17.173  0.2609 -0.4674 -0.0483
 7258TIP3    H143265   5.411   4.552  17.206  0.5577 -2.9486 -1.7113
 7258TIP3    H243266   5.496   4.677  17.207 -1.7513 -1.2113  2.3542
 7259TIP3   OH243267   2.710   5.895   3.874  0.3635 -0.3795 -0.3192
 7259TIP3    H143268   2.727   5.989   3.874 -3.2437  0.4424 -1.4766
 7259TIP3    H243269   2.714   5.869   3.966  1.2475  0.9136  0.0339
 7260TIP3   OH243270   2.643   0.362   3.105  0.2050  0.6405  0.0328
 7260TIP3    H143271   2.669   0.281   3.149  0.2180  1.5020  1.6942
 7260TIP3    H243272   2.679   0.431   3.159 -3.2675  1.8702  1.0493
 7261TIP3   OH243273   6.468   4.821   1.880  0.3132 -0.6336 -0.1803
 7261TIP3    H143274   6.409   4.895   1.897 -0.5246 -0.3206 -3.6380
 7261TIP3    H243275   6.555   4.853   1.905 -0.3403  0.7009  0.4727
 7262TIP3   OH243276   6.432   0.141   4.091  0.4434 -0.0565  0.6317
 7262TIP3    H143277   6.386   0.185   4.163  0.8105  1.1946  0.1215
 7262TIP3    H243278   6.525   0.151   4.113  0.6017  1.1978 -0.4769
 7263TIP3   OH243279   0.286   0.773   6.138 -0.1075 -0.2950 -0.4887
 7263TIP3    H143280   0.293   0.683   6.106 -0.6767 -0.0786 -1.2669
 7263TIP3    H243281   0.250   0.764   6.226 -2.0460 -0.7829 -1.2650
 7264TIP3   OH243282   4.745   4.188  11.823  0.4583  0.0514  0.4442
 7264TIP3    H143283   4.679   4.131  11.784  0.3525  0.2183  0.3791
 7264TIP3    H243284   4.778   4.240  11.749  0.8087 -0.1758  0.4376
 7265TIP3   OH243285   1.263   3.705  15.046 -0.7887 -0.4914  0.2189
 7265TIP3    H143286   1.256   3.618  15.008 -0.3804  0.4279 -2.1865
 7265TIP3    H243287   1.354   3.731  15.030 -1.1204  0.6878  0.0958
 7266TIP3   OH243288   3.438   5.391   6.423  0.3070  0.0922  0.4369
 7266TIP3    H143289   3.516   5.435   6.389 -1.1895  0.6769 -2.5031
 7266TIP3    H243290   3.418   5.323   6.359 -1.2274 -0.4958  1.4811
 7267TIP3   OH243291   1.248   4.595  10.480 -0.0301 -0.2920 -0.0747
 7267TIP3    H143292   1.238   4.687  10.453 -1.3345 -0.5374 -0.5176
 7267TIP3    H243293   1.284   4.600  10.569  1.5472  0.5896 -0.7205
 7268TIP3   OH243294   2.363   4.535   0.187  0.2885  0.1591  0.0410
 7268TIP3    H143295   2.402   4.504   0.269  0.6832 -0.2953 -0.3123
 7268TIP3    H243296   2.406   4.619   0.171 -0.0625  0.4325  0.4868
 7269TIP3   OH243297   3.003   3.303  16.570  0.4477 -0.1921 -0.4156
 7269TIP3    H143298   2.986   3.397  16.577 -0.0843 -0.2700 -0.6264
 7269TIP3    H243299   3.094   3.297  16.541  0.0512  0.3072 -1.8758
 7270TIP3   OH243300   0.099   6.131  13.116 -0.2897  0.8334 -0.0020
 7270TIP3    H143301   0.058   6.083  13.187 -0.5176  0.4948 -0.3587
 7270TIP3    H243302   0.176   6.079  13.093 -1.5645 -0.4287 -1.6721
 7271TIP3   OH243303   2.089   4.970  11.792  0.0162  0.6719  0.3252
 7271TIP3    H143304   2.176   4.932  11.802  1.3738  3.1858 -0.9066
 7271TIP3    H243305   2.058   4.939  11.707  1.0711  2.1064 -0.6273
 7272TIP3   OH243306   1.675   1.867  15.550 -0.3138 -0.2094  0.0048
 7272TIP3    H143307   1.742   1.935  15.560 -0.0425 -0.4982  0.1450
 7272TIP3    H243308   1.723   1.786  15.539 -0.5807 -0.0830 -2.7933
 7273TIP3   OH243309   2.103   1.430  13.658  0.1060 -0.0830 -0.7665
 7273TIP3    H143310   2.162   1.369  13.613  0.4548  0.8969 -1.6723
 7273TIP3    H243311   2.032   1.447  13.596  0.3715  0.9501 -0.8156
 7274TIP3   OH243312   1.503   0.113  12.450  0.3608 -0.0448 -0.0413
 7274TIP3    H143313   1.422   0.082  12.408  0.2383 -1.8118  1.3662
 7274TIP3    H243314   1.480   0.124  12.542  1.6367 -0.2438  0.3193
 7275TIP3   OH243315   5.785   4.312   6.126 -0.2581  0.3045 -0.0623
 7275TIP3    H143316   5.707   4.257   6.131  0.3738 -0.5739  0.3711
 7275TIP3    H243317   5.848   4.261   6.076  0.6929  0.1786  1.2075
 7276TIP3   OH243318   3.556   4.531   6.641 -0.2130 -0.3312 -0.2880
 7276TIP3    H143319   3.641   4.488   6.648 -1.0278 -1.9883 -0.2284
 7276TIP3    H243320   3.542   4.570   6.727 -0.5805 -2.1756  0.5351
 7277TIP3   OH243321   5.267   1.417  12.760  0.1859 -0.2649 -0.3514
 7277TIP3    H143322   5.324   1.370  12.698  0.3071  0.0342 -0.4679
 7277TIP3    H243323   5.260   1.505  12.724  2.4137  0.7198  1.4003
 7278TIP3   OH243324   4.919   3.954  14.590  0.3599  0.0796  0.2906
 7278TIP3    H143325   4.867   3.987  14.518  0.9324  3.2033  1.1588
 7278TIP3    H243326   4.875   3.986  14.669  0.9470 -1.3767  1.2751
 7279TIP3   OH243327   5.377   0.056   4.980  0.1127 -0.0105  0.4245
 7279TIP3    H143328   5.384  -0.023   4.927  0.5742  1.4651 -1.8204
 7279TIP3    H243329   5.408   0.127   4.924 -1.1466  1.9393  2.0203
 7280TIP3   OH243330   4.077   0.234  16.107 -0.6265  0.1139 -0.0998
 7280TIP3    H143331   4.023   0.262  16.034 -2.3054 -1.3124  0.5359
 7280TIP3    H243332   4.092   0.141  16.092 -0.6886 -0.1221  1.1659
 7281TIP3   OH243333   1.864   6.496  15.160  0.0790  0.3262  0.2474
 7281TIP3    H143334   1.949   6.456  15.180  0.4129 -0.5558 -2.4474
 7281TIP3    H243335   1.884   6.588  15.144  0.5494  0.1471 -0.2578
 7282TIP3   OH243336   3.248   4.863  11.349 -0.5969  0.1085  0.6666
 7282TIP3    H143337   3.311   4.793  11.365 -1.8713 -1.2295  0.1368
 7282TIP3    H243338   3.264   4.889  11.258 -1.9810 -1.5832 -0.1342
 7283TIP3   OH243339   5.466   4.974  11.161 -0.0924  0.4398  0.1256
 7283TIP3    H143340   5.484   5.068  11.170  0.1846  0.5994 -1.6835
 7283TIP3    H243341   5.370   4.969  11.156 -0.1798  0.4742  1.3697
 7284TIP3   OH243342   2.837   3.596  13.966 -0.4369 -0.3301 -0.3728
 7284TIP3    H143343   2.812   3.661  13.900 -1.1586  0.1459  0.3448
 7284TIP3    H243344   2.840   3.645  14.048  1.4742 -0.6959 -0.1833
 7285TIP3   OH243345   1.789   2.374  13.970 -0.2171  0.5465 -0.1163
 7285TIP3    H143346   1.728   2.422  13.914 -0.5415  0.2739 -0.0035
 7285TIP3    H243347   1.778   2.414  14.057 -1.0547 -0.2179  0.1532
 7286TIP3   OH243348   5.972   0.959  15.151 -0.4198 -0.4092  0.3035
 7286TIP3    H143349   5.879   0.937  15.160 -0.4259 -0.3750  0.3196
 7286TIP3    H243350   6.017   0.894  15.204 -0.4354 -0.4153  0.3095
 7287TIP3   OH243351   0.748   4.212  15.915  0.5322 -0.3283  0.0797
 7287TIP3    H143352   0.828   4.224  15.966 -0.0725  2.4984  0.5440
 7287TIP3    H243353   0.768   4.250  15.829 -0.4036  0.8272  0.3457
 7288TIP3   OH243354   5.485   6.508   4.341 -0.6116  0.0628 -0.0308
 7288TIP3    H143355   5.558   6.544   4.392 -0.5603  0.3902 -0.3249
 7288TIP3    H243356   5.409   6.516   4.398 -0.9607  2.3333 -0.7109
 7289TIP3   OH243357   2.840   4.667  12.096 -0.2523 -0.0217 -0.6424
 7289TIP3    H143358   2.817   4.627  12.013  1.0139  0.1746 -1.1102
 7289TIP3    H243359   2.870   4.755  12.074  2.6855 -0.8376 -0.3709
 7290TIP3   OH243360   1.564   2.175   1.780 -0.3366 -0.0755 -0.1728
 7290TIP3    H143361   1.575   2.179   1.685  0.2870 -0.9440 -0.1411
 7290TIP3    H243362   1.557   2.267   1.807 -0.9739  0.1656 -1.0983
 7291TIP3   OH243363   3.582   2.309   2.476 -0.0309 -0.3545  0.1101
 7291TIP3    H143364   3.527   2.280   2.550 -0.2108  0.8953  0.4898
 7291TIP3    H243365   3.671   2.302   2.508 -0.0598 -0.7091  0.1147
 7292TIP3   OH243366   4.026   5.572   4.024  0.1621 -0.5093  0.0721
 7292TIP3    H143367   4.098   5.537   4.075  0.3786  0.7163  0.6538
 7292TIP3    H243368   4.046   5.665   4.014 -0.6394 -0.4191 -0.9587
 7293TIP3   OH243369   5.549   0.501   1.195 -0.3189 -0.1362 -0.7776
 7293TIP3    H143370   5.573   0.430   1.255 -0.8009 -0.3102 -0.7848
 7293TIP3    H243371   5.567   0.466   1.108  0.7609  0.2613 -0.7291
 7294TIP3   OH243372   3.881   4.933  12.799  0.2781 -0.1434  0.3991
 7294TIP3    H143373   3.922   4.937  12.885  0.7924  2.1611  0.1095
 7294TIP3    H243374   3.940   4.981  12.742 -0.1405 -1.4918 -1.2386
 7295TIP3   OH243375   5.135   4.143  17.206 -0.4816  0.7480 -0.4140
 7295TIP3    H143376   5.117   4.237  17.201 -0.1663  0.8406  0.1217
 7295TIP3    H243377   5.064   4.103  17.157 -1.2493  1.2035  0.2942
 7296TIP3   OH243378   4.519   4.447   0.076 -0.1008 -0.6968 -0.6051
 7296TIP3    H143379   4.585   4.470   0.011  1.6839 -0.6767  1.0921
 7296TIP3    H243380   4.570   4.431   0.156 -2.1277 -1.2897  0.6310
 7297TIP3   OH243381   4.195   0.718   4.993 -0.3356  0.1007  0.1567
 7297TIP3    H143382   4.124   0.781   4.982 -0.7700 -0.3669  0.1974
 7297TIP3    H243383   4.266   0.752   4.939 -0.4656  0.7629  0.3952
 7298TIP3   OH243384   6.394   0.275  12.269  0.7170  0.3893 -0.0952
 7298TIP3    H143385   6.318   0.324  12.299 -0.4938 -2.9150  2.9805
 7298TIP3    H243386   6.464   0.301  12.330  0.6590 -0.0897  0.1806
 7299TIP3   OH243387   2.172   4.454  14.634  0.2741 -0.0739 -0.0340
 7299TIP3    H143388   2.159   4.361  14.619 -1.8984  0.3382 -1.1080
 7299TIP3    H243389   2.266   4.467  14.622  0.5703 -2.0529 -0.2044
 7300TIP3   OH243390   2.780   5.325  13.086 -0.1576 -0.1834 -0.1921
 7300TIP3    H143391   2.859   5.360  13.128 -0.7999  0.5024  0.4874
 7300TIP3    H243392   2.812   5.279  13.009  0.7279  2.0525 -1.2363
 7301TIP3   OH243393   0.924   3.432  14.258  1.0646 -0.1320  0.9473
 7301TIP3    H143394   0.971   3.390  14.330  0.3635  0.8022  1.9778
 7301TIP3    H243395   0.907   3.521  14.289  1.6752  0.6396 -0.7998
 7302TIP3   OH243396   3.136   4.087  14.746 -0.4306  0.1678 -0.1826
 7302TIP3    H143397   3.072   4.089  14.675 -0.3900 -0.9572 -0.2817
 7302TIP3    H243398   3.133   4.174  14.784 -1.5479  0.3348 -0.6072
 7303TIP3   OH243399   0.150   5.288  12.011  0.6655 -0.6026 -0.2935
 7303TIP3    H143400   0.238   5.324  11.995 -0.0509  2.3927  1.7252
 7303TIP3    H243401   0.144   5.282  12.106 -0.9548 -1.8914 -0.4397
 7304TIP3   OH243402   4.308   2.099  11.665 -0.0860  0.7113  0.4991
 7304TIP3    H143403   4.307   2.068  11.756 -1.1077 -2.3409 -0.4265
 7304TIP3    H243404   4.218   2.127  11.649 -0.4284 -0.6230 -0.0733
 7305TIP3   OH243405   4.919   4.400  13.784  0.3552  0.5611 -0.2488
 7305TIP3    H143406   4.851   4.458  13.819 -0.8138 -1.6188  1.3385
 7305TIP3    H243407   4.898   4.390  13.692 -0.2033  1.5656 -0.2470
 7306TIP3   OH243408   3.975   4.906   4.283 -0.6430  0.3171  0.0832
 7306TIP3    H143409   4.053   4.934   4.237 -0.3165 -1.2384 -0.3700
 7306TIP3    H243410   4.000   4.824   4.325 -2.2288 -0.6184 -0.6965
 7307TIP3   OH243411   3.259   2.842   0.159  0.8463 -0.1510 -0.1417
 7307TIP3    H143412   3.329   2.904   0.142 -0.3090  1.5895  1.0840
 7307TIP3    H243413   3.206   2.884   0.227 -0.7922 -1.8620 -0.2784
 7308TIP3   OH243414   4.945   3.662   3.398 -0.2184  0.4872  0.0313
 7308TIP3    H143415   4.980   3.608   3.468  0.2636 -0.3518 -0.8287
 7308TIP3    H243416   4.850   3.648   3.402 -0.1965  0.4564  0.5108
 7309TIP3   OH243417   2.074   5.506  10.949 -0.6563 -0.2237 -0.6758
 7309TIP3    H143418   2.023   5.437  10.908 -1.8099 -0.2549  0.7488
 7309TIP3    H243419   2.128   5.541  10.878 -1.9936 -0.7834 -2.0200
 7310TIP3   OH243420   1.409   0.767  16.340  0.1425 -0.2311 -0.0335
 7310TIP3    H143421   1.376   0.855  16.356  0.8971  0.0438  0.0335
 7310TIP3    H243422   1.425   0.765  16.245 -0.5349 -0.5316 -0.1453
 7311TIP3   OH243423   5.279   4.167   1.705  0.2053 -0.7634 -0.4479
 7311TIP3    H143424   5.274   4.093   1.644  0.5760 -0.8307 -0.3988
 7311TIP3    H243425   5.187   4.190   1.721  0.0983 -0.8396 -0.9125
 7312TIP3   OH243426   2.728   0.445  13.413 -0.2350 -0.1501  0.1242
 7312TIP3    H143427   2.718   0.505  13.339  1.0964  0.9759  0.8040
 7312TIP3    H243428   2.643   0.448  13.457 -0.6008  0.2366 -0.5835
 7313TIP3   OH243429   5.910   1.684  13.883  0.4020 -0.0459 -0.6955
 7313TIP3    H143430   5.871   1.626  13.818 -1.5450  0.0084  0.3392
 7313TIP3    H243431   5.880   1.772  13.858 -0.4246 -0.0314  0.2671
 7314TIP3   OH243432   4.939   5.043   0.534  0.3980 -0.6970  0.3789
 7314TIP3    H143433   4.923   5.064   0.626  0.5323 -0.0532  0.2642
 7314TIP3    H243434   4.977   4.955   0.535  0.8260 -0.5086  0.9771
 7315TIP3   OH243435   0.461   1.155  11.184 -0.1989 -0.2606 -0.7751
 7315TIP3    H143436   0.457   1.224  11.118 -0.1186  1.0310  0.5089
 7315TIP3    H243437   0.501   1.198  11.260  1.5810 -2.2275 -0.5161
 7316TIP3   OH243438   0.217   1.454  12.441 -0.3245  1.0578  0.2842
 7316TIP3    H143439   0.177   1.380  12.395 -0.0976  1.3872 -0.4722
 7316TIP3    H243440   0.296   1.418  12.480 -0.3808  0.8291  0.1873
 7317TIP3   OH243441   3.970   1.185   1.508  0.3833 -0.1660 -0.0967
 7317TIP3    H143442   4.017   1.168   1.426  0.3130 -0.3468 -0.0998
 7317TIP3    H243443   3.953   1.279   1.506  0.4031 -0.1643 -0.2792
 7318TIP3   OH243444   1.425   5.736   0.561 -0.0436  0.2891  0.2194
 7318TIP3    H143445   1.368   5.764   0.489  0.8858 -1.8012 -1.4004
 7318TIP3    H243446   1.365   5.694   0.623 -0.4402 -1.2613 -1.1395
 7319TIP3   OH243447   3.871   5.374   5.069  0.3863 -0.7270  0.2512
 7319TIP3    H143448   3.955   5.373   5.024  0.2425  0.5785 -0.0954
 7319TIP3    H243449   3.863   5.287   5.109  2.3958 -0.5215  1.2161
 7320TIP3   OH243450   6.447   5.187  11.360 -0.2461 -0.6569 -0.0749
 7320TIP3    H143451   6.515   5.253  11.348 -0.1246 -0.3444  1.9244
 7320TIP3    H243452   6.380   5.233  11.412  0.0673 -2.1887  1.8013
 7321TIP3   OH243453   5.438   0.038  13.859 -0.2666 -0.1162 -0.2207
 7321TIP3    H143454   5.380   0.015  13.787 -1.1727  1.3822 -0.0099
 7321TIP3    H243455   5.461   0.129  13.843  0.5427 -0.1382  0.7184
 7322TIP3   OH243456   6.406   6.272   3.198  0.2295  0.2007 -0.3285
 7322TIP3    H143457   6.421   6.256   3.105  1.9693 -0.2578 -0.0076
 7322TIP3    H243458   6.485   6.316   3.228  1.3745 -2.8758  1.6468
 7323TIP3   OH243459   1.775   3.841  15.788  0.5971  0.0001  0.4687
 7323TIP3    H143460   1.819   3.763  15.754 -0.0097  0.3362 -1.1942
 7323TIP3    H243461   1.785   3.906  15.719 -0.3956  0.8495  1.0943
 7324TIP3   OH243462   6.595   0.238   4.993 -0.3102 -0.7694 -0.2429
 7324TIP3    H143463   6.502   0.249   4.971 -0.2487  0.5583  0.0836
 7324TIP3    H243464   6.595   0.183   5.071 -0.8023 -1.1190 -0.4875
 7325TIP3   OH243465   6.495   6.474   6.420  0.2828  0.7012  0.3776
 7325TIP3    H143466   6.580   6.500   6.454  0.4395  1.3956 -0.5183
 7325TIP3    H243467   6.498   6.379   6.417  1.7346  0.7470 -1.3651
 7326TIP3   OH243468   2.768   4.688   2.421  0.7010  0.7201 -0.6726
 7326TIP3    H143469   2.789   4.667   2.512 -0.5821  1.2515 -0.2432
 7326TIP3    H243470   2.817   4.623   2.370  0.9543  0.0328  0.4129
 7327TIP3   OH243471   5.741   6.594  13.903  0.6931  0.3865 -0.2733
 7327TIP3    H143472   5.742   6.595  13.999 -1.0288 -0.1321 -0.2163
 7327TIP3    H243473   5.757   6.502  13.881 -0.5523  0.1902 -0.4138
 7328TIP3   OH243474   5.175   1.615  13.851  0.0104 -0.1098 -0.1468
 7328TIP3    H143475   5.165   1.683  13.917  0.3147 -2.1201  2.1342
 7328TIP3    H243476   5.215   1.659  13.776  0.7112  2.0835  1.4283
 7329TIP3   OH243477   6.034   0.288  10.628 -0.6069  0.5227 -0.2252
 7329TIP3    H143478   6.040   0.266  10.721  0.7837 -1.2267 -0.6828
 7329TIP3    H243479   6.004   0.208  10.585  0.7110  0.6718 -1.5046
 7330TIP3   OH243480   3.004   4.962   5.710 -0.1574  0.6399 -0.1078
 7330TIP3    H143481   3.081   4.961   5.768 -1.3720 -1.3167  1.5919
 7330TIP3    H243482   2.988   5.055   5.695  2.9319  1.1213 -1.1286
 7331TIP3   OH243483   0.143   4.923  10.902 -0.4825  0.0924 -0.2405
 7331TIP3    H143484   0.148   4.987  10.831  3.6869  0.1844 -0.0597
 7331TIP3    H243485   0.118   4.841  10.860 -1.9614  0.9339 -1.0859
 7332TIP3   OH243486   6.670   4.428   4.559  0.3715 -0.2748  0.3503
 7332TIP3    H143487   6.755   4.383   4.564 -0.1857 -1.4566 -0.4863
 7332TIP3    H243488   6.650   4.451   4.650  0.7389 -1.5883  0.7827
 7333TIP3   OH243489   3.696   1.211  14.554  0.4397 -0.5436 -0.1363
 7333TIP3    H143490   3.742   1.190  14.635 -0.7768 -1.1216  0.4289
 7333TIP3    H243491   3.644   1.133  14.535  1.2365 -0.6922 -1.8741
 7334TIP3   OH243492   0.817   6.378   6.004 -0.5445  0.8090  0.6903
 7334TIP3    H143493   0.806   6.285   6.024  3.9362 -0.2042 -0.4502
 7334TIP3    H243494   0.794   6.385   5.911 -1.9593  1.1672  1.0406
 7335TIP3   OH243495   1.889   4.475   3.622 -0.7573 -0.6471 -0.4982
 7335TIP3    H143496   1.831   4.448   3.694 -0.5582  1.1293  0.3870
 7335TIP3    H243497   1.831   4.521   3.560 -0.5956 -0.3667 -0.4457
 7336TIP3   OH243498   0.641   5.785  14.265  0.2742  0.1816 -0.2808
 7336TIP3    H143499   0.632   5.836  14.184  0.0199 -0.7837 -0.8880
 7336TIP3    H243500   0.596   5.836  14.331  0.6472  1.0868 -0.7066
 7337TIP3   OH243501   2.002   2.020  13.825  0.2678 -0.0373  0.0623
 7337TIP3    H143502   2.002   1.964  13.902  0.1451  0.6236  0.5567
 7337TIP3    H243503   2.077   1.991  13.773  0.5227 -0.2999  0.5745
 7338TIP3   OH243504   5.864   2.691  13.189 -0.2739 -0.7236 -0.2210
 7338TIP3    H143505   5.826   2.697  13.101 -0.2000 -0.6807 -0.2499
 7338TIP3    H243506   5.934   2.626  13.180  0.6493  0.2872 -0.5209
 7339TIP3   OH243507   5.512   4.821  12.779 -0.1388 -0.3776  0.6593
 7339TIP3    H143508   5.473   4.820  12.866 -1.6186 -0.5447  0.0169
 7339TIP3    H243509   5.438   4.833  12.719  0.8968  0.2280 -0.5547
 7340TIP3   OH243510   6.609   5.929   3.816 -0.2395  0.0496  0.9266
 7340TIP3    H143511   6.526   5.960   3.853 -0.6572  1.5054 -1.0678
 7340TIP3    H243512   6.586   5.848   3.769 -0.6745  0.7084 -0.0342
 7341TIP3   OH243513   3.410   1.019   5.696  0.3598  0.5812 -0.2435
 7341TIP3    H143514   3.397   0.958   5.624 -0.9977  1.2996 -0.6486
 7341TIP3    H243515   3.411   0.965   5.775 -0.4004  0.0028 -0.6301
 7342TIP3   OH243516   5.491   4.522  16.911  0.3507  0.1239 -0.1042
 7342TIP3    H143517   5.537   4.606  16.909  1.2839 -0.2984  1.8868
 7342TIP3    H243518   5.433   4.528  16.987 -0.5665 -0.5532 -0.7319
 7343TIP3   OH243519   1.648   1.557  13.641  0.4703 -0.0524  0.0901
 7343TIP3    H143520   1.659   1.534  13.733 -0.4500 -1.5664 -0.1384
 7343TIP3    H243521   1.640   1.652  13.640  0.2983 -0.0330  1.5881
 7344TIP3   OH243522   4.184   5.394  14.625  0.1418  0.0382 -0.8211
 7344TIP3    H143523   4.273   5.427  14.640 -0.0514  0.0234  0.4648
 7344TIP3    H243524   4.170   5.404  14.531  1.7452 -0.5738 -1.1463
 7345TIP3   OH243525   6.087   1.589  10.953  0.3211 -0.0502  0.1008
 7345TIP3    H143526   6.000   1.583  10.913 -0.2209  0.0441  1.2137
 7345TIP3    H243527   6.133   1.511  10.923 -1.1164 -1.5891  1.6851
 7346TIP3   OH243528   6.552   0.283  12.987  0.4090 -0.0035  0.0734
 7346TIP3    H143529   6.493   0.218  12.948 -0.0886  0.9483 -0.8007
 7346TIP3    H243530   6.581   0.242  13.068 -0.0903 -1.2186 -0.3267
 7347TIP3   OH243531   5.877   6.748  13.585  0.6952 -0.7245 -0.5205
 7347TIP3    H143532   5.829   6.775  13.664  0.5539  1.7113 -1.3811
 7347TIP3    H243533   5.813   6.698  13.534  0.1587 -0.5083 -0.0621
 7348TIP3   OH243534   4.300   1.172   1.337 -0.1499 -0.5550 -0.3996
 7348TIP3    H143535   4.258   1.102   1.286 -0.2123  0.0614 -1.2172
 7348TIP3    H243536   4.394   1.154   1.328 -0.1767 -0.7307 -0.3284
 7349TIP3   OH243537   3.165   5.824  12.093 -0.0927 -0.5241  0.3836
 7349TIP3    H143538   3.208   5.751  12.048  1.8680  0.3058  0.8044
 7349TIP3    H243539   3.147   5.887  12.023  0.2861 -0.4767  0.3221
 7350TIP3   OH243540   4.744   5.615  14.668  0.4448 -0.7160 -0.7340
 7350TIP3    H143541   4.795   5.548  14.713  2.3726  0.5205 -0.9781
 7350TIP3    H243542   4.792   5.632  14.587 -1.1355 -0.4754 -1.6827
 7351TIP3   OH243543   2.317   3.403   3.128  0.1162 -0.3379 -0.0743
 7351TIP3    H143544   2.294   3.312   3.145  0.5652 -0.5396 -0.5095
 7351TIP3    H243545   2.240   3.453   3.154  0.2711 -0.7365  1.2340
 7352TIP3   OH243546   0.508   2.849  11.172 -0.6616 -0.2235  0.6124
 7352TIP3    H143547   0.532   2.756  11.175  0.9336  0.1453  0.3055
 7352TIP3    H243548   0.521   2.874  11.081  0.5338  0.6708  0.9959
 7353TIP3   OH243549   3.570   3.578   1.408 -0.1367  0.6914 -0.2554
 7353TIP3    H143550   3.493   3.551   1.459  0.6740 -0.0221  0.6449
 7353TIP3    H243551   3.541   3.575   1.317 -0.9547 -0.3739  0.0144
 7354TIP3   OH243552   5.160   5.880  15.405  0.1664  0.5504  0.3837
 7354TIP3    H143553   5.232   5.863  15.467  1.2966 -1.5741 -1.3624
 7354TIP3    H243554   5.102   5.804  15.414 -0.7376  1.2119  0.2554
 7355TIP3   OH243555   5.661   4.143  15.524  0.1040  0.4724 -0.0390
 7355TIP3    H143556   5.587   4.097  15.486  1.4025 -1.4109 -0.4307
 7355TIP3    H243557   5.623   4.222  15.564 -1.7543  0.8391 -2.3255
 7356TIP3   OH243558   2.916   4.191   2.994 -0.4427  0.4302 -0.2931
 7356TIP3    H143559   2.949   4.272   3.033  0.9829 -1.0777  1.8516
 7356TIP3    H243560   2.935   4.123   3.059 -3.6691 -1.3424 -0.9634
 7357TIP3   OH243561   3.936   1.864   2.240  0.2533  0.0297  0.0648
 7357TIP3    H143562   3.962   1.838   2.152 -0.5462 -1.3126  0.2111
 7357TIP3    H243563   3.898   1.785   2.279 -0.3208  0.8651  1.2615
 7358TIP3   OH243564   0.474   3.366  13.767  0.3936  0.1264 -0.1298
 7358TIP3    H143565   0.450   3.318  13.688 -1.9969 -0.8691  1.1167
 7358TIP3    H243566   0.404   3.432  13.777  1.6180  1.4286  0.2257
 7359TIP3   OH243567   0.183   3.677   2.596  0.2176  0.6902  0.1507
 7359TIP3    H143568   0.152   3.623   2.668 -2.9682  1.4189 -0.5304
 7359TIP3    H243569   0.197   3.616   2.524  0.2736  0.3490  0.4478
 7360TIP3   OH243570   2.941   1.504  11.090 -0.4282  0.0464 -0.2050
 7360TIP3    H143571   2.869   1.530  11.032 -0.5101  0.8491  0.2419
 7360TIP3    H243572   2.993   1.444  11.037 -1.6542 -0.8792 -0.3941
 7361TIP3   OH243573   6.403   2.951  16.794 -0.0767 -0.1294  0.1454
 7361TIP3    H143574   6.473   2.998  16.840  1.9667 -1.0890 -1.7508
 7361TIP3    H243575   6.379   3.008  16.721 -1.5034  0.2984  0.9248
 7362TIP3   OH243576   2.271   1.213  13.502  0.3857  0.3382 -0.3854
 7362TIP3    H143577   2.262   1.227  13.407  0.8969  1.4641 -0.2838
 7362TIP3    H243578   2.359   1.177  13.512 -0.1313 -1.0048 -0.4365
 7363TIP3   OH243579   5.273   1.583  15.480  0.0140  0.1958  0.4471
 7363TIP3    H143580   5.286   1.523  15.407  0.3141 -0.9493  1.4203
 7363TIP3    H243581   5.179   1.603  15.477  0.5947  3.4771 -2.7260
 7364TIP3   OH243582   0.366   6.079   4.484 -0.1050 -0.2515 -0.6459
 7364TIP3    H143583   0.375   6.163   4.440 -1.4064 -0.4173 -1.2622
 7364TIP3    H243584   0.385   6.014   4.416 -1.1341 -0.4892 -0.7191
 7365TIP3   OH243585   1.621   5.094   2.728  0.5050 -0.2535 -0.2862
 7365TIP3    H143586   1.689   5.027   2.727 -0.3071 -1.2746  2.8208
 7365TIP3    H243587   1.646   5.153   2.799 -0.0098  1.4998 -1.4716
 7366TIP3   OH243588   6.423   5.350   5.709 -0.2399  0.4474  0.7778
 7366TIP3    H143589   6.347   5.400   5.679  0.0366  0.2337 -0.3017
 7366TIP3    H243590   6.385   5.280   5.762 -0.6530  1.5670  2.0503
 7367TIP3   OH243591   0.308   3.868   2.420  0.2824  0.3233  0.7888
 7367TIP3    H143592   0.292   3.802   2.487  0.1473  2.0860  2.5914
 7367TIP3    H243593   0.355   3.821   2.351  0.9002 -1.4767  2.3424
 7368TIP3   OH243594   1.295   4.934  16.722 -0.2297 -0.0796 -0.1019
 7368TIP3    H143595   1.230   4.909  16.656  0.4288 -0.5365 -0.5866
 7368TIP3    H243596   1.323   4.852  16.761  0.6165  0.0360 -0.4371
 7369TIP3   OH243597   3.094   3.787   5.216  0.3846 -0.1218 -0.2245
 7369TIP3    H143598   3.096   3.858   5.281 -1.3573  0.1732 -0.4556
 7369TIP3    H243599   3.076   3.708   5.267 -0.2485  0.0002 -0.2517
 7370TIP3   OH243600   0.125   3.034   4.591  0.3494 -0.0872 -0.6284
 7370TIP3    H143601   0.152   2.998   4.507  0.6706 -0.2960 -0.4353
 7370TIP3    H243602   0.042   3.079   4.572 -0.1310 -1.0395 -0.8424
 7371TIP3   OH243603   2.290   2.234  13.462 -0.0364 -0.1240 -0.4434
 7371TIP3    H143604   2.384   2.245  13.444  0.0417 -0.3287 -0.1690
 7371TIP3    H243605   2.287   2.167  13.530 -0.3273  0.6770  0.3504
 7372TIP3   OH243606   5.493   5.364  12.322  0.2810  0.3437 -0.1510
 7372TIP3    H143607   5.421   5.395  12.267  0.5426  0.6621 -0.3214
 7372TIP3    H243608   5.493   5.424  12.397  1.8886  1.9103 -1.3201
 7373TIP3   OH243609   2.328   5.513   5.047  0.0464 -0.4210 -0.3813
 7373TIP3    H143610   2.364   5.501   4.959 -0.7701  0.3578 -0.8309
 7373TIP3    H243611   2.233   5.504   5.036 -0.0825 -0.0654  0.3737
 7374TIP3   OH243612   6.097   1.994  16.030  0.3899  0.1475  0.3528
 7374TIP3    H143613   6.002   1.993  16.026  0.3972  0.0810  0.2007
 7374TIP3    H243614   6.126   1.963  15.944  0.5497 -1.0265  0.8126
 7375TIP3   OH243615   4.967   5.679   2.541  0.1273  0.0646  0.2084
 7375TIP3    H143616   4.908   5.605   2.527  0.9337 -0.5583  0.0265
 7375TIP3    H243617   5.006   5.696   2.455  0.0095  0.6532  0.2659
 7376TIP3   OH243618   4.908   2.336  12.037  0.2021  0.1739 -0.4752
 7376TIP3    H143619   4.938   2.324  11.947 -1.3343  0.3245 -1.0334
 7376TIP3    H243620   4.892   2.247  12.069 -1.9719  0.1782 -1.3582
 7377TIP3   OH243621   5.590   4.681  16.276 -0.0195 -0.2499 -0.0331
 7377TIP3    H143622   5.556   4.741  16.342  1.2487  0.4388  0.0280
 7377TIP3    H243623   5.545   4.705  16.195  1.0491  1.3615 -0.1896
 7378TIP3   OH243624   2.163   5.232  12.959  0.1170 -0.4296  0.4253
 7378TIP3    H143625   2.229   5.168  12.986  1.5769  1.2607  1.1075
 7378TIP3    H243626   2.098   5.232  13.029 -0.5194 -1.9248 -0.1236
 7379TIP3   OH243627   1.038   4.367   5.535  0.2972 -0.1250  0.4694
 7379TIP3    H143628   1.112   4.375   5.595  0.0416  1.2363  0.6177
 7379TIP3    H243629   1.066   4.301   5.471  0.6664 -1.4483  1.9164
 7380TIP3   OH243630   1.175   5.937   5.262 -0.6789  0.1672 -0.5758
 7380TIP3    H143631   1.149   5.885   5.187  0.3692  0.1754 -0.9653
 7380TIP3    H243632   1.225   6.010   5.225 -0.3360  0.2874  0.1047
 7381TIP3   OH243633   2.603   3.818   0.359  0.2597 -0.7110 -0.4991
 7381TIP3    H143634   2.657   3.893   0.383 -0.0439 -0.2581 -1.1931
 7381TIP3    H243635   2.644   3.783   0.281  0.0970 -0.9466 -0.4790
 7382TIP3   OH243636   1.633   0.242   3.480  0.6577 -0.2095  0.5092
 7382TIP3    H143637   1.546   0.265   3.515  0.9367  0.8608  0.5270
 7382TIP3    H243638   1.614   0.192   3.400  0.0228 -1.4419  1.4011
 7383TIP3   OH243639   1.979   4.452   5.799 -0.1632  0.1990  0.2676
 7383TIP3    H143640   1.999   4.427   5.889 -0.5716  1.5956  0.7764
 7383TIP3    H243641   1.889   4.425   5.786 -0.3123  0.5675  0.5081
 7384TIP3   OH243642   2.816   2.682  16.747 -0.1246 -0.2278 -0.3600
 7384TIP3    H143643   2.904   2.719  16.742 -0.2160  0.1951  0.7671
 7384TIP3    H243644   2.806   2.631  16.667  0.5947  0.9233 -1.1973
 7385TIP3   OH243645   1.150   4.404  15.814  0.0428  0.0191 -0.4054
 7385TIP3    H143646   1.142   4.363  15.900 -2.9974 -2.4788 -1.6551
 7385TIP3    H243647   1.148   4.330  15.752 -4.9415  1.6787 -2.8015
 7386TIP3   OH243648   1.093   3.778  15.538 -0.7185  0.0369 -0.2504
 7386TIP3    H143649   1.021   3.807  15.594 -0.0717  1.8888 -0.3219
 7386TIP3    H243650   1.067   3.691  15.509 -0.4886 -1.7079  4.0435
 7387TIP3   OH243651   3.886   0.882  14.968  0.3886  0.2302  0.2160
 7387TIP3    H143652   3.845   0.942  14.907  0.7168 -0.0433 -0.2762
 7387TIP3    H243653   3.912   0.937  15.042  0.9270  0.7386 -0.3465
 7388TIP3   OH243654   1.461   5.969   5.569 -0.1741 -0.9348  0.1779
 7388TIP3    H143655   1.430   6.049   5.611  0.6607 -1.1402  1.2112
 7388TIP3    H243656   1.390   5.906   5.581 -0.3696 -0.6792  0.3624
 7389TIP3   OH243657   0.007   2.553   3.337  0.1263  0.1925 -0.0272
 7389TIP3    H143658  -0.015   2.537   3.245 -0.0060  1.3637 -0.2106
 7389TIP3    H243659  -0.033   2.637   3.358 -2.1657 -1.2387  1.9140
 7390TIP3   OH243660   5.724   5.162   1.297 -0.0929 -0.3938  0.3331
 7390TIP3    H143661   5.790   5.221   1.260 -0.0921 -0.8185 -0.3592
 7390TIP3    H243662   5.641   5.199   1.268 -0.2165  0.5098  1.7399
 7391TIP3   OH243663   5.104   1.949  11.474 -0.6904  0.3128  0.4912
 7391TIP3    H143664   5.018   1.944  11.517  0.4533  0.1007  2.9705
 7391TIP3    H243665   5.130   1.858  11.462 -1.3086  0.3567 -1.4575
 7392TIP3   OH243666   3.533   3.374   3.228  0.0646  0.4839 -0.5284
 7392TIP3    H143667   3.541   3.325   3.310 -0.3732  0.9593 -0.1929
 7392TIP3    H243668   3.482   3.452   3.252  0.0269  0.6786 -1.2313
 7393TIP3   OH243669   0.215   2.262   0.664  0.8528 -0.2165 -0.2022
 7393TIP3    H143670   0.198   2.330   0.599  1.5609  0.2360  0.0631
 7393TIP3    H243671   0.149   2.195   0.648 -0.7048  1.1379  0.3932
 7394TIP3   OH243672   2.466   5.077   6.532 -0.5966  0.3193 -0.0081
 7394TIP3    H143673   2.417   5.034   6.602 -0.8326  0.2440 -0.2192
 7394TIP3    H243674   2.476   5.168   6.563 -0.9177  0.3494  0.0093
 7395TIP3   OH243675   2.554   6.295   0.494  0.3708 -0.4383 -0.0439
 7395TIP3    H143676   2.489   6.315   0.427 -1.8386 -1.0998  1.7838
 7395TIP3    H243677   2.602   6.377   0.506 -2.6260  1.3107  1.1064
 7396TIP3   OH243678   1.614   0.981   5.831 -0.0070  0.2335 -0.3603
 7396TIP3    H143679   1.667   1.011   5.757  0.7146 -0.9493 -0.3367
 7396TIP3    H243680   1.613   0.886   5.823  0.6249  0.0335  1.5070
 7397TIP3   OH243681   3.305   4.691   4.427 -0.1323 -0.1896 -0.1851
 7397TIP3    H143682   3.345   4.650   4.504 -1.8666 -1.0655  0.2978
 7397TIP3    H243683   3.322   4.630   4.355  0.1860 -0.1083 -0.1799
 7398TIP3   OH243684   1.442   6.590   2.903  0.4380  0.4339  0.0540
 7398TIP3    H143685   1.504   6.615   2.834 -1.1545  0.4280 -1.4507
 7398TIP3    H243686   1.363   6.641   2.883 -1.3309 -2.2864 -0.3358
 7399TIP3   OH243687   5.550   5.088  15.477 -0.7468 -0.0014 -0.4731
 7399TIP3    H143688   5.591   5.002  15.473 -1.0156 -0.1687  0.1444
 7399TIP3    H243689   5.583   5.126  15.559  0.3460  0.9945 -1.3532
 7400TIP3   OH243690   4.062   5.208   2.241  0.3814  0.1415  0.4573
 7400TIP3    H143691   4.024   5.287   2.281 -0.3098  1.1090 -1.9272
 7400TIP3    H243692   4.156   5.218   2.254  0.3641  1.7538 -0.3817
 7401TIP3   OH243693   5.406   0.610  14.203 -0.1431  0.3235 -0.3174
 7401TIP3    H143694   5.324   0.641  14.164 -0.6314  0.4494  0.7817
 7401TIP3    H243695   5.464   0.686  14.203 -1.2984  1.3202  2.2701
 7402TIP3   OH243696   2.626   4.314   2.001 -0.4813 -0.2741  0.7924
 7402TIP3    H143697   2.539   4.342   2.028 -0.5161 -0.0650  0.4678
 7402TIP3    H243698   2.669   4.287   2.083 -1.1149 -1.1273  0.8457
 7403TIP3   OH243699   0.031   4.709   0.120  0.4646 -0.1131 -0.1555
 7403TIP3    H143700   0.002   4.632   0.168  1.0813  0.7824  1.7288
 7403TIP3    H243701  -0.040   4.772   0.129  0.5948  0.0725 -0.4017
 7404TIP3   OH243702   4.267   6.510  16.534 -0.5249 -0.5380  0.0760
 7404TIP3    H143703   4.198   6.515  16.468 -0.9639  1.5130  0.6310
 7404TIP3    H243704   4.223   6.524  16.617  0.4476  0.0922  0.5064
 7405TIP3   OH243705   4.544   1.961  15.581 -0.0437 -0.2401 -0.2245
 7405TIP3    H143706   4.604   2.033  15.560 -1.4493  0.9654 -0.3215
 7405TIP3    H243707   4.471   2.004  15.626 -1.0463 -1.5917 -0.4972
 7406TIP3   OH243708   4.945   2.143  14.887 -0.5944 -0.0496  0.0880
 7406TIP3    H143709   4.981   2.154  14.975  1.1586 -0.5006 -0.5290
 7406TIP3    H243710   4.987   2.064  14.853 -2.4535 -0.8188 -0.5933
 7407TIP3   OH243711   1.587   1.660   4.730  0.4111 -0.1515 -0.3388
 7407TIP3    H143712   1.619   1.589   4.674 -1.8538 -1.6331  0.0855
 7407TIP3    H243713   1.598   1.739   4.678 -1.4283 -1.4388 -2.9145
 7408TIP3   OH243714   2.013   1.450  16.659  0.1689 -0.2929  0.1167
 7408TIP3    H143715   1.943   1.389  16.685  0.9108 -0.1220  2.7342
 7408TIP3    H243716   2.089   1.394  16.645  0.1710 -0.2211 -0.1602
 7409TIP3   OH243717   3.419   2.753  14.882  0.1758 -0.0686  0.8052
 7409TIP3    H143718   3.415   2.757  14.786 -0.5568  1.1972  0.8664
 7409TIP3    H243719   3.375   2.671  14.904 -0.8794  0.2885  0.1051
 7410TIP3   OH243720   6.432   0.798  11.828 -0.2666 -0.3548  0.6610
 7410TIP3    H143721   6.460   0.867  11.888  0.2031 -0.0647  0.1216
 7410TIP3    H243722   6.477   0.819  11.746 -0.9908 -0.6733  0.1766
 7411TIP3   OH243723   0.966   2.794   2.686  0.0554  0.5682 -0.3291
 7411TIP3    H143724   0.978   2.888   2.671  1.9281  0.3293 -0.6195
 7411TIP3    H243725   0.990   2.754   2.603  1.0349 -0.2560  0.3295
 7412TIP3   OH243726   4.170   1.922   0.612  0.1286 -0.1699 -0.0616
 7412TIP3    H143727   4.124   1.838   0.608 -0.4129 -0.0026  1.8413
 7412TIP3    H243728   4.104   1.987   0.589  0.4126 -0.2034 -1.0131
 7413TIP3   OH243729   4.006   0.839  16.185  0.1619 -0.7247 -0.8036
 7413TIP3    H143730   4.055   0.780  16.126  4.2621  1.1706  0.3158
 7413TIP3    H243731   3.958   0.897  16.126  2.8058  0.0317 -2.4321
 7414TIP3   OH243732   2.751   6.710   4.962 -0.3248  0.3596  0.0811
 7414TIP3    H143733   2.760   6.798   4.999 -0.8629 -0.9310  3.7354
 7414TIP3    H243734   2.660   6.705   4.933 -0.4030  0.8824  0.2185
 7415TIP3   OH243735   6.577   0.199  14.302  0.2453  0.1040 -0.1035
 7415TIP3    H143736   6.535   0.133  14.357  0.5242 -0.6595 -0.7874
 7415TIP3    H243737   6.597   0.153  14.221  0.3357  1.0683 -0.6438
 7416TIP3   OH243738   4.366   5.469  16.243 -0.2217 -0.0489 -0.4019
 7416TIP3    H143739   4.312   5.524  16.186 -0.7892  1.2290  1.2671
 7416TIP3    H243740   4.346   5.380  16.216 -1.4790  0.4702 -1.3065
 7417TIP3   OH243741   5.397   0.276   3.964  0.2476  0.0046  0.0630
 7417TIP3    H143742   5.302   0.265   3.952  0.2272 -0.0449  0.2750
 7417TIP3    H243743   5.432   0.187   3.963  0.4594  0.0757 -1.4115
 7418TIP3   OH243744   2.679   5.690   3.357  0.1378 -0.2165  0.1103
 7418TIP3    H143745   2.711   5.698   3.447  0.5814 -1.0811  0.0331
 7418TIP3    H243746   2.708   5.770   3.314 -0.4154  0.3969  0.8273
 7419TIP3   OH243747   4.047   6.007   1.121  0.4815  0.6731 -0.4453
 7419TIP3    H143748   3.973   5.992   1.061  1.1515 -0.3980 -1.0500
 7419TIP3    H243749   4.122   5.966   1.077  0.8955 -0.6556  1.3630
 7420TIP3   OH243750   4.179   3.656  15.676 -0.0331  0.0015 -0.2544
 7420TIP3    H143751   4.203   3.652  15.583 -1.6603  2.5438 -0.8869
 7420TIP3    H243752   4.205   3.744  15.702 -0.4875 -0.3564  1.4705
 7421TIP3   OH243753   1.502   5.414  17.004  0.3139 -0.4342  0.3233
 7421TIP3    H143754   1.532   5.505  17.006 -0.9104 -0.0205  0.8503
 7421TIP3    H243755   1.407   5.420  16.996  0.3206 -1.6989 -1.2564
 7422TIP3   OH243756   1.684   4.721   4.992  0.3246  0.5430  0.3439
 7422TIP3    H143757   1.720   4.725   5.081  1.0693  0.4483  0.0474
 7422TIP3    H243758   1.642   4.807   4.980  1.0720  0.9301  0.4338
 7423TIP3   OH243759   3.580   1.253   0.650  0.3422 -0.5086  0.0919
 7423TIP3    H143760   3.527   1.330   0.632  1.0477  0.2286  1.0990
 7423TIP3    H243761   3.654   1.260   0.590 -0.5041 -1.3905 -1.1129
 7424TIP3   OH243762   3.112   3.866  13.534  0.2174  0.2554 -0.0341
 7424TIP3    H143763   3.122   3.942  13.591 -1.0580  0.6407 -0.2922
 7424TIP3    H243764   3.057   3.897  13.462  1.5650 -0.2939 -1.3541
 7425TIP3   OH243765   1.152   3.687  14.715  0.5256  0.1287 -0.4179
 7425TIP3    H143766   1.244   3.703  14.736 -0.0962  2.7759  0.7330
 7425TIP3    H243767   1.124   3.767  14.671 -0.9937 -1.0826 -1.7803
 7426TIP3   OH243768   4.235   2.385   2.610 -0.2637 -0.4190  0.3599
 7426TIP3    H143769   4.229   2.471   2.568 -0.3129 -0.3196  0.5673
 7426TIP3    H243770   4.319   2.387   2.656 -0.4406 -0.3338  0.6850
 7427TIP3   OH243771   1.367   1.255  13.018 -0.0877 -0.2362  0.3474
 7427TIP3    H143772   1.414   1.282  12.939  0.1968  1.7843  1.1245
 7427TIP3    H243773   1.369   1.160  13.017  3.9598 -0.3170  0.2797
 7428TIP3   OH243774   6.543   4.925  13.153  0.1056 -0.4559 -0.4902
 7428TIP3    H143775   6.461   4.904  13.109 -0.1080  0.3251 -0.4782
 7428TIP3    H243776   6.533   5.016  13.182  1.4536  0.1296 -1.6578
 7429TIP3   OH243777   4.881   1.547   3.277 -0.3940 -0.0662  0.6478
 7429TIP3    H143778   4.938   1.556   3.201 -0.3990  0.2449  0.6814
 7429TIP3    H243779   4.870   1.452   3.288  0.2345 -0.1328  0.7276
 7430TIP3   OH243780   2.066   5.459  16.237  0.1893 -0.2766  0.1720
 7430TIP3    H143781   2.033   5.370  16.224  0.7195 -0.5057  0.3778
 7430TIP3    H243782   2.073   5.495  16.149 -1.3690  0.0600  0.1626
 7431TIP3   OH243783   3.168   4.613  15.105  0.2502 -0.3171 -0.0385
 7431TIP3    H143784   3.256   4.651  15.095  1.2205 -2.0924  1.1025
 7431TIP3    H243785   3.171   4.532  15.054 -0.3903 -0.8756  0.7759
 7432TIP3   OH243786   4.471   2.937  15.633 -0.2637 -0.2929  0.6936
 7432TIP3    H143787   4.439   2.933  15.543  0.6802 -2.7345  0.4128
 7432TIP3    H243788   4.404   2.891  15.685 -0.5759  0.6977  1.2072
 7433TIP3   OH243789   6.729   1.794  14.857 -0.3183  0.0542  0.0368
 7433TIP3    H143790   6.725   1.698  14.855  3.1091 -0.1805 -0.1917
 7433TIP3    H243791   6.708   1.816  14.947 -2.0040 -0.7963 -0.1017
 7434TIP3   OH243792   3.453   3.748  15.312 -0.3477 -0.0211  0.2315
 7434TIP3    H143793   3.524   3.796  15.270  0.1279 -0.4762  0.5085
 7434TIP3    H243794   3.424   3.685  15.247  0.9430 -1.2925  0.8423
 7435TIP3   OH243795   1.065   4.148  13.618 -0.4419 -0.4481  0.0653
 7435TIP3    H143796   1.103   4.134  13.531 -0.1847  0.1119  0.0847
 7435TIP3    H243797   0.999   4.079  13.627 -0.4983 -0.4811 -0.5925
 7436TIP3   OH243798   1.467   2.385  12.914  0.8050 -0.5066 -0.2954
 7436TIP3    H143799   1.401   2.321  12.939 -0.3825  0.5480 -0.6670
 7436TIP3    H243800   1.520   2.397  12.993  1.6915 -2.6376 -0.4864
 7437TIP3   OH243801   0.905   1.771  12.676  0.2505 -0.4103  0.7248
 7437TIP3    H143802   0.812   1.770  12.698  0.2015 -1.3788  0.5242
 7437TIP3    H243803   0.949   1.778  12.760 -0.0002  0.3760  0.7992
 7438TIP3   OH243804   5.599   4.242  16.472  0.6335  0.1023  0.2315
 7438TIP3    H143805   5.657   4.302  16.425  0.7993 -0.2267  0.0032
 7438TIP3    H243806   5.616   4.259  16.564  1.5422 -0.3936  0.1710
 7439TIP3   OH243807   0.920   6.564   3.477 -0.7836 -0.8339  0.5025
 7439TIP3    H143808   0.996   6.574   3.535  0.9942 -0.6398 -1.7074
 7439TIP3    H243809   0.890   6.653   3.460 -1.7232 -0.9201  1.5529
 7440TIP3   OH243810   0.188   1.313  16.742  0.2083  0.9494  0.3207
 7440TIP3    H143811   0.284   1.315  16.735  0.2377  3.1122  0.7213
 7440TIP3    H243812   0.165   1.397  16.780 -1.9645  1.0984 -1.1424
 7441TIP3   OH243813   0.028   2.252  16.213 -0.0928 -0.6910  0.1575
 7441TIP3    H143814   0.079   2.294  16.144 -0.6810  0.6191  0.4862
 7441TIP3    H243815  -0.049   2.216  16.169  0.3085 -1.2504 -0.0951
 7442TIP3   OH243816   1.418   5.357  16.364  0.0215 -0.0160 -0.6987
 7442TIP3    H143817   1.334   5.401  16.351 -0.4448 -0.4168  0.8489
 7442TIP3    H243818   1.420   5.334  16.456  1.8889  0.0762 -0.6729
 7443TIP3   OH243819   1.479   5.794  16.572 -0.5816 -0.1117 -0.3813
 7443TIP3    H143820   1.506   5.732  16.639  0.7995 -0.4329 -1.1996
 7443TIP3    H243821   1.406   5.842  16.612 -0.5472 -1.0757  0.9004
 7444TIP3   OH243822   6.137   3.821  16.610 -0.0353 -0.1565 -0.0678
 7444TIP3    H143823   6.189   3.869  16.546  1.1280  0.0354  0.9680
 7444TIP3    H243824   6.200   3.765  16.655 -1.1556 -1.7245 -0.3716
 7445TIP3   OH243825   5.055   1.685   4.726  0.6661  0.1385 -0.0493
 7445TIP3    H143826   5.056   1.679   4.822  0.5516 -1.2704 -0.1019
 7445TIP3    H243827   4.985   1.625   4.700  1.1212  0.0205 -1.0355
 7446TIP3   OH243828   6.671   1.111   1.347 -0.2152 -0.5438  0.4137
 7446TIP3    H143829   6.598   1.120   1.408  1.0581  3.9323  1.7154
 7446TIP3    H243830   6.747   1.145   1.395  1.7541 -0.6813 -2.3170
 7447TIP3   OH243831   2.746   5.267  11.901  0.3934  0.6379 -0.1178
 7447TIP3    H143832   2.683   5.199  11.879  1.6622 -1.0378  1.1084
 7447TIP3    H243833   2.823   5.247  11.848  1.4789 -0.1243  1.6372
 7448TIP3   OH243834   3.719   5.436   6.429 -0.0420  0.5993 -0.5566
 7448TIP3    H143835   3.674   5.512   6.466 -0.0598  0.3056  0.0339
 7448TIP3    H243836   3.809   5.465   6.417 -0.2435  0.9896 -1.1489
 7449TIP3   OH243837   1.310   3.155  11.166  0.1993  0.3379 -0.1773
 7449TIP3    H143838   1.400   3.174  11.139  0.5370  0.4388  0.9486
 7449TIP3    H243839   1.259   3.230  11.135  0.5353  0.3723 -0.6567
 7450TIP3   OH243840   6.393   5.966   5.005  0.3246  0.7730 -0.2712
 7450TIP3    H143841   6.375   6.001   4.918 -0.0153  0.3366 -0.3810
 7450TIP3    H243842   6.419   5.875   4.989 -2.2764 -0.1653  0.2215
 7451TIP3   OH243843   0.984   0.943  11.503  0.3556 -0.1356  0.1948
 7451TIP3    H143844   0.898   0.952  11.543  0.9232  1.9524  1.0873
 7451TIP3    H243845   0.985   1.007  11.432  0.9940 -0.5087 -0.1434
 7452TIP3   OH243846   1.447   0.596   0.423  0.6819  0.0919  0.1505
 7452TIP3    H143847   1.462   0.513   0.379 -1.2302  0.3310 -1.0835
 7452TIP3    H243848   1.509   0.596   0.496  0.5419 -2.5306  0.3742
 7453TIP3   OH243849   2.984   5.729   3.004 -0.1707 -0.0376 -0.4774
 7453TIP3    H143850   2.966   5.652   3.058  0.0960 -1.2605 -2.0563
 7453TIP3    H243851   3.046   5.699   2.938  0.9791  1.8954 -0.3558
 7454TIP3   OH243852   4.859   5.117   4.188  0.2546 -0.4195 -0.4640
 7454TIP3    H143853   4.861   5.091   4.280  0.1847  1.5677  0.1584
 7454TIP3    H243854   4.914   5.053   4.143 -0.6929 -2.1531  0.7291
 7455TIP3   OH243855   4.158   1.534   3.369  0.3357 -0.5238  0.3565
 7455TIP3    H143856   4.068   1.534   3.335  0.3590  2.0076  0.1265
 7455TIP3    H243857   4.192   1.621   3.347  2.0154 -0.5261  2.6251
 7456TIP3   OH243858   2.877   0.042   4.495  0.2789  0.1014 -0.2163
 7456TIP3    H143859   2.798   0.022   4.446  0.5426  0.8701 -0.9667
 7456TIP3    H243860   2.949   0.012   4.439  0.6166  1.8065 -0.7372
 7457TIP3   OH243861   6.179   5.303  13.607  0.1916  0.4107 -0.8152
 7457TIP3    H143862   6.192   5.217  13.647 -0.7289 -0.4068 -2.1841
 7457TIP3    H243863   6.256   5.315  13.550  0.7273  0.8843 -0.0159
 7458TIP3   OH243864   2.401   4.654   3.378 -0.0815 -0.1222  0.6535
 7458TIP3    H143865   2.390   4.720   3.446 -1.2517  1.2451 -0.8026
 7458TIP3    H243866   2.314   4.642   3.341  0.8326  0.7329 -1.9957
 7459TIP3   OH243867   5.453   4.951   1.741 -0.1283 -0.1757  0.0350
 7459TIP3    H143868   5.375   4.980   1.788  0.4955  0.9869  0.4000
 7459TIP3    H243869   5.428   4.955   1.649 -1.0128 -1.4238  0.1979
 7460TIP3   OH243870   1.992   1.786   2.370  0.1298 -0.3180 -0.2843
 7460TIP3    H143871   1.986   1.881   2.355 -0.2452 -0.4652 -1.0981
 7460TIP3    H243872   2.084   1.773   2.395 -0.0215  0.3694  0.6754
 7461TIP3   OH243873   5.198   6.239   1.196 -0.9496 -0.6099 -0.4321
 7461TIP3    H143874   5.131   6.293   1.153  2.2821  4.2165 -0.1777
 7461TIP3    H243875   5.272   6.240   1.136  0.6745 -1.2174  1.4367
 7462TIP3   OH243876   2.843   2.934  16.527 -0.4997  0.3680  0.1646
 7462TIP3    H143877   2.795   2.852  16.539 -0.7194  0.4606 -0.0984
 7462TIP3    H243878   2.920   2.909  16.476 -1.5786  0.6614 -1.7036
 7463TIP3   OH243879   2.197   0.597   5.502 -0.0815 -0.7277  0.3367
 7463TIP3    H143880   2.136   0.652   5.551 -1.0551 -2.2021  0.8359
 7463TIP3    H243881   2.266   0.657   5.474 -0.6250  0.5609  1.6464
 7464TIP3   OH243882   0.245   2.330  16.049  0.6412  0.1017 -0.7723
 7464TIP3    H143883   0.312   2.394  16.024 -0.1914  0.9450 -0.9194
 7464TIP3    H243884   0.194   2.317  15.969  0.1426  0.0888 -0.4548
 7465TIP3   OH243885   3.468   0.153  12.507  0.2647 -0.6011  0.1162
 7465TIP3    H143886   3.462   0.068  12.549 -0.0079 -0.6865 -0.0952
 7465TIP3    H243887   3.406   0.149  12.434  1.4286 -0.8047 -0.8968
 7466TIP3   OH243888   0.275   1.651   3.680 -0.0148 -0.2596 -0.3530
 7466TIP3    H143889   0.315   1.613   3.601 -0.2956  0.7829 -1.0207
 7466TIP3    H243890   0.186   1.673   3.652  0.3094  1.3730 -0.1511
 7467TIP3   OH243891   1.315   2.965  13.455 -0.3390 -0.4997  0.0562
 7467TIP3    H143892   1.350   2.941  13.541 -1.0069 -0.5855  0.3136
 7467TIP3    H243893   1.234   3.012  13.475  0.6891  1.6178 -0.4351
 7468TIP3   OH243894   5.391   3.636  12.686  0.2922 -0.1897  0.0896
 7468TIP3    H143895   5.388   3.724  12.648  0.1563 -0.2865 -0.1229
 7468TIP3    H243896   5.319   3.634  12.749  0.2368 -0.1833  0.0253
 7469TIP3   OH243897   1.529   5.661   5.615 -0.5887  0.0112 -0.3525
 7469TIP3    H143898   1.511   5.724   5.685 -2.5041  0.6697 -1.3695
 7469TIP3    H243899   1.454   5.667   5.557 -0.6672 -2.9687 -0.7227
 7470TIP3   OH243900   5.805   0.316  17.023  0.1909 -0.6086 -0.5713
 7470TIP3    H143901   5.748   0.350  17.093  0.3865 -1.6518  0.1240
 7470TIP3    H243902   5.823   0.392  16.968  0.1716  0.2953  0.6142
 7471TIP3   OH243903   1.431   0.991  12.314  0.3160 -0.1922 -0.0224
 7471TIP3    H143904   1.479   0.912  12.290 -1.6456 -1.2756 -0.5761
 7471TIP3    H243905   1.425   1.041  12.232  0.3086 -0.1609 -0.0028
 7472TIP3   OH243906   3.143   5.822  12.752  0.0647 -0.4388  0.3737
 7472TIP3    H143907   3.131   5.882  12.680 -0.1829  0.9452  1.5246
 7472TIP3    H243908   3.238   5.809  12.758  0.0992 -0.3716 -0.0460
 7473TIP3   OH243909   2.781   3.493  13.612  0.0542  0.3581 -0.3008
 7473TIP3    H143910   2.809   3.484  13.703  1.6143  0.3702 -0.7396
 7473TIP3    H243911   2.862   3.510  13.564 -0.8275  1.0636 -1.6046
 7474TIP3   OH243912   1.464   4.759   3.200 -0.1065  0.1619 -0.0511
 7474TIP3    H143913   1.398   4.799   3.256  0.1212 -0.4940  0.7168
 7474TIP3    H243914   1.537   4.740   3.260  0.4357  0.1090 -0.7185
 7475TIP3   OH243915   3.504   3.970   5.168 -0.0730  0.3661  0.2874
 7475TIP3    H143916   3.472   4.031   5.234  1.0046  1.2815 -0.0007
 7475TIP3    H243917   3.470   4.004   5.085 -0.6303 -0.2416  0.2533
 7476TIP3   OH243918   4.165   4.087   4.152 -0.1504 -0.1004  0.2302
 7476TIP3    H143919   4.192   4.178   4.161  1.3415 -0.3729 -1.1342
 7476TIP3    H243920   4.189   4.046   4.235  0.5060  0.4233  0.3017
 7477TIP3   OH243921   2.231   3.274  13.211 -0.6020 -0.0333  0.6415
 7477TIP3    H143922   2.223   3.182  13.236 -0.9920 -0.4268 -0.8174
 7477TIP3    H243923   2.303   3.307  13.265 -0.1035 -1.3298  0.8172
 7478TIP3   OH243924   0.912   1.456  15.281 -0.6217 -0.2051  0.4062
 7478TIP3    H143925   0.910   1.418  15.369  2.0119 -1.8225 -0.1103
 7478TIP3    H243926   0.998   1.431  15.246 -1.2351  1.1076 -2.3235
 7479TIP3   OH243927   4.991   6.600  10.901  0.1144 -0.0959  0.1962
 7479TIP3    H143928   5.067   6.636  10.856  1.4408 -1.6641  1.0806
 7479TIP3    H243929   4.950   6.675  10.943  1.6774  0.6613  0.4261
 7480TIP3   OH243930   6.097   0.510   4.428  0.0284 -0.3826 -0.6612
 7480TIP3    H143931   6.109   0.541   4.338  0.8399  0.9761 -0.1084
 7480TIP3    H243932   6.171   0.546   4.476 -0.8287 -0.4191  0.7247
 7481TIP3   OH243933   1.079   5.583  15.795 -0.0229  0.3091 -0.3008
 7481TIP3    H143934   1.093   5.676  15.810 -0.5155  0.2596  0.5028
 7481TIP3    H243935   1.166   5.544  15.802 -0.1704  0.2644  2.7767
 7482TIP3   OH243936   4.174   1.250   0.505 -0.4047  0.5859 -0.3690
 7482TIP3    H143937   4.174   1.252   0.601  1.8199 -1.3058 -0.2264
 7482TIP3    H243938   4.236   1.319   0.480 -0.3797  0.5451 -0.4179
 7483TIP3   OH243939   0.215   5.525   5.412  0.1775  0.4230 -0.0203
 7483TIP3    H143940   0.234   5.591   5.478 -0.0374 -0.4784  0.9749
 7483TIP3    H243941   0.123   5.539   5.389 -0.2913 -0.4238  1.2597
 7484TIP3   OH243942   4.449   3.130   5.666 -0.4445  0.1148  0.1295
 7484TIP3    H143943   4.439   3.155   5.758  0.3704 -0.3000  0.3381
 7484TIP3    H243944   4.422   3.208   5.618 -2.8948 -0.3186  0.6406
 7485TIP3   OH243945   2.483   4.034  12.390 -0.2620  0.1779  0.3993
 7485TIP3    H143946   2.439   3.970  12.447  1.7545 -2.1833 -0.5076
 7485TIP3    H243947   2.439   4.024  12.305  1.8668 -2.3072 -0.5555
 7486TIP3   OH243948   0.692   0.339   0.081 -0.0927  0.0273  0.4133
 7486TIP3    H143949   0.692   0.287   0.001  1.5116  1.0491 -0.3057
 7486TIP3    H243950   0.673   0.277   0.151  0.0535 -1.1719 -0.5894
 7487TIP3   OH243951   0.389   6.022  15.434 -0.4854  0.1942 -0.2369
 7487TIP3    H143952   0.306   6.027  15.387 -0.3887  1.9445 -0.2734
 7487TIP3    H243953   0.445   6.086  15.391  0.0357  0.9003  1.3882
 7488TIP3   OH243954   4.240   1.105   5.544 -0.1783  0.3552  0.4381
 7488TIP3    H143955   4.285   1.189   5.543  0.1524  0.2126  1.8970
 7488TIP3    H243956   4.147   1.128   5.554 -0.2420  0.5771 -0.5504
 7489TIP3   OH243957   4.186   1.705  15.976 -0.1175 -0.1314 -0.9287
 7489TIP3    H143958   4.133   1.760  16.035  0.1136 -0.6742 -0.1971
 7489TIP3    H243959   4.260   1.677  16.030 -0.2347 -1.1582 -1.2789
 7490TIP3   OH243960   5.089   0.627   0.197 -0.2257  0.2896 -0.0624
 7490TIP3    H143961   5.053   0.689   0.261 -0.5675 -0.9803  1.0149
 7490TIP3    H243962   5.073   0.541   0.235  0.5867 -0.4641 -1.3464
 7491TIP3   OH243963   1.419   5.790  12.507  0.6449 -1.0553 -0.4936
 7491TIP3    H143964   1.409   5.882  12.483  1.1888 -0.8474  0.0604
 7491TIP3    H243965   1.485   5.756  12.446  1.3681 -0.7558  0.1189
 7492TIP3   OH243966   6.720   0.878  17.085 -0.3655  0.1376  0.1612
 7492TIP3    H143967   6.725   0.822  17.163  0.7115  0.0883  0.0734
 7492TIP3    H243968   6.688   0.820  17.016 -3.3059  0.6384  0.9420
 7493TIP3   OH243969   3.501   3.994   1.385  0.2262  0.0720  0.2444
 7493TIP3    H143970   3.418   3.947   1.392 -0.6444  1.0826 -2.1851
 7493TIP3    H243971   3.476   4.087   1.383  1.3963  0.4039 -0.4533
 7494TIP3   OH243972   5.138   4.345   3.446 -0.4092 -0.1786 -0.1900
 7494TIP3    H143973   5.181   4.407   3.386 -1.4265  0.1395 -0.6044
 7494TIP3    H243974   5.124   4.267   3.393 -0.9074 -0.0563 -0.2406
 7495TIP3   OH243975   4.461   4.526  16.542 -0.3657 -0.1659 -0.1549
 7495TIP3    H143976   4.461   4.607  16.592  1.1923 -0.4909  0.4210
 7495TIP3    H243977   4.448   4.554  16.451 -0.5065  0.6638  0.1121
 7496TIP3   OH243978   1.630   3.681   2.970  0.1609 -0.0008  0.0790
 7496TIP3    H143979   1.654   3.749   2.906 -0.2817  0.6907  0.6306
 7496TIP3    H243980   1.609   3.604   2.916 -0.7765  0.7380 -0.6671
 7497TIP3   OH243981   5.850   3.595   1.038 -0.3666  0.3295  0.1731
 7497TIP3    H143982   5.768   3.547   1.023 -1.8062  2.3861  1.0081
 7497TIP3    H243983   5.882   3.559   1.121 -0.5930 -0.2514  0.0194
 7498TIP3   OH243984   2.619   1.823  15.670  0.3981 -0.1100  0.3125
 7498TIP3    H143985   2.549   1.778  15.622  0.2119  0.6678 -0.1666
 7498TIP3    H243986   2.665   1.753  15.717  0.2972 -0.8416 -0.6424
 7499TIP3   OH243987   0.650   6.457  15.932 -0.0734 -0.5055 -0.0635
 7499TIP3    H143988   0.626   6.380  15.880 -1.4992 -0.5011  0.5428
 7499TIP3    H243989   0.600   6.528  15.892  1.5161  0.2045 -0.8500
 7500TIP3   OH243990   2.710   5.818  15.166  0.3719 -0.5368  0.0679
 7500TIP3    H143991   2.710   5.841  15.073  2.9961 -0.2163  0.0781
 7500TIP3    H243992   2.766   5.740  15.172 -0.0271 -0.7573  1.3538
 7501TIP3   OH243993   3.283   6.472  14.635  0.3629 -0.0783 -0.1670
 7501TIP3    H143994   3.304   6.396  14.689  1.7548  0.3023 -0.1312
 7501TIP3    H243995   3.222   6.438  14.569 -0.8945 -0.6741  1.2412
 7502TIP3   OH243996   5.412   5.974  17.002 -0.2587 -0.4521 -0.2298
 7502TIP3    H143997   5.490   5.942  17.047  0.6554  1.5288 -0.2948
 7502TIP3    H243998   5.365   5.895  16.975  1.8928 -1.6951 -0.4869
 7503TIP3   OH243999   0.098   1.223  12.297 -0.2388 -0.1184 -0.5881
 7503TIP3    H144000   0.181   1.180  12.275 -0.2342 -0.1056 -0.5954
 7503TIP3    H244001   0.075   1.186  12.383  0.1711  0.4654 -0.2224
 7504TIP3   OH244002   4.793   6.675  14.964  0.1801  0.7918 -0.2139
 7504TIP3    H144003   4.823   6.686  14.874  0.2016  1.1890 -0.1575
 7504TIP3    H244004   4.699   6.660  14.956  0.4884 -1.3043 -0.4530
 7505TIP3   OH244005   6.482   3.664  16.055 -0.1871  0.0882  0.4082
 7505TIP3    H144006   6.470   3.744  16.005 -1.3283 -0.3883 -0.1093
 7505TIP3    H244007   6.409   3.661  16.116 -1.1403 -1.3492 -0.7179
 7506TIP3   OH244008   4.892   4.519   5.484 -0.3351  0.2089 -0.5200
 7506TIP3    H144009   4.919   4.505   5.393 -0.0591  2.0309 -0.7508
 7506TIP3    H244010   4.940   4.452   5.534 -1.4887 -1.6664 -1.8198
 7507TIP3   OH244011   4.526   0.313  12.462 -0.0944  0.2557  0.1408
 7507TIP3    H144012   4.448   0.363  12.487 -0.2554 -0.5025  1.2308
 7507TIP3    H244013   4.599   0.366  12.493 -0.0403  1.7531 -2.2714
 7508TIP3   OH244014   6.365   6.666  16.919 -0.5899  0.3464  0.1743
 7508TIP3    H144015   6.452   6.630  16.902 -0.1062  0.3702  2.3457
 7508TIP3    H244016   6.306   6.605  16.874  0.5081  0.4960 -1.5883
 7509TIP3   OH244017   6.430   2.226   5.656  0.2751 -0.0774 -0.1539
 7509TIP3    H144018   6.420   2.144   5.608 -0.3834 -0.3159  0.3759
 7509TIP3    H244019   6.375   2.216   5.733  1.8020  0.0317  1.0130
 7510TIP3   OH244020   1.968   4.691   2.314  0.0275  0.8453  0.5125
 7510TIP3    H144021   1.957   4.635   2.237 -0.8208 -1.0775  1.9433
 7510TIP3    H244022   2.062   4.693   2.330  0.3854  2.5315 -1.3869
 7511TIP3   OH244023   4.305   4.540  11.150  0.3356 -0.4997 -0.2284
 7511TIP3    H144024   4.354   4.576  11.076 -0.4075 -0.5593 -0.7577
 7511TIP3    H244025   4.282   4.451  11.123  0.2321 -0.5910  0.1530
 7512TIP3   OH244026   5.573   3.564   2.171  0.5112  0.3286 -0.1106
 7512TIP3    H144027   5.597   3.513   2.249 -0.1646  1.9879  1.2486
 7512TIP3    H244028   5.636   3.635   2.168  0.0850  0.6908 -0.6625
 7513TIP3   OH244029   1.991   6.447   5.391  0.0128  0.1484  0.0800
 7513TIP3    H144030   1.956   6.487   5.311  0.3001  0.5794  0.1686
 7513TIP3    H244031   2.083   6.473   5.393  0.6572 -1.8592 -0.7033
 7514TIP3   OH244032   4.632   4.904   4.609  0.2472  0.3577  0.3083
 7514TIP3    H144033   4.552   4.926   4.658  0.6671  2.8606 -0.0162
 7514TIP3    H244034   4.693   4.872   4.676 -0.6323 -0.5610  0.7089
 7515TIP3   OH244035   5.422   0.533   4.016 -0.3297 -0.0057 -0.2151
 7515TIP3    H144036   5.418   0.438   4.020 -2.0839  0.0071 -0.7745
 7515TIP3    H244037   5.331   0.561   4.010  0.1412  1.7233  0.0059
 7516TIP3   OH244038   5.052   2.388   4.946 -0.4174 -0.2836  0.1527
 7516TIP3    H144039   5.083   2.324   4.882 -1.2413 -0.8258  0.2877
 7516TIP3    H244040   4.966   2.414   4.914  0.0120  0.9732 -0.0436
 7517TIP3   OH244041   3.760   1.234   4.506  0.0226 -0.0885  0.0095
 7517TIP3    H144042   3.816   1.292   4.558  1.0645 -0.7768 -0.3187
 7517TIP3    H244043   3.817   1.201   4.438 -0.3706 -2.0097  0.5655
 7518TIP3   OH244044   2.286   6.612  14.489 -0.4723 -0.0369 -0.1340
 7518TIP3    H144045   2.300   6.518  14.501 -2.5734 -0.3940  0.0070
 7518TIP3    H244046   2.372   6.647  14.469  0.5727 -1.8165  0.9504
 7519TIP3   OH244047   2.008   5.365  14.800  0.0036 -0.4835  0.2392
 7519TIP3    H144048   1.983   5.391  14.889  0.0363  1.4966 -0.2738
 7519TIP3    H244049   1.930   5.381  14.748  0.0212 -1.5281 -0.1127
 7520TIP3   OH244050   6.254   0.592   3.053  0.2539  0.0133 -0.1886
 7520TIP3    H144051   6.281   0.590   2.961  1.6467 -0.5605  0.2105
 7520TIP3    H244052   6.259   0.501   3.081 -0.1403  0.1881  0.4753
 7521TIP3   OH244053   2.476   2.263   2.710  0.5120 -0.5305  0.1349
 7521TIP3    H144054   2.418   2.187   2.713  0.7192 -0.6812  0.4076
 7521TIP3    H244055   2.473   2.292   2.619  0.5261 -0.9416  0.0006
 7522TIP3   OH244056   1.298   1.551   3.964 -0.1928  0.4050 -0.3940
 7522TIP3    H144057   1.273   1.635   3.927 -0.4282 -0.0044 -1.1866
 7522TIP3    H244058   1.393   1.557   3.975 -0.1032  0.5146 -1.1542
 7523TIP3   OH244059   1.228   0.532  12.814  0.2000 -0.2571  0.1561
 7523TIP3    H144060   1.232   0.628  12.824 -1.6395 -0.0297 -0.9416
 7523TIP3    H244061   1.196   0.518  12.725  0.8459 -1.9258  0.1544
 7524TIP3   OH244062   2.811   0.056   2.908 -0.3556 -0.4472  0.4526
 7524TIP3    H144063   2.901   0.024   2.915  0.6899  2.3653  1.2873
 7524TIP3    H244064   2.815   0.125   2.841 -1.6602  0.3548  1.1580
 7525TIP3   OH244065   5.237   6.644   1.132  0.3035  0.6882  0.1115
 7525TIP3    H144066   5.178   6.628   1.058  1.3491  0.3198 -0.6620
 7525TIP3    H244067   5.179   6.669   1.204 -0.9717 -1.5050 -0.0696
 7526TIP3   OH244068   3.873   3.547  12.929 -1.0268 -0.1531 -0.0585
 7526TIP3    H144069   3.893   3.596  12.849 -1.1999 -2.2331 -1.4544
 7526TIP3    H244070   3.848   3.614  12.992  1.5588  1.8013 -0.9268
 7527TIP3   OH244071   2.026   1.501  11.980 -0.1212 -0.1112 -0.7003
 7527TIP3    H144072   2.045   1.409  12.000 -0.9689 -0.1620 -0.1075
 7527TIP3    H244073   1.981   1.498  11.896 -0.0302 -0.2196 -0.7452
 7528TIP3   OH244074   0.131   0.432   1.721  0.2920 -0.1325  0.0659
 7528TIP3    H144075   0.142   0.419   1.815 -0.6180  0.4150  0.2581
 7528TIP3    H244076   0.084   0.515   1.713  2.5428  1.1509 -0.9697
 7529TIP3   OH244077   6.631   4.884   4.074 -0.4282  0.1871  0.5884
 7529TIP3    H144078   6.651   4.912   4.163 -0.6759  0.2585  0.6218
 7529TIP3    H244079   6.611   4.791   4.083 -1.3095  0.3846  0.7431
 7530TIP3   OH244080   3.193   1.931  10.465 -0.2831 -0.3790 -0.6158
 7530TIP3    H144081   3.143   1.943  10.384  0.0527  0.4012 -0.7137
 7530TIP3    H244082   3.129   1.945  10.534  0.0098  1.8466 -0.7220
 7531TIP3   OH244083   2.945   1.800   2.355 -0.0050  0.5247  0.0003
 7531TIP3    H144084   2.963   1.740   2.427 -1.5707  0.6130  0.5111
 7531TIP3    H244085   3.031   1.835   2.331  0.9770 -1.9725 -0.4082
 7532TIP3   OH244086   1.345   0.298   4.519  0.2636 -0.1811  0.1036
 7532TIP3    H144087   1.270   0.278   4.576  0.8503  0.4255  1.1106
 7532TIP3    H244088   1.360   0.392   4.532  1.4823 -0.3927  0.2658
 7533TIP3   OH244089   6.224   1.162  15.875 -0.0937  0.1057  0.6601
 7533TIP3    H144090   6.193   1.199  15.792  1.3145  2.9759  1.2896
 7533TIP3    H244091   6.179   1.213  15.943 -1.9478 -2.8105  1.8232
 7534TIP3   OH244092   4.134   6.064  10.956  0.7718 -0.1431 -0.4411
 7534TIP3    H144093   4.156   5.999  10.889 -0.6789 -2.8233  1.4856
 7534TIP3    H244094   4.039   6.059  10.964  0.7858  1.0841  0.9144
 7535TIP3   OH244095   0.283   5.720   5.593  0.0542  0.0496  0.1133
 7535TIP3    H144096   0.370   5.742   5.629  0.8390 -1.5987 -0.6801
 7535TIP3    H244097   0.249   5.803   5.560  1.5783  0.6430 -0.0463
 7536TIP3   OH244098   3.979   3.921   3.547 -0.7270  0.6683  0.0272
 7536TIP3    H144099   4.046   3.858   3.519  0.5456  1.3147  1.4698
 7536TIP3    H244100   4.002   4.002   3.503 -1.2464  0.6198 -0.3462
 7537TIP3   OH244101   1.085   0.289  13.423 -0.2732  0.5780  0.0211
 7537TIP3    H144102   1.007   0.236  13.410  0.0125 -0.1529  1.0741
 7537TIP3    H244103   1.055   0.363  13.476 -0.1201 -0.1520  1.1709
 7538TIP3   OH244104   0.145   4.017   4.157  0.0404 -0.2380  0.5719
 7538TIP3    H144105   0.187   4.089   4.205  0.9551 -0.5940  0.3328
 7538TIP3    H244106   0.216   3.978   4.107 -0.6315 -0.7547  0.0123
 7539TIP3   OH244107   1.776   2.260   1.000 -0.0439  0.2205 -0.2202
 7539TIP3    H144108   1.787   2.273   0.906  2.0082  0.5778  0.0256
 7539TIP3    H244109   1.794   2.167   1.014 -2.0013 -0.2187 -0.3512
 7540TIP3   OH244110   6.361   3.175  14.126 -0.5851  0.2222  0.3232
 7540TIP3    H144111   6.436   3.230  14.104 -0.2381 -0.7169 -1.0462
 7540TIP3    H244112   6.360   3.171  14.221  0.6058  0.9271  0.3819
 7541TIP3   OH244113   4.159   1.462  17.110  0.2704 -0.5219 -0.2922
 7541TIP3    H144114   4.090   1.397  17.099 -0.9518  0.8289 -0.9459
 7541TIP3    H244115   4.151   1.518  17.033  0.7308  0.8924  0.6629
 7542TIP3   OH244116   4.143   6.349  15.242  0.3035  0.2483  0.3738
 7542TIP3    H144117   4.177   6.264  15.271 -0.6192 -0.8195 -1.4515
 7542TIP3    H244118   4.208   6.380  15.179 -0.0342  0.2000 -0.0058
 7543TIP3   OH244119   6.154   5.839   4.657 -0.1972  0.0238  0.5405
 7543TIP3    H144120   6.119   5.808   4.741 -1.1576 -0.0916  0.1112
 7543TIP3    H244121   6.174   5.759   4.608 -0.0947  0.0903  0.4725
 7544TIP3   OH244122   3.428   4.408  15.264  0.2677  0.3615 -0.2102
 7544TIP3    H144123   3.434   4.456  15.181  1.6980 -0.0453 -0.3741
 7544TIP3    H244124   3.518   4.398  15.293 -0.0730 -1.0738  0.4855
 7545TIP3   OH244125   2.721   1.789   1.200  0.1780  0.7586  0.2173
 7545TIP3    H144126   2.753   1.703   1.176 -0.8208  0.7899 -1.3980
 7545TIP3    H244127   2.646   1.772   1.257  0.5407  0.5964  0.6518
 7546TIP3   OH244128   6.211   6.281  14.914  0.0961  0.4766  0.7822
 7546TIP3    H144129   6.155   6.326  14.850 -0.2958 -0.4492  0.4561
 7546TIP3    H244130   6.169   6.296  14.998  0.0062  0.7695  0.6864
 7547TIP3   OH244131   0.165   4.480  12.084 -0.0171  0.2125  0.3349
 7547TIP3    H144132   0.141   4.495  12.176  1.0533  1.2465  0.4777
 7547TIP3    H244133   0.260   4.492  12.083  0.1015 -0.6836 -0.7584
 7548TIP3   OH244134   3.798   5.912   0.942 -0.0069  0.2384 -0.2580
 7548TIP3    H144135   3.731   5.963   0.897  0.9620  1.6552 -0.1626
 7548TIP3    H244136   3.859   5.886   0.872  0.3968  0.6697 -0.0718
 7549TIP3   OH244137   5.517   5.914  10.843 -0.0936 -0.3971 -0.1809
 7549TIP3    H144138   5.606   5.933  10.871 -0.5287  0.6849  0.5499
 7549TIP3    H244139   5.526   5.879  10.754  1.0148  0.2279 -0.3279
 7550TIP3   OH244140   1.144   6.414   1.201 -0.5690 -0.2097  0.4557
 7550TIP3    H144141   1.118   6.506   1.195 -1.2785 -0.3867  0.6772
 7550TIP3    H244142   1.079   6.367   1.148 -0.0439 -0.5578  0.1116
 7551TIP3   OH244143   3.705   0.776   2.770  0.0789 -0.2830 -0.2537
 7551TIP3    H144144   3.727   0.766   2.862  1.8866 -2.3314 -0.8436
 7551TIP3    H244145   3.647   0.702   2.750  0.4574 -0.3997 -0.9703
 7552TIP3   OH244146   4.581   5.232   2.179  0.3290 -0.1083  0.4707
 7552TIP3    H144147   4.586   5.231   2.083 -2.7522 -0.8260  0.2028
 7552TIP3    H244148   4.570   5.324   2.202  0.4564  0.0054  0.0844
 7553TIP3   OH244149   1.444   2.768   0.785 -0.0280 -0.2211  0.1294
 7553TIP3    H144150   1.408   2.826   0.718  1.2827 -0.2723 -0.6506
 7553TIP3    H244151   1.478   2.693   0.736  0.4282 -0.5297  0.9043
 7554TIP3   OH244152   1.933   3.098  13.408  0.9741  0.0440 -0.1895
 7554TIP3    H144153   1.903   3.012  13.378  0.2346 -0.1006  0.9043
 7554TIP3    H244154   2.028   3.097  13.393  0.9482 -0.8845 -0.3471
 7555TIP3   OH244155   5.198   4.437  11.409  0.2356  0.2055 -0.0730
 7555TIP3    H144156   5.155   4.374  11.352 -0.3057  0.4909  0.0153
 7555TIP3    H244157   5.263   4.480  11.353 -1.2020  1.4287 -0.8474
 7556TIP3   OH244158   3.746   6.302   4.648 -0.1780 -0.9829  0.4280
 7556TIP3    H144159   3.715   6.367   4.585  0.0940  0.6261  1.8633
 7556TIP3    H244160   3.669   6.249   4.668 -0.6528 -0.4840 -0.0455
 7557TIP3   OH244161   0.036   2.450   1.791 -0.5586  0.0702 -0.0864
 7557TIP3    H144162   0.115   2.475   1.743 -1.2129 -0.5047 -1.5220
 7557TIP3    H244163   0.068   2.426   1.878  0.5725  1.9085  0.0527
 7558TIP3   OH244164   6.693   5.712  13.051  0.4784 -0.5113  0.2858
 7558TIP3    H144165   6.750   5.713  13.129 -1.4360  1.9477  1.8065
 7558TIP3    H244166   6.616   5.663  13.079 -0.0442  0.0256 -0.1978
 7559TIP3   OH244167   4.153   5.371   0.908 -0.2983 -0.5163 -0.0889
 7559TIP3    H144168   4.170   5.355   0.815  0.8747  0.0545  0.0120
 7559TIP3    H244169   4.120   5.460   0.911 -0.5155 -0.6007  0.0269
 7560TIP3   OH244170   0.423   3.700  15.367 -0.0839 -0.0828  0.1619
 7560TIP3    H144171   0.363   3.626  15.378  0.1598 -0.1114  1.4578
 7560TIP3    H244172   0.367   3.772  15.339 -0.1016 -1.1225 -2.8575
 7561TIP3   OH244173   0.921   0.308  16.273 -0.0770  0.0071  0.4734
 7561TIP3    H144174   1.015   0.307  16.254 -0.2063  1.0768 -0.3305
 7561TIP3    H244175   0.916   0.332  16.365  0.4185  1.3870  0.1616
 7562TIP3   OH244176   3.057   6.195  15.735 -0.2788 -0.0248 -0.4495
 7562TIP3    H144177   3.081   6.268  15.792  3.8806 -1.1177 -0.4818
 7562TIP3    H244178   2.999   6.140  15.788 -0.7430  1.5625  0.7472
 7563TIP3   OH244179   0.708   0.460  12.455 -0.1787 -0.4234 -0.2967
 7563TIP3    H144180   0.681   0.514  12.529 -0.5242 -1.4740  0.3650
 7563TIP3    H244181   0.804   0.459  12.460 -0.1524  0.3699 -0.5060
 7564TIP3   OH244182   5.502   6.257  17.282 -0.0943 -0.5259  0.3155
 7564TIP3    H144183   5.547   6.309  17.348 -0.1458  0.2722 -0.2565
 7564TIP3    H244184   5.418   6.234  17.322  0.3996 -1.1462  1.0019
 7565TIP3   OH244185   6.444   1.864   0.475  0.6464 -0.3741  0.0050
 7565TIP3    H144186   6.451   1.803   0.549  2.3212 -0.4664 -0.1873
 7565TIP3    H244187   6.431   1.808   0.399 -2.7090 -0.2254  0.2985
 7566TIP3   OH244188   5.904   0.295   4.348  0.7931 -0.4770  0.3920
 7566TIP3    H144189   5.944   0.382   4.350 -0.0171 -0.0928  0.2728
 7566TIP3    H244190   5.811   0.312   4.335  0.6723 -1.3817  0.0434
 7567TIP3   OH244191   3.871   3.829  16.273  0.8364  0.3197 -0.2808
 7567TIP3    H144192   3.939   3.798  16.213 -0.8175 -0.7489 -1.6918
 7567TIP3    H244193   3.840   3.750  16.317 -1.8885  0.1486 -2.2686
 7568TIP3   OH244194   0.558   5.855  11.985  0.0135 -0.4119 -0.4460
 7568TIP3    H144195   0.604   5.836  11.904 -1.0826  0.9200 -1.4301
 7568TIP3    H244196   0.500   5.780  11.998  0.9291 -1.1111 -0.3204
 7569TIP3   OH244197   0.466   1.433   3.721  0.0772  0.0793 -0.3027
 7569TIP3    H144198   0.502   1.361   3.670  1.6118 -0.4511  1.4443
 7569TIP3    H244199   0.383   1.399   3.755 -0.8166  0.3342 -2.1039
 7570TIP3   OH244200   2.096   2.236  15.301  0.3247  0.0439 -0.4340
 7570TIP3    H144201   2.154   2.167  15.330  1.0978  0.0355 -1.9205
 7570TIP3    H244202   2.008   2.199  15.309  0.5090 -0.1022  1.3801
 7571TIP3   OH244203   0.152   3.040  13.399 -0.1630  0.4638  0.1073
 7571TIP3    H144204   0.245   3.032  13.421 -0.4676  0.5234  1.4783
 7571TIP3    H244205   0.136   2.969  13.337  0.5523 -0.2357  0.7019
 7572TIP3   OH244206   5.896   2.210   0.792 -0.5774 -0.0070 -0.3581
 7572TIP3    H144207   5.839   2.139   0.821 -0.0166  0.3178  1.7186
 7572TIP3    H244208   5.983   2.171   0.786 -0.2808  0.4412  0.7139
 7573TIP3   OH244209   3.484   0.743   1.080 -0.7183  0.5365 -0.2086
 7573TIP3    H144210   3.486   0.717   0.987 -0.2798  0.2486 -0.1190
 7573TIP3    H244211   3.528   0.828   1.081 -0.2195  0.2787 -0.1815
 7574TIP3   OH244212   5.769   6.721  11.523 -0.0962 -0.0678  0.0400
 7574TIP3    H144213   5.777   6.816  11.512 -1.8216  0.0311 -0.7101
 7574TIP3    H244214   5.740   6.690  11.437  0.9626 -1.3621  0.1213
 7575TIP3   OH244215   1.715   0.208  12.753 -0.1554  0.2108  0.1058
 7575TIP3    H144216   1.682   0.298  12.756 -2.7334 -0.6354  0.0914
 7575TIP3    H244217   1.776   0.207  12.679 -0.0888  1.9166  0.0910
 7576TIP3   OH244218   4.419   5.347  10.576  0.2551  0.8070  0.1898
 7576TIP3    H144219   4.368   5.267  10.573  0.3999  0.7421 -1.1174
 7576TIP3    H244220   4.435   5.369  10.484 -0.3175  2.6814  0.4916
 7577TIP3   OH244221   1.021   5.245  14.283 -0.0876  0.4161 -0.3766
 7577TIP3    H144222   0.926   5.247  14.286 -0.1463  1.9394 -1.8674
 7577TIP3    H244223   1.043   5.271  14.193  1.7538  0.9592  0.1877
 7578TIP3   OH244224   6.109   1.760  13.544  0.7461 -0.0463 -0.4045
 7578TIP3    H144225   6.151   1.817  13.608  2.0324 -0.9384 -0.3988
 7578TIP3    H244226   6.150   1.675  13.558 -1.4815 -1.1282 -0.0661
 7579TIP3   OH244227   5.707   4.682  12.598  0.2815 -0.6580  0.4771
 7579TIP3    H144228   5.639   4.710  12.659  1.0045 -1.7037  1.7957
 7579TIP3    H244229   5.789   4.712  12.638  0.6319  0.8832 -1.2537
 7580TIP3   OH244230   4.120   4.694  13.219  0.0938 -0.5814  0.4740
 7580TIP3    H144231   4.192   4.644  13.181 -0.1574 -0.8091  0.3005
 7580TIP3    H244232   4.050   4.688  13.155  0.1688  0.2621  0.2994
 7581TIP3   OH244233   4.975   3.962  14.017  0.2037  0.0631  0.3006
 7581TIP3    H144234   5.057   3.970  14.066  0.6281  0.3021 -0.4238
 7581TIP3    H244235   4.926   3.894  14.063  1.3499 -0.9899  0.0166
 7582TIP3   OH244236   4.140   1.585  14.545 -0.3432 -0.0835  0.2120
 7582TIP3    H144237   4.183   1.637  14.477 -0.4475  2.2368  1.7894
 7582TIP3    H244238   4.212   1.542  14.592 -0.1679 -0.4317 -0.3661
 7583TIP3   OH244239   2.931   6.753   3.335  0.3753 -0.2989  0.3497
 7583TIP3    H144240   2.858   6.693   3.352  0.3422  0.0239  1.4022
 7583TIP3    H244241   2.890   6.833   3.303  0.2948 -0.2148  0.6697
 7584TIP3   OH244242   2.213   5.236   4.767  0.3222 -0.0219  0.4773
 7584TIP3    H144243   2.121   5.208   4.768  0.1853  0.4210  0.7051
 7584TIP3    H244244   2.251   5.192   4.691 -0.5203  1.1704 -0.6616
 7585TIP3   OH244245   3.499   4.320  17.217  0.4178  0.1257  0.0705
 7585TIP3    H144246   3.470   4.252  17.156 -0.4540 -1.6360  2.3169
 7585TIP3    H244247   3.431   4.322  17.285  1.5053  1.7701  1.1768
 7586TIP3   OH244248   6.080   2.795  11.150 -0.2276  0.1526 -0.1761
 7586TIP3    H144249   6.037   2.713  11.174 -2.2392  0.8478 -1.2033
 7586TIP3    H244250   6.155   2.768  11.096  0.5639 -1.0764  1.4671
 7587TIP3   OH244251   3.956   5.377  13.559 -0.4154  0.0916  0.3192
 7587TIP3    H144252   3.999   5.369  13.475 -0.7909 -1.4622  0.2538
 7587TIP3    H244253   4.012   5.330  13.620 -0.7748  0.1482  0.7001
 7588TIP3   OH244254   2.717   2.820   4.019 -0.5877  0.3603  0.0962
 7588TIP3    H144255   2.690   2.831   4.110 -0.5543 -3.5895  0.7487
 7588TIP3    H244256   2.801   2.775   4.024  0.3466  1.7107 -1.9529
 7589TIP3   OH244257   6.766   6.088  16.164 -0.1058  0.7237 -0.2680
 7589TIP3    H144258   6.818   6.027  16.216 -0.2079  2.4373  1.9950
 7589TIP3    H244259   6.796   6.074  16.074  0.3405 -2.1249  0.2244
 7590TIP3   OH244260   6.544   4.072  13.778  0.5137  0.1096  0.0137
 7590TIP3    H144261   6.587   3.996  13.739  0.0652 -0.6050  0.8964
 7590TIP3    H244262   6.551   4.140  13.710  0.1700 -0.9507 -1.1214
 7591TIP3   OH244263   2.382   0.580  12.205  0.2845  0.0637  0.0135
 7591TIP3    H144264   2.420   0.546  12.286  0.3462  1.3435  0.5515
 7591TIP3    H244265   2.385   0.675  12.215  0.4461  0.2588 -1.5737
 7592TIP3   OH244266   5.690   0.762   3.462 -0.0104  0.6766  0.2977
 7592TIP3    H144267   5.746   0.764   3.385  0.6436  0.7146  0.7672
 7592TIP3    H244268   5.702   0.847   3.504 -1.3933  1.1762 -0.2673
 7593TIP3   OH244269   3.743   5.560   0.085 -0.1444 -0.0313 -0.0016
 7593TIP3    H144270   3.832   5.538   0.111  0.9822  2.3968 -1.5217
 7593TIP3    H244271   3.709   5.611   0.159  0.2397  0.2525 -0.0196
 7594TIP3   OH244272   4.918   1.965  15.835 -0.0455 -0.0616 -0.0643
 7594TIP3    H144273   4.987   1.934  15.893  0.5614  0.6405 -0.3946
 7594TIP3    H244274   4.864   1.887  15.819 -0.1608 -0.2914  1.3232
 7595TIP3   OH244275   1.373   0.763  13.731  0.1353 -0.3087  0.2123
 7595TIP3    H144276   1.386   0.676  13.693 -0.7493  0.0724 -0.9962
 7595TIP3    H244277   1.354   0.820  13.657 -0.0164  0.7879  1.0603
 7596TIP3   OH244278   1.617   1.483  16.109  0.1927 -0.0729 -0.3586
 7596TIP3    H144279   1.547   1.539  16.077  1.4911  2.1854  0.4925
 7596TIP3    H244280   1.572   1.417  16.163 -1.3380  0.7843 -0.5237
 7597TIP3   OH244281   2.414   4.685   5.314  0.0624  0.5367 -0.1822
 7597TIP3    H144282   2.464   4.614   5.275 -0.5121 -0.1974  0.3855
 7597TIP3    H244283   2.371   4.728   5.240 -1.2454 -1.0109 -0.3733
 7598TIP3   OH244284   4.082   5.594   2.763 -0.4751  0.1027 -0.0246
 7598TIP3    H144285   4.149   5.562   2.823  0.6737  1.5347 -0.4927
 7598TIP3    H244286   4.073   5.525   2.698  2.3183  0.8081 -1.3111
 7599TIP3   OH244287   2.077   5.776  15.747 -0.2911 -0.0959  0.1225
 7599TIP3    H144288   2.052   5.828  15.823  2.1898  1.2983  0.0853
 7599TIP3    H244289   2.171   5.792  15.736 -0.1352 -1.8916 -2.0014
 7600TIP3   OH244290   0.805   3.362   1.938  0.3728 -0.2327  0.2291
 7600TIP3    H144291   0.835   3.338   2.026 -1.5574  0.4841  1.1349
 7600TIP3    H244292   0.859   3.438   1.915  1.3036 -0.7830  0.5079
 7601TIP3   OH244293   6.433   2.912  12.238 -0.5462  0.0024  0.2615
 7601TIP3    H144294   6.400   2.995  12.272  0.3557  0.6147 -0.3202
 7601TIP3    H244295   6.478   2.872  12.312  1.1008  1.1657 -0.0659
 7602TIP3   OH244296   2.100   2.359   4.910 -0.1124  0.3458  0.0832
 7602TIP3    H144297   2.032   2.337   4.847 -2.3259 -0.2366  2.5009
 7602TIP3    H244298   2.127   2.274   4.946 -1.6276  0.8131  2.5129
 7603TIP3   OH244299   2.554   4.948  15.502 -0.0610  0.6604  0.8211
 7603TIP3    H144300   2.460   4.939  15.486 -0.5221  1.0284  2.9337
 7603TIP3    H244301   2.581   4.862  15.534  0.5617  0.2849 -0.6196
 7604TIP3   OH244302   4.593   5.456  15.544  0.2373  0.1975 -0.3826
 7604TIP3    H144303   4.602   5.423  15.455 -0.7836  0.5167 -0.6208
 7604TIP3    H244304   4.507   5.498  15.546  0.2480  0.2165  0.7480
 7605TIP3   OH244305   0.301   5.524  15.251 -0.4307 -0.5519  0.1212
 7605TIP3    H144306   0.363   5.548  15.320 -0.6037  0.5589 -0.1028
 7605TIP3    H244307   0.356   5.509  15.174 -0.4669  0.8616 -0.1907
 7606TIP3   OH244308   3.284   4.145   4.674 -0.5704 -0.1470  0.0508
 7606TIP3    H144309   3.253   4.056   4.684 -2.6014  0.3851 -0.9376
 7606TIP3    H244310   3.301   4.175   4.764  0.1817 -1.4936  0.3879
 7607TIP3   OH244311   0.504   6.582   5.350 -0.0708 -0.1707  0.3580
 7607TIP3    H144312   0.502   6.667   5.306 -0.3911  0.2752  1.2238
 7607TIP3    H244313   0.498   6.518   5.279 -0.0525  0.5286 -0.2817
 7608TIP3   OH244314   3.066   4.610  11.393  0.3460  0.3541 -0.4309
 7608TIP3    H144315   3.000   4.548  11.423  0.4868  0.0309 -0.7808
 7608TIP3    H244316   3.096   4.653  11.473 -1.2703  1.5061 -0.3901
 7609TIP3   OH244317   5.913   4.077  16.401 -0.3139  0.0028 -0.4212
 7609TIP3    H144318   5.855   4.118  16.337  0.6135 -0.3307 -1.5205
 7609TIP3    H244319   5.870   3.994  16.422 -0.4092 -0.0887 -0.9629
 7610TIP3   OH244320   3.533   4.811  11.835  0.0783 -0.6250  0.3891
 7610TIP3    H144321   3.509   4.754  11.908  1.5803 -0.8286  0.7398
 7610TIP3    H244322   3.580   4.754  11.774 -1.2458 -0.4891 -0.8421
 7611TIP3   OH244323   1.619   6.298  12.448 -0.0277  0.3223 -0.0279
 7611TIP3    H144324   1.671   6.275  12.525 -0.4082 -1.8808 -0.3571
 7611TIP3    H244325   1.663   6.374  12.411  1.6698 -0.1308  0.9471
 7612TIP3   OH244326   5.813   1.055  11.878  0.6235  0.0713 -0.8421
 7612TIP3    H144327   5.878   1.002  11.924  0.3769  0.6123  0.1535
 7612TIP3    H244328   5.855   1.140  11.865 -0.1792  0.7299  0.6338
 7613TIP3   OH244329   2.606   1.962   4.354 -0.1980 -0.1951 -0.3793
 7613TIP3    H144330   2.614   1.889   4.293 -0.0373 -0.0317 -0.5542
 7613TIP3    H244331   2.555   2.028   4.307 -1.2014 -0.5825  0.1387
 7614TIP3   OH244332   3.676   2.682  13.524  0.2453 -0.0266  0.0109
 7614TIP3    H144333   3.683   2.750  13.591 -0.3981  0.4400 -0.3960
 7614TIP3    H244334   3.664   2.601  13.573  0.3959  0.2303  0.4757
 7615TIP3   OH244335   4.015   4.248   2.768  0.3349  0.4944 -0.3447
 7615TIP3    H144336   4.103   4.210   2.767  0.0985 -0.1168  0.5957
 7615TIP3    H244337   3.965   4.195   2.706  0.3188  0.0253  0.0611
 7616TIP3   OH244338   2.068   1.513  14.296  0.4008 -0.0667 -0.2097
 7616TIP3    H144339   2.013   1.510  14.374  1.2079  0.7541  0.4285
 7616TIP3    H244340   2.044   1.435  14.246 -1.0223  0.0443  0.2392
 7617TIP3   OH244341   2.620   6.368  13.789  0.3395 -0.1915  0.2280
 7617TIP3    H144342   2.699   6.316  13.778 -0.8552 -1.6851 -1.9854
 7617TIP3    H244343   2.650   6.459  13.786  2.0881 -0.7082  0.8422
 7618TIP3   OH244344   0.519   1.765  12.586  0.6703  0.2231 -0.3252
 7618TIP3    H144345   0.499   1.851  12.622  0.5427  0.5915 -1.2746
 7618TIP3    H244346   0.450   1.708  12.621  0.0856  0.7450 -0.6237
 7619TIP3   OH244347   4.562   0.429  11.933  0.0174  0.1260 -0.3545
 7619TIP3    H144348   4.526   0.370  11.867  1.4572 -1.9439  0.6100
 7619TIP3    H244349   4.490   0.441  11.995 -0.3662 -0.4035 -0.6880
 7620TIP3   OH244350   5.186   2.624  11.317 -0.1278 -0.0943 -0.8159
 7620TIP3    H144351   5.140   2.546  11.347  1.1406 -0.4319  0.3872
 7620TIP3    H244352   5.273   2.592  11.292  0.5449  0.9782  0.0877
 7621TIP3   OH244353   3.865   0.575   0.157  0.5426  0.1788  0.0303
 7621TIP3    H144354   3.790   0.591   0.214  0.2303  0.2207 -0.3901
 7621TIP3    H244355   3.841   0.613   0.073  1.5698  1.3956  0.2518
 7622TIP3   OH244356   5.565   3.358   1.023  0.0201 -0.1967 -0.0470
 7622TIP3    H144357   5.532   3.443   0.994  0.1902  0.4634  1.5823
 7622TIP3    H244358   5.611   3.323   0.947 -2.4367 -0.1415 -1.7019
 7623TIP3   OH244359   5.098   1.377   0.073 -0.0596  0.2260 -0.1534
 7623TIP3    H144360   5.174   1.363   0.129 -0.5647 -2.7560 -0.0867
 7623TIP3    H244361   5.022   1.354   0.128 -1.0942  2.8959 -0.2921
 7624TIP3   OH244362   2.348   5.968  14.758  0.3486 -0.6058 -0.7427
 7624TIP3    H144363   2.437   5.994  14.735  0.1631  0.5921 -0.1948
 7624TIP3    H244364   2.292   6.023  14.702 -0.1221  2.4845  2.4338
 7625TIP3   OH244365   1.397   3.056  12.685 -0.4534  0.1866 -0.3003
 7625TIP3    H144366   1.474   3.110  12.703 -0.5490  0.0485  0.5270
 7625TIP3    H244367   1.423   3.002  12.610 -0.2821  1.2142 -1.0025
 7626TIP3   OH244368   2.224   0.439   6.369 -0.7659  0.0323 -0.0965
 7626TIP3    H144369   2.148   0.384   6.349 -0.9904  0.4658 -0.4540
 7626TIP3    H244370   2.214   0.515   6.312 -0.2134  0.2280  0.0631
 7627TIP3   OH244371   6.114   0.294  15.913 -0.5274  0.5375  0.4211
 7627TIP3    H144372   6.149   0.214  15.953  0.5574  0.3457 -0.8402
 7627TIP3    H244373   6.047   0.262  15.852  0.5193  0.4756 -0.7398
 7628TIP3   OH244374   2.974   1.037   5.642  0.0674  0.1962  0.0812
 7628TIP3    H144375   2.975   1.020   5.736  1.2989 -0.4259 -0.0239
 7628TIP3    H244376   2.895   0.994   5.611  0.9124 -1.7367  0.4850
 7629TIP3   OH244377   5.805   6.658  16.397 -0.5899 -0.3306  0.7454
 7629TIP3    H144378   5.729   6.713  16.417 -1.5525 -0.9850 -0.8690
 7629TIP3    H244379   5.768   6.571  16.382  0.3712 -0.5324 -0.6812
 7630TIP3   OH244380   1.918   0.510   4.482  0.4856  0.5526 -0.1662
 7630TIP3    H144381   1.989   0.573   4.469  0.3079  0.6410 -0.7568
 7630TIP3    H244382   1.960   0.433   4.518  1.2664 -0.2095 -2.5274
 7631TIP3   OH244383   0.454   5.698  17.073  0.3423 -0.1845  0.2903
 7631TIP3    H144384   0.526   5.718  17.133  0.4247  3.1956 -0.7247
 7631TIP3    H244385   0.381   5.752  17.103 -0.5326 -0.5937 -0.9912
 7632TIP3   OH244386   1.180   4.050   1.095  0.2891  0.2744  0.2224
 7632TIP3    H144387   1.210   4.038   1.004  0.0734  2.0896 -0.1249
 7632TIP3    H244388   1.128   3.971   1.113  2.5676 -1.4548 -0.2532
 7633TIP3   OH244389   0.928   4.460   2.326 -0.3991 -0.2369 -0.0381
 7633TIP3    H144390   0.848   4.482   2.373 -0.0870  1.6249 -0.3133
 7633TIP3    H244391   0.921   4.507   2.243 -0.4585 -2.6210 -1.4887
 7634TIP3   OH244392   1.146   2.681   0.463  0.0585 -0.2575 -0.3729
 7634TIP3    H144393   1.053   2.705   0.459 -0.3539 -1.1489  1.8808
 7634TIP3    H244394   1.159   2.654   0.554  2.3888 -0.7869 -0.8042
 7635TIP3   OH244395   4.926   3.229   4.172 -0.1250  0.0030  0.3200
 7635TIP3    H144396   4.858   3.215   4.238 -1.8796 -1.5952 -1.7056
 7635TIP3    H244397   4.983   3.152   4.179 -2.0408 -1.7407 -1.8926
 7636TIP3   OH244398   1.667   4.817   2.972  0.3020  0.1771 -0.5284
 7636TIP3    H144399   1.575   4.796   2.960  0.2215 -0.1949  0.6254
 7636TIP3    H244400   1.712   4.771   2.901 -0.1142 -2.1391  0.6121
 7637TIP3   OH244401   2.777   3.957   5.623  0.2968  0.0960 -0.3621
 7637TIP3    H144402   2.773   3.948   5.528  1.4075  2.3160 -0.6841
 7637TIP3    H244403   2.688   3.979   5.650 -0.3777 -2.0908 -0.6353
 7638TIP3   OH244404   2.049   1.212   0.206 -0.2829 -0.5924  0.3599
 7638TIP3    H144405   2.009   1.192   0.291 -0.3671 -0.9923  0.2310
 7638TIP3    H244406   1.978   1.246   0.153  0.0785  1.1475  0.9168
 7639TIP3   OH244407   2.861   1.672  13.572 -0.7472 -0.4291 -0.0878
 7639TIP3    H144408   2.883   1.744  13.512  0.5655 -0.8074 -0.0966
 7639TIP3    H244409   2.798   1.618  13.523  1.5102 -1.6351 -1.8553
 7640TIP3   OH244410   6.756   4.186   4.050 -0.5467  0.2832 -0.6113
 7640TIP3    H144411   6.799   4.156   3.970  0.4125  0.8295 -0.3272
 7640TIP3    H244412   6.804   4.142   4.121 -0.8261  0.4670 -0.3028
 7641TIP3   OH244413   3.224   2.372   4.015  0.2009 -0.1449 -0.3150
 7641TIP3    H144414   3.222   2.420   4.098  1.9855  0.5865 -0.6385
 7641TIP3    H244415   3.154   2.308   4.023 -1.4648  1.6686  0.6502
 7642TIP3   OH244416   4.637   6.690  11.119  0.2863  0.0115  0.9512
 7642TIP3    H144417   4.597   6.683  11.033 -0.3751  0.8522  1.1768
 7642TIP3    H244418   4.574   6.648  11.178  0.1201  0.5913  1.1936
 7643TIP3   OH244419   4.208   4.934   1.892  0.0204 -0.0941  0.1725
 7643TIP3    H144420   4.150   4.863   1.867  0.2751  0.2637 -1.5933
 7643TIP3    H244421   4.183   5.007   1.834  1.6016  0.3517  0.0052
 7644TIP3   OH244422   0.551   3.164   2.542 -0.0755 -0.5374 -0.2396
 7644TIP3    H144423   0.518   3.096   2.482 -1.2672 -0.3539  0.1940
 7644TIP3    H244424   0.472   3.206   2.577  0.6349  0.9771 -0.3745
 7645TIP3   OH244425   1.805   3.163   4.760 -0.5182  0.5477 -0.4477
 7645TIP3    H144426   1.776   3.253   4.776 -2.4112  0.1334 -1.2505
 7645TIP3    H244427   1.761   3.111   4.827 -0.7486  0.0395 -0.9749
 7646TIP3   OH244428   3.684   1.818  16.047 -0.7252  0.0190 -0.3683
 7646TIP3    H144429   3.747   1.805  15.976 -0.4574 -2.2207  0.1922
 7646TIP3    H244430   3.697   1.909  16.074  1.2020  0.0790 -1.2873
 7647TIP3   OH244431   5.308   2.069  12.864 -0.0760 -0.1912  0.3824
 7647TIP3    H144432   5.358   2.121  12.802  0.0083 -1.8930 -1.0381
 7647TIP3    H244433   5.373   2.014  12.908 -0.3686 -0.4742  0.4683
 7648TIP3   OH244434   3.212   4.333   0.894  0.3581  0.5342  0.2592
 7648TIP3    H144435   3.168   4.399   0.947 -0.9492  0.3872 -0.5923
 7648TIP3    H244436   3.204   4.366   0.804  0.4728 -0.3349 -0.0768
 7649TIP3   OH244437   5.118   3.682   4.015 -0.2106  0.4922 -0.1945
 7649TIP3    H144438   5.041   3.717   4.060 -0.4535 -1.6147  1.1428
 7649TIP3    H244439   5.087   3.601   3.974  1.1965 -0.1933  0.0530
 7650TIP3   OH244440   3.719   4.192  11.072 -0.3803 -0.0564  0.5416
 7650TIP3    H144441   3.785   4.262  11.069 -2.4432  1.9899  0.3690
 7650TIP3    H244442   3.689   4.184  10.982  0.5734 -1.9875  0.3563
 7651TIP3   OH244443   2.183   4.161   3.947 -0.1622  0.0495  0.4537
 7651TIP3    H144444   2.121   4.222   3.907 -2.2069 -0.8709  2.0097
 7651TIP3    H244445   2.267   4.183   3.907 -1.0006  3.0578  0.0783
 7652TIP3   OH244446   5.941   4.412   0.869 -0.5167 -0.5175  0.1716
 7652TIP3    H144447   5.849   4.429   0.891 -0.4092  1.4585 -0.7000
 7652TIP3    H244448   5.964   4.335   0.921 -1.9329  0.4405  2.3936
 7653TIP3   OH244449   1.602   4.327   1.888  0.6608 -0.0403  0.3962
 7653TIP3    H144450   1.655   4.387   1.940 -1.0212  0.3754  1.7563
 7653TIP3    H244451   1.641   4.241   1.902  0.3950  0.1013  2.2192
 7654TIP3   OH244452   0.516   4.431   0.548 -0.3786  0.0782 -0.0419
 7654TIP3    H144453   0.438   4.462   0.500  0.6147  0.9964 -1.1280
 7654TIP3    H244454   0.482   4.408   0.634 -1.8793  0.3986 -0.4978
 7655TIP3   OH244455   5.793   6.223  14.799  0.1479 -0.2078 -0.1291
 7655TIP3    H144456   5.790   6.132  14.771 -0.8912  0.3950 -2.2406
 7655TIP3    H244457   5.746   6.271  14.730  0.0530  1.8408  1.2640
 7656TIP3   OH244458   5.648   0.390  11.690  0.0640  0.6543  0.4237
 7656TIP3    H144459   5.730   0.341  11.695 -0.1525  0.4111  2.3659
 7656TIP3    H244460   5.672   0.479  11.716 -0.2711  0.5882  0.9764
 7657TIP3   OH244461   2.057   6.327   2.813  0.1777  0.2450 -0.3051
 7657TIP3    H144462   2.103   6.366   2.739  0.2262 -0.5800 -0.7213
 7657TIP3    H244463   1.969   6.365   2.809  0.5617  1.1778 -0.0125
 7658TIP3   OH244464   5.044   1.834   2.419  0.0174  0.5231 -0.1081
 7658TIP3    H144465   5.133   1.829   2.384 -0.0071 -0.7930 -0.0355
 7658TIP3    H244466   5.038   1.922   2.455  1.2666  0.6648 -0.1820
 7659TIP3   OH244467   6.088   2.825   4.020  0.3122 -0.2780 -1.0803
 7659TIP3    H144468   6.080   2.748   4.077  0.9781  0.7623  0.4730
 7659TIP3    H244469   6.040   2.894   4.065  3.2139  1.3703 -0.2242
 7660TIP3   OH244470   1.210   1.381  16.508  0.2536 -0.6785  0.0939
 7660TIP3    H144471   1.301   1.373  16.481  0.2929 -1.9761  0.5413
 7660TIP3    H244472   1.197   1.475  16.522  1.1497 -0.3396 -1.1944
 7661TIP3   OH244473   4.712   1.860   2.522 -0.5716  0.4234  0.0487
 7661TIP3    H144474   4.627   1.896   2.496 -0.2481 -0.2896 -2.2170
 7661TIP3    H244475   4.699   1.765   2.521  0.5083  0.2385 -1.5900
 7662TIP3   OH244476   2.944   5.558  10.819  0.9407 -0.1471 -0.1409
 7662TIP3    H144477   2.937   5.642  10.863  0.8729 -0.0943 -0.2511
 7662TIP3    H244478   3.035   5.530  10.832  1.8061  1.2579 -2.4821
 7663TIP3   OH244479   1.390   4.802   5.312 -0.1581  0.0226  0.4927
 7663TIP3    H144480   1.386   4.887   5.356  0.5628  0.0729  0.4815
 7663TIP3    H244481   1.483   4.777   5.317 -0.4482 -1.0120  0.9629
 7664TIP3   OH244482   4.080   3.691   1.493  0.2794 -0.1443 -0.3717
 7664TIP3    H144483   4.128   3.774   1.489  1.3030 -0.5082  2.2541
 7664TIP3    H244484   4.006   3.709   1.551  0.8834 -1.1905  0.7659
 7665TIP3   OH244485   6.001   5.112  16.640 -0.7624  0.0005 -0.1758
 7665TIP3    H144486   5.945   5.066  16.703 -2.1259 -0.0658 -1.3847
 7665TIP3    H244487   5.940   5.149  16.576  0.3161  3.0698  0.4091
 7666TIP3   OH244488   3.150   1.181   1.447 -0.3020  0.5575 -0.1492
 7666TIP3    H144489   3.163   1.209   1.537 -1.3175  0.8039 -0.0653
 7666TIP3    H244490   3.058   1.152   1.443 -0.1031 -0.0269 -0.9503
 7667TIP3   OH244491   3.501   0.084  14.700 -0.4151 -0.0316 -0.4926
 7667TIP3    H144492   3.587   0.102  14.664  0.3834  0.3057  1.4342
 7667TIP3    H244493   3.449   0.053  14.626  1.3347 -0.1922 -1.6992
 7668TIP3   OH244494   6.461   1.659   0.660 -0.6353  0.4640 -0.0823
 7668TIP3    H144495   6.531   1.602   0.629  0.9778  2.0614  0.3989
 7668TIP3    H244496   6.450   1.636   0.752 -1.1237 -0.1565 -0.2962
 7669TIP3   OH244497   4.553   3.784   3.678 -0.1872  0.3344  0.2535
 7669TIP3    H144498   4.477   3.842   3.667  0.6910  1.2910 -1.1516
 7669TIP3    H244499   4.556   3.733   3.597  0.7272  0.3825  0.2509
 7670TIP3   OH244500   5.562   1.593   5.294 -0.6631  0.0569  0.0272
 7670TIP3    H144501   5.522   1.568   5.377 -0.4081  1.1339  0.4869
 7670TIP3    H244502   5.656   1.588   5.309 -0.6079 -0.6743 -0.4957
 7671TIP3   OH244503   0.286   2.201   3.952 -0.3923 -0.3811  0.2575
 7671TIP3    H144504   0.200   2.242   3.954 -0.5614 -0.7405  0.6216
 7671TIP3    H244505   0.343   2.260   4.000 -0.6201 -0.5337  0.7256
 7672TIP3   OH244506   6.470   5.770  15.787 -0.1328 -0.1357 -1.2036
 7672TIP3    H144507   6.562   5.748  15.801 -0.0457  0.8881 -0.0089
 7672TIP3    H244508   6.471   5.837  15.719  0.1879  1.2672  0.1430
 7673TIP3   OH244509   1.248   4.906  13.690 -0.0994  0.3414  0.4600
 7673TIP3    H144510   1.252   4.971  13.761 -1.3555  0.7325  0.1849
 7673TIP3    H244511   1.206   4.830  13.729 -0.5531  0.4617  0.2066
 7674TIP3   OH244512   3.522   4.921   0.509  0.4269 -0.3909 -0.3329
 7674TIP3    H144513   3.511   4.981   0.435  1.7597  0.4064  0.0826
 7674TIP3    H244514   3.578   4.969   0.571 -0.9360 -0.8978  1.3652
 7675TIP3   OH244515   5.101   4.296  14.926  0.0559 -0.4873  0.3252
 7675TIP3    H144516   5.047   4.365  14.964  0.2218 -0.0741 -0.1917
 7675TIP3    H244517   5.155   4.340  14.861 -0.8218 -1.3159 -1.0202
 7676TIP3   OH244518   3.744   5.866   2.070 -0.5849 -0.2204 -0.0197
 7676TIP3    H144519   3.824   5.833   2.111 -0.7412 -2.6599 -1.4547
 7676TIP3    H244520   3.715   5.937   2.127  2.0951  0.1452  1.0229
 7677TIP3   OH244521   3.081   1.799  15.975  0.4598  0.1057  0.2212
 7677TIP3    H144522   3.146   1.858  15.937  1.8139 -1.2290  0.3729
 7677TIP3    H244523   3.005   1.855  15.992  1.1510  1.4863 -0.9867
 7678TIP3   OH244524   4.167   3.602   6.057  0.2617 -0.5974 -0.1785
 7678TIP3    H144525   4.208   3.651   6.128  1.2520  0.8371 -1.6762
 7678TIP3    H244526   4.234   3.540   6.029  0.3816 -0.2122 -0.7555
 7679TIP3   OH244527   3.580   6.295   5.576 -0.2113  0.0522  0.4383
 7679TIP3    H144528   3.493   6.309   5.615 -1.0095 -1.0293 -0.8373
 7679TIP3    H244529   3.635   6.267   5.649 -1.6798 -2.0460  0.8256
 7680TIP3   OH244530   2.005   4.332  15.608 -0.3432 -0.4640 -0.8661
 7680TIP3    H144531   1.961   4.405  15.652 -0.7089 -0.6476 -0.9264
 7680TIP3    H244532   1.998   4.259  15.669  2.4242  0.2290  0.4407
 7681TIP3   OH244533   0.834   1.196  14.467  0.0766 -0.3153  0.1922
 7681TIP3    H144534   0.794   1.184  14.381 -0.0587  1.5842 -0.0492
 7681TIP3    H244535   0.913   1.248  14.449 -1.0853  1.9976  1.4043
 7682TIP3   OH244536   4.943   4.362  16.691 -0.4886 -0.4371  0.0789
 7682TIP3    H144537   4.862   4.358  16.640 -0.5734 -0.8242  0.2416
 7682TIP3    H244538   5.004   4.306  16.643 -0.4154 -0.3951  0.1231
 7683TIP3   OH244539   3.614   1.403  12.623 -0.3781  0.4053 -0.3134
 7683TIP3    H144540   3.674   1.353  12.568  0.4110  0.8151  0.1550
 7683TIP3    H244541   3.585   1.476  12.568  0.7684  1.0754 -0.0568
 7684TIP3   OH244542   1.939   0.291  13.000 -0.0751  0.3587  0.3361
 7684TIP3    H144543   1.991   0.360  13.041 -0.0961  1.1696 -0.9482
 7684TIP3    H244544   1.955   0.301  12.906 -2.1674  0.3404 -0.0751
 7685TIP3   OH244545   4.775   0.381   4.447 -0.0785  0.5321 -0.5774
 7685TIP3    H144546   4.724   0.316   4.496 -1.4135  2.5496  0.8497
 7685TIP3    H244547   4.861   0.380   4.489  0.0232 -0.5150 -0.7831
 7686TIP3   OH244548   0.800   2.709   3.412  0.4039  0.2853 -0.1297
 7686TIP3    H144549   0.715   2.744   3.436 -0.1036 -0.8137 -0.2668
 7686TIP3    H244550   0.846   2.697   3.495 -1.0419 -2.7359  0.3725
 7687TIP3   OH244551   1.394   4.759   2.608 -0.4991 -0.9991  0.0019
 7687TIP3    H144552   1.421   4.770   2.517  3.2756  0.1433  1.0613
 7687TIP3    H244553   1.347   4.839   2.630  0.8114 -0.1086 -0.3259
 7688TIP3   OH244554   5.043   5.281  17.033 -0.2352  0.5623  0.4317
 7688TIP3    H144555   5.073   5.366  17.063  2.5520  0.2989 -1.2433
 7688TIP3    H244556   5.013   5.236  17.112 -0.8259  2.6778  1.4800
 7689TIP3   OH244557   0.688   4.619  15.788  0.0233 -0.4183  0.0154
 7689TIP3    H144558   0.729   4.628  15.874  1.3482 -2.4389 -0.3157
 7689TIP3    H244559   0.761   4.616  15.727 -0.8924  0.8021 -1.1902
 7690TIP3   OH244560   4.266   6.695  12.955 -0.1868  0.1538 -0.4134
 7690TIP3    H144561   4.347   6.738  12.981 -0.5062  0.0057  0.8704
 7690TIP3    H244562   4.276   6.682  12.861  1.5573 -0.4437 -0.1891
 7691TIP3   OH244563   1.087   2.287  14.707  0.3942  0.4167  0.2031
 7691TIP3    H144564   1.109   2.298  14.799 -0.9531  1.2273  0.4599
 7691TIP3    H244565   1.155   2.334  14.660  1.0331  0.0832  0.7888
 7692TIP3   OH244566   0.816   3.201  13.518 -0.1754  0.3995  0.0540
 7692TIP3    H144567   0.726   3.174  13.501 -0.6909  0.6860  2.0277
 7692TIP3    H244568   0.808   3.290  13.552  0.7238 -0.0038  1.4056
 7693TIP3   OH244569   1.524   2.958  14.394  0.3399  0.4220  0.2417
 7693TIP3    H144570   1.526   2.870  14.431  1.0665  0.1087 -0.5196
 7693TIP3    H244571   1.458   3.005  14.446  0.9658 -0.1459  1.5654
 7694TIP3   OH244572   5.946   6.718   2.640 -0.0034 -0.1164 -0.1388
 7694TIP3    H144573   5.946   6.777   2.715  0.6774  1.2491 -1.1620
 7694TIP3    H244574   5.865   6.668   2.649 -1.0193  1.5299  0.3592
 7695TIP3   OH244575   2.347   3.030   1.221 -0.0200  0.1172  0.3890
 7695TIP3    H144576   2.351   3.036   1.126 -0.8256  0.5291  0.3775
 7695TIP3    H244577   2.325   2.938   1.238 -1.2777  0.3542  0.1233
 7696TIP3   OH244578   2.337   2.220   6.129  0.1762 -0.3342  0.8814
 7696TIP3    H144579   2.366   2.214   6.038 -1.0223  0.3150  0.4253
 7696TIP3    H244580   2.242   2.208   6.124  0.1216 -0.5437  2.0875
 7697TIP3   OH244581   5.459   2.687   3.603 -0.4562 -0.1494  0.5214
 7697TIP3    H144582   5.404   2.621   3.646 -1.2396 -0.6992 -1.2158
 7697TIP3    H244583   5.432   2.770   3.641 -1.9808 -0.4916  0.2457
 7698TIP3   OH244584   3.405   6.198   0.627 -0.2859  0.6704 -0.2313
 7698TIP3    H144585   3.429   6.262   0.695 -0.2169  0.8623 -0.4349
 7698TIP3    H244586   3.470   6.129   0.636 -0.7450  0.3102  0.4195
 7699TIP3   OH244587   4.880   3.033   0.779  0.3944  0.1941 -0.0518
 7699TIP3    H144588   4.842   2.958   0.826  0.8376 -0.8956 -1.3719
 7699TIP3    H244589   4.958   2.998   0.736 -0.1420  1.0624 -1.8359
 7700TIP3   OH244590   5.304   2.301   5.446 -0.4369  0.1307  0.0812
 7700TIP3    H144591   5.213   2.277   5.463 -1.5595  1.5069 -3.1084
 7700TIP3    H244592   5.309   2.394   5.466  0.3521  0.0198  0.4507
 7701TIP3   OH244593   3.200   0.299  14.237  0.3975  0.9659 -0.3503
 7701TIP3    H144594   3.117   0.285  14.192  1.1296  0.2974 -1.5349
 7701TIP3    H244595   3.251   0.354  14.178  1.5182 -0.2490 -0.5608
 7702TIP3   OH244596   6.100   2.586  14.446 -0.3912 -0.7562 -0.5838
 7702TIP3    H144597   6.178   2.534  14.424  0.1707  0.5291 -1.7981
 7702TIP3    H244598   6.080   2.634  14.366 -0.5941  1.2553  0.6196
 7703TIP3   OH244599   5.894   4.501  12.027  0.1857  0.3135 -0.6598
 7703TIP3    H144600   5.823   4.527  11.967 -1.1344 -0.9073  0.3006
 7703TIP3    H244601   5.858   4.516  12.114  1.7968  1.3271 -0.1256
 7704TIP3   OH244602   2.488   5.230   0.264 -0.1943  0.0941 -0.2610
 7704TIP3    H144603   2.570   5.245   0.310 -0.5097 -1.7761  0.9960
 7704TIP3    H244604   2.428   5.295   0.300  0.5598  1.1181 -0.8057
 7705TIP3   OH244605   3.309   1.151  10.646  0.4594  0.0497 -0.2970
 7705TIP3    H144606   3.221   1.144  10.683 -0.7646  0.0983 -3.0062
 7705TIP3    H244607   3.316   1.243  10.619  1.4543  0.0939  0.0603
 7706TIP3   OH244608   1.263   0.097   0.139 -0.3862 -0.0555  0.0778
 7706TIP3    H144609   1.192   0.048   0.098  0.9871  0.0102 -2.5453
 7706TIP3    H244610   1.316   0.031   0.184 -1.3598 -0.2556  0.9648
 7707TIP3   OH244611   3.311   5.209  12.962 -0.0572 -0.1415 -0.0131
 7707TIP3    H144612   3.280   5.291  13.001  0.5757 -0.2338  0.7048
 7707TIP3    H244613   3.251   5.143  12.997 -1.2215  0.1178 -1.4051
 7708TIP3   OH244614   5.680   6.077   0.233  0.3623 -0.3528 -0.1163
 7708TIP3    H144615   5.683   6.171   0.253 -1.6963 -0.5838  1.6476
 7708TIP3    H244616   5.590   6.052   0.251  0.9654 -2.7602 -0.1687
 7709TIP3   OH244617   2.418   5.933  15.151  0.5947 -0.4066 -0.0899
 7709TIP3    H144618   2.446   5.846  15.121  0.9315 -0.3969  0.1878
 7709TIP3    H244619   2.486   5.992  15.121  0.2326 -0.1917 -0.5102
 7710TIP3   OH244620   0.983   3.265   5.694  0.6333  0.0940 -0.1364
 7710TIP3    H144621   0.908   3.321   5.712  0.4490  0.4925 -1.9816
 7710TIP3    H244622   0.957   3.213   5.618  2.1546  0.1446 -0.7290
 7711TIP3   OH244623   5.920   0.251   5.974  0.1843  0.1407 -0.1997
 7711TIP3    H144624   5.914   0.204   6.058 -0.6174 -0.0900 -0.3780
 7711TIP3    H244625   5.913   0.343   5.998  0.8321  0.1281  0.0653
 7712TIP3   OH244626   1.296   1.519   0.916 -0.4416  0.2850 -0.4212
 7712TIP3    H144627   1.204   1.520   0.942 -0.6376  1.5448 -1.1026
 7712TIP3    H244628   1.296   1.551   0.826  0.6910  0.6837 -0.2970
 7713TIP3   OH244629   5.357   2.893   5.205  0.0974 -0.2297  0.4301
 7713TIP3    H144630   5.333   2.985   5.212  0.1278 -0.0905 -0.8794
 7713TIP3    H244631   5.337   2.855   5.290  0.0875  0.9865  0.9846
 7714TIP3   OH244632   2.368   1.392  12.075  0.1748  0.1970  0.7544
 7714TIP3    H144633   2.306   1.349  12.133  0.4633 -1.0165  0.1861
 7714TIP3    H244634   2.454   1.367  12.109  0.3447 -0.0976  0.1303
 7715TIP3   OH244635   2.551   5.035   0.098  0.0306  0.3296 -0.2285
 7715TIP3    H144636   2.647   5.026   0.101  0.1701  1.7695  0.8955
 7715TIP3    H244637   2.529   5.076   0.181 -1.8421 -1.9809  0.5356
 7716TIP3   OH244638   2.421   4.781   3.671  0.6135  0.5528  0.1737
 7716TIP3    H144639   2.460   4.702   3.709 -1.8297 -0.2169  1.3428
 7716TIP3    H244640   2.489   4.848   3.677  1.4058 -0.3782  3.1231
 7717TIP3   OH244641   5.402   5.821   4.050 -0.3894  0.3286  0.2725
 7717TIP3    H144642   5.409   5.844   4.143  1.5193 -1.5362  0.6630
 7717TIP3    H244643   5.318   5.776   4.042  0.0981 -0.8461  1.4469
 7718TIP3   OH244644   1.885   6.399  14.180 -0.0940 -0.0710 -0.5658
 7718TIP3    H144645   1.790   6.408  14.188 -0.1877 -1.5563  0.4142
 7718TIP3    H244646   1.919   6.433  14.263  0.1330 -0.5998 -0.4374
 7719TIP3   OH244647   0.858   5.257  10.998 -0.0646 -0.0607 -0.2825
 7719TIP3    H144648   0.917   5.321  11.038  3.5352 -1.7046 -2.4519
 7719TIP3    H244649   0.842   5.192  11.066  0.6797  0.3966  0.3347
 7720TIP3   OH244650   4.879   3.077   5.372  0.4283 -0.4157  0.0623
 7720TIP3    H144651   4.905   3.061   5.281  0.8502  2.1308 -0.3387
 7720TIP3    H244652   4.785   3.090   5.369  0.7900  2.8485 -0.6525
 7721TIP3   OH244653   4.595   0.427   5.073  0.3040  0.2732  0.2809
 7721TIP3    H144654   4.565   0.515   5.049  1.1542  0.2449 -1.0435
 7721TIP3    H244655   4.521   0.387   5.118 -0.8026  0.9818 -0.8426
 7722TIP3   OH244656   5.137   6.772   2.648 -0.1871 -0.5164  0.2979
 7722TIP3    H144657   5.228   6.741   2.646 -0.1019 -0.2246 -1.6882
 7722TIP3    H244658   5.086   6.692   2.663  0.3552 -0.7056  1.2887
 7723TIP3   OH244659   5.372   3.730   1.361 -0.3402  0.2829  0.1081
 7723TIP3    H144660   5.380   3.732   1.266 -0.4102  1.2537  0.1111
 7723TIP3    H244661   5.444   3.785   1.392  1.2052 -1.9838  0.7477
 7724TIP3   OH244662   4.585   3.667   5.552  0.1259  0.6930 -0.3107
 7724TIP3    H144663   4.491   3.648   5.558  0.3420 -0.3013  0.0523
 7724TIP3    H244664   4.593   3.756   5.587 -0.8357  1.2812 -1.4977
 7725TIP3   OH244665   4.304   4.480   3.197  0.3207  0.1795 -0.0970
 7725TIP3    H144666   4.326   4.546   3.131  0.7563  0.8296  0.6815
 7725TIP3    H244667   4.376   4.484   3.260  0.9093 -1.7942 -0.5710
 7726TIP3   OH244668   5.321   2.930  13.177  0.0623 -0.1693  0.7367
 7726TIP3    H144669   5.314   2.854  13.234 -0.9857 -0.8232 -0.2248
 7726TIP3    H244670   5.234   2.969  13.177  0.3301  0.4500  0.4257
 7727TIP3   OH244671   1.550   6.244   4.901 -0.4279 -0.1481  0.3159
 7727TIP3    H144672   1.613   6.204   4.961 -0.7287 -0.7903  0.2215
 7727TIP3    H244673   1.468   6.198   4.920 -0.6680  0.0850 -0.1496
 7728TIP3   OH244674   5.805   3.137  13.232 -0.0347  0.0353 -0.0047
 7728TIP3    H144675   5.862   3.060  13.222  1.3410  1.0670 -0.4541
 7728TIP3    H244676   5.833   3.197  13.162 -1.6629  0.6078 -0.1968
 7729TIP3   OH244677   5.024   3.516  16.005  0.1193 -0.9227  0.3945
 7729TIP3    H144678   5.054   3.491  16.092  0.4584 -3.5373 -0.3853
 7729TIP3    H244679   5.025   3.435  15.955 -1.0474  0.3100 -1.7884
 7730TIP3   OH244680   1.414   5.642   4.827  0.1218  0.2157  0.6697
 7730TIP3    H144681   1.452   5.694   4.757  0.0859  1.6596  1.6787
 7730TIP3    H244682   1.466   5.561   4.828  0.0961  0.1346 -1.0110
 7731TIP3   OH244683   6.353   5.286  14.558  0.2707  0.1346  0.0589
 7731TIP3    H144684   6.416   5.345  14.599 -1.1120  0.5799  1.6319
 7731TIP3    H244685   6.318   5.335  14.484  0.0245  0.8205  0.6215
 7732TIP3   OH244686   2.653   5.993  13.814 -0.0479 -0.2214  0.0116
 7732TIP3    H144687   2.688   5.966  13.898  1.2360  0.0919 -0.3988
 7732TIP3    H244688   2.705   6.070  13.790 -0.5408 -0.1702 -0.9619
 7733TIP3   OH244689   2.499   5.516   2.328 -0.2027 -0.3848  0.0543
 7733TIP3    H144690   2.453   5.590   2.366 -1.4436 -1.4409  0.7016
 7733TIP3    H244691   2.552   5.480   2.399 -1.4850 -1.5423  0.4865
 7734TIP3   OH244692   3.272   0.613  15.982  0.1845  0.2084  0.6347
 7734TIP3    H144693   3.255   0.656  15.898 -0.2923  0.5307  0.8920
 7734TIP3    H244694   3.340   0.666  16.023  0.0033  0.3909  0.7029
 7735TIP3   OH244695   1.704   1.348   4.291 -0.5028  0.3074 -0.0782
 7735TIP3    H144696   1.642   1.341   4.218 -1.7870  0.9871  0.8948
 7735TIP3    H244697   1.658   1.307   4.365  0.6071 -0.0036  0.4635
 7736TIP3   OH244698   3.367   1.245  11.542  0.0165 -0.0019 -0.0261
 7736TIP3    H144699   3.289   1.291  11.574 -0.9408 -1.4424 -0.1755
 7736TIP3    H244700   3.401   1.199  11.619  0.3406  0.0837 -0.1145
 7737TIP3   OH244701   4.562   2.786   1.925  0.0029  0.1988 -0.4068
 7737TIP3    H144702   4.608   2.756   2.003  1.0268  0.2866 -0.9662
 7737TIP3    H244703   4.524   2.707   1.887  1.0135 -0.1060 -0.7924
 7738TIP3   OH244704   3.018   4.708   3.256  0.5147 -0.0928  0.1342
 7738TIP3    H144705   3.089   4.715   3.320  0.3777  1.4688  0.1681
 7738TIP3    H244706   2.983   4.797   3.250 -0.7995 -0.6302 -0.6183
 7739TIP3   OH244707   6.210   1.256   1.099 -0.5661 -0.1921  0.2576
 7739TIP3    H144708   6.153   1.305   1.159  0.7478  0.1075  1.2870
 7739TIP3    H244709   6.165   1.172   1.087 -1.3784  0.1485  0.7994
 7740TIP3   OH244710   0.022   3.109  14.403  0.4017 -0.7373  0.0946
 7740TIP3    H144711   0.048   3.080  14.316  0.1684  1.1315 -0.6443
 7740TIP3    H244712   0.064   3.046  14.462  0.9588 -1.7657 -1.3206
 7741TIP3   OH244713   0.280   0.270  17.050  0.1006 -0.0895  0.3290
 7741TIP3    H144714   0.300   0.312  17.133  0.1633 -1.7656  1.1974
 7741TIP3    H244715   0.242   0.185  17.074  0.8215 -0.9359 -1.3362
 7742TIP3   OH244716   3.377   6.080  10.886 -0.0045  0.3579  0.2416
 7742TIP3    H144717   3.428   6.108  10.810  0.8407 -0.9465  0.2902
 7742TIP3    H244718   3.433   6.099  10.961 -1.2488  2.5924  0.6825
 7743TIP3   OH244719   3.725   5.423   3.533  0.0470 -0.4871 -0.3239
 7743TIP3    H144720   3.646   5.373   3.552 -1.1400  1.9647  1.7953
 7743TIP3    H244721   3.785   5.400   3.604 -0.5843  1.1221  0.7854
 7744TIP3   OH244722   5.470   4.854  17.228  0.0412  0.1710  0.5396
 7744TIP3    H144723   5.404   4.915  17.194  0.9842  2.2801  2.2580
 7744TIP3    H244724   5.547   4.908  17.243  0.8653 -1.3908  2.3734
 7745TIP3   OH244725   3.410   5.267   1.641  0.1154 -0.2866 -1.0525
 7745TIP3    H144726   3.365   5.209   1.702  1.9581 -1.5600 -0.8161
 7745TIP3    H244727   3.344   5.332   1.617 -0.6416  0.5515  2.5985
 7746TIP3   OH244728   1.589   1.650  15.727 -0.6282  0.0708  0.1038
 7746TIP3    H144729   1.514   1.593  15.712  0.5735 -1.2967 -1.0740
 7746TIP3    H244730   1.569   1.730  15.680 -1.6645  0.0164  0.4371
 7747TIP3   OH244731   3.542   2.700   3.768 -0.0222  0.4111 -0.6104
 7747TIP3    H144732   3.452   2.727   3.785  0.2878 -0.0912  2.3586
 7747TIP3    H244733   3.547   2.610   3.802  1.0384 -0.4367 -2.8406
 7748TIP3   OH244734   1.119   2.658   3.299 -0.0428 -0.8095  0.3603
 7748TIP3    H144735   1.084   2.576   3.335  0.8012 -1.3619 -0.0470
 7748TIP3    H244736   1.092   2.725   3.362  1.2395 -1.7174  1.9651
 7749TIP3   OH244737   5.916   5.272  13.531  0.2420 -0.2287  0.3558
 7749TIP3    H144738   5.872   5.351  13.500  0.5244 -0.5739 -0.9752
 7749TIP3    H244739   6.002   5.302  13.561  1.2796 -0.2754 -2.2842
 7750TIP3   OH244740   2.275   1.241  17.144  0.2615 -0.2971 -0.6514
 7750TIP3    H144741   2.338   1.281  17.204 -0.0569  0.1756 -0.6273
 7750TIP3    H244742   2.259   1.154  17.180  1.0917 -0.5192 -0.7949
 7751TIP3   OH244743   2.618   2.883  14.222  0.0148 -0.0518 -0.4959
 7751TIP3    H144744   2.625   2.801  14.271  2.0914  0.4446  0.1206
 7751TIP3    H244745   2.579   2.945  14.284 -1.2367 -0.4355 -0.8558
 7752TIP3   OH244746   0.809   5.616   4.116 -0.4505 -0.0972  0.0181
 7752TIP3    H144747   0.755   5.689   4.147 -0.2211  0.5190 -0.9987
 7752TIP3    H244748   0.765   5.538   4.151 -3.3349  0.2005 -2.5133
 7753TIP3   OH244749   2.474   2.783   6.090 -0.0659 -0.0919  0.6097
 7753TIP3    H144750   2.487   2.700   6.136 -1.4043 -0.6688 -0.0183
 7753TIP3    H244751   2.393   2.819   6.128  0.4410  0.8962  0.8032
 7754TIP3   OH244752   3.544   4.399   1.629 -0.0877 -0.4772 -0.4663
 7754TIP3    H144753   3.510   4.417   1.716  0.2217  0.0985 -0.4627
 7754TIP3    H244754   3.613   4.334   1.644 -0.9728 -1.4358 -0.4441
 7755TIP3   OH244755   4.391   1.211  16.296  0.0993 -0.6145 -0.0114
 7755TIP3    H144756   4.341   1.236  16.373 -1.8127  1.1440 -1.6844
 7755TIP3    H244757   4.332   1.156  16.245  0.1741  0.6029 -1.5184
 7756TIP3   OH244758   3.371   1.691  10.763 -0.5732 -0.3788  0.9438
 7756TIP3    H144759   3.279   1.714  10.770 -0.5667 -0.2996  0.7702
 7756TIP3    H244760   3.409   1.760  10.709 -1.3861 -2.9358 -3.3707
 7757TIP3   OH244761   1.358   3.380  14.589 -0.2530  0.3810  0.2626
 7757TIP3    H144762   1.440   3.362  14.544  0.1611 -0.5692  1.3500
 7757TIP3    H244763   1.293   3.391  14.519  0.2552 -1.5236 -0.5517
 7758TIP3   OH244764   5.106   6.475  17.094 -0.1183 -0.2922 -0.4854
 7758TIP3    H144765   5.016   6.499  17.075 -0.3708 -0.6919  0.1393
 7758TIP3    H244766   5.146   6.461  17.009 -0.7819 -0.5687 -0.7623
 7759TIP3   OH244767   3.178   4.517   5.135 -0.0358  0.0960 -0.1960
 7759TIP3    H144768   3.212   4.518   5.225 -1.7558  1.0002  0.4953
 7759TIP3    H244769   3.222   4.590   5.092 -0.1635  0.4860  0.3205
 7760TIP3   OH244770   0.349   4.427   2.249  0.1837  0.0700  0.4306
 7760TIP3    H144771   0.414   4.380   2.301  1.8242  0.7404 -0.9145
 7760TIP3    H244772   0.366   4.520   2.269 -0.4759  0.2518  0.1713
 7761TIP3   OH244773   3.091   0.422   4.727 -0.2276 -0.2837 -1.0827
 7761TIP3    H144774   3.171   0.415   4.674  1.0002 -0.3007  0.6702
 7761TIP3    H244775   3.062   0.512   4.715  0.2067 -0.2023 -1.5612
 7762TIP3   OH244776   3.079   3.163  14.302  0.0466 -0.1482 -0.7701
 7762TIP3    H144777   3.006   3.145  14.361  1.4711  0.2164  1.2169
 7762TIP3    H244778   3.038   3.183  14.218 -2.1629  0.4799  0.3798
 7763TIP3   OH244779   2.087   1.387  15.487 -0.1883 -0.3561  0.3886
 7763TIP3    H144780   2.182   1.391  15.474 -0.3111 -1.0351 -0.8606
 7763TIP3    H244781   2.075   1.407  15.580  1.3509 -2.3724  1.0974
 7764TIP3   OH244782   5.399   2.516  12.956 -0.5415 -0.8726  0.4724
 7764TIP3    H144783   5.422   2.604  12.986 -3.1745 -0.3402  1.2466
 7764TIP3    H244784   5.425   2.514  12.864  0.0223  0.5361  0.5734
 7765TIP3   OH244785   5.259   3.463   5.534 -0.0875  0.1613 -0.8079
 7765TIP3    H144786   5.347   3.428   5.547  0.1240  0.5446 -1.1651
 7765TIP3    H244787   5.218   3.404   5.471 -0.3065 -0.3716 -0.1770
 7766TIP3   OH244788   4.400   3.401   0.708 -0.2333 -0.3880  0.2506
 7766TIP3    H144789   4.311   3.370   0.724 -0.2798 -0.3876 -0.0028
 7766TIP3    H244790   4.406   3.483   0.758  0.8726 -2.2292  3.4730
 7767TIP3   OH244791   4.116   1.877  16.658 -1.1302 -0.0468 -0.1487
 7767TIP3    H144792   4.108   1.841  16.569  2.3854  1.0240 -1.0571
 7767TIP3    H244793   4.073   1.962  16.654 -1.0971 -0.0541 -0.8385
 7768TIP3   OH244794   1.123   0.917  12.345  0.1183  0.3321 -0.4338
 7768TIP3    H144795   1.082   0.996  12.308  0.9251  1.0037  0.0719
 7768TIP3    H244796   1.217   0.930  12.331  0.3664  0.1394  0.9544
 7769TIP3   OH244797   5.211   1.010   2.565  0.2081 -0.4274 -0.3576
 7769TIP3    H144798   5.133   1.057   2.595  1.6349  1.8825 -0.0871
 7769TIP3    H244799   5.202   0.923   2.604 -1.4453  0.2765  0.9644
 7770TIP3   OH244800   3.936   5.702  13.481  0.2108 -0.2115 -0.0429
 7770TIP3    H144801   4.031   5.698  13.489  0.1898 -0.9196 -0.0932
 7770TIP3    H244802   3.917   5.654  13.401  0.0432  2.7153 -1.9234
 7771TIP3   OH244803   5.396   5.290   6.120  0.2682  0.1225 -0.0819
 7771TIP3    H144804   5.339   5.362   6.095 -1.2831 -1.2087 -0.5185
 7771TIP3    H244805   5.473   5.332   6.159 -0.5389  1.9893 -0.4377
 7772TIP3   OH244806   1.779   4.872  11.659  0.5778  0.1433  0.2274
 7772TIP3    H144807   1.788   4.779  11.643 -0.9450  0.0809 -0.4762
 7772TIP3    H244808   1.732   4.879  11.742 -3.2932  0.0531 -1.6968
 7773TIP3   OH244809   1.890   3.831  16.885 -1.1524 -0.4577  0.3551
 7773TIP3    H144810   1.967   3.881  16.909 -0.6663 -1.6723  1.4358
 7773TIP3    H244811   1.846   3.885  16.819 -0.2877  1.0276  0.9418
 7774TIP3   OH244812   0.651   2.720   5.396 -0.0539 -0.9102 -0.0874
 7774TIP3    H144813   0.605   2.761   5.469 -0.0994 -0.4543 -0.3650
 7774TIP3    H244814   0.700   2.648   5.436  0.9748  0.1438  0.6127
 7775TIP3   OH244815   1.189   4.522   1.924 -0.8181 -0.3558 -0.2998
 7775TIP3    H144816   1.247   4.454   1.889  1.0377 -0.2619  2.3235
 7775TIP3    H244817   1.149   4.482   2.001 -3.0683  0.1602 -1.1165
 7776TIP3   OH244818   1.980   6.334   3.931  0.3150  0.0027  0.0112
 7776TIP3    H144819   1.909   6.290   3.977 -1.1597  0.4849 -1.6586
 7776TIP3    H244820   2.058   6.317   3.983 -0.9243 -1.0650  1.5901
 7777TIP3   OH244821   6.224   5.674  11.246 -0.5308  0.0864  0.3494
 7777TIP3    H144822   6.141   5.626  11.244 -1.7334  2.1113 -0.5197
 7777TIP3    H244823   6.255   5.672  11.156  1.4530 -2.2971  0.9585
 7778TIP3   OH244824   2.093   1.237   5.265 -0.3770  0.5190 -0.1049
 7778TIP3    H144825   2.153   1.187   5.322 -0.2624  2.7332  1.8854
 7778TIP3    H244826   2.148   1.265   5.192  0.5397  0.8067  0.6627
 7779TIP3   OH244827   1.541   3.682   5.054  0.2305 -0.1660  0.3607
 7779TIP3    H144828   1.635   3.697   5.064 -0.0677  1.6020  0.7629
 7779TIP3    H244829   1.520   3.717   4.968  0.3362 -2.8985 -0.8885
 7780TIP3   OH244830   3.445   2.581  16.377  0.2268 -0.2508 -0.4577
 7780TIP3    H144831   3.400   2.616  16.455  0.0891  0.4171 -0.8305
 7780TIP3    H244832   3.407   2.493  16.366  0.4203 -0.4536  0.3602
 7781TIP3   OH244833   4.038   4.765   3.914 -0.2492  0.5577 -0.5186
 7781TIP3    H144834   4.129   4.771   3.886 -0.1791 -0.4636 -0.5231
 7781TIP3    H244835   3.995   4.839   3.870  0.1935 -0.0479 -2.0361
 7782TIP3   OH244836   0.386   6.586   5.660 -0.0033 -1.1357  0.1440
 7782TIP3    H144837   0.378   6.520   5.591 -1.9543 -0.1897 -0.6317
 7782TIP3    H244838   0.375   6.670   5.614 -1.4902 -0.4863  1.5700
 7783TIP3   OH244839   2.860   1.787   2.925 -0.5478  0.2841  0.8264
 7783TIP3    H144840   2.810   1.824   2.998 -2.9077  1.5856 -1.2961
 7783TIP3    H244841   2.831   1.696   2.920 -1.0270  0.4232  0.9898
 7784TIP3   OH244842   4.217   1.934  10.831 -0.2273  0.3520 -0.1073
 7784TIP3    H144843   4.232   1.867  10.764 -0.6867  0.7357 -0.6013
 7784TIP3    H244844   4.127   1.961  10.818  0.2734  1.8523 -0.6326
 7785TIP3   OH244845   3.142   5.676  14.737 -0.1694 -0.0616 -0.8081
 7785TIP3    H144846   3.089   5.755  14.730 -0.3299 -0.0524  0.2928
 7785TIP3    H244847   3.223   5.705  14.777 -0.3216 -0.4799 -0.1812
 7786TIP3   OH244848   1.430   6.597   1.495  0.2099  0.1087 -0.3583
 7786TIP3    H144849   1.370   6.526   1.517 -1.3858  1.6972  0.6108
 7786TIP3    H244850   1.382   6.677   1.515  1.9896  1.4937 -1.3124
 7787TIP3   OH244851   6.425   5.198  12.482  0.2867 -0.2535  0.2204
 7787TIP3    H144852   6.489   5.146  12.433 -0.1711  1.3021 -2.1815
 7787TIP3    H244853   6.469   5.282  12.497 -0.8364  0.5186 -0.6761
 7788TIP3   OH244854   4.531   0.883  11.380 -0.1372 -0.3400 -0.5479
 7788TIP3    H144855   4.582   0.892  11.460  0.7231  0.6605 -1.1849
 7788TIP3    H244856   4.569   0.947  11.319 -0.3434 -1.5052 -1.9786
 7789TIP3   OH244857   4.164   0.638   0.140  0.0315 -0.1294 -0.4657
 7789TIP3    H144858   4.094   0.702   0.154  0.3052 -0.1699  1.2382
 7789TIP3    H244859   4.235   0.666   0.198  1.0280 -0.7046 -1.3680
 7790TIP3   OH244860   3.894   0.613  16.388  0.4690  0.2130 -0.2526
 7790TIP3    H144861   3.935   0.567  16.314  0.9227  2.0874 -1.2243
 7790TIP3    H244862   3.967   0.655  16.433  0.5886 -2.8810  2.8962
 7791TIP3   OH244863   1.660   5.226  14.787 -0.4085 -0.4147  0.6375
 7791TIP3    H144864   1.651   5.131  14.789  0.9287 -0.5623  0.5782
 7791TIP3    H244865   1.696   5.249  14.873 -2.0110  0.2071  1.1782
 7792TIP3   OH244866   0.262   2.251  16.383 -0.0266 -0.8053  0.5450
 7792TIP3    H144867   0.306   2.304  16.317  2.0945 -3.3424 -0.2205
 7792TIP3    H244868   0.169   2.260  16.363  0.1148  2.9469  0.8275
 7793TIP3   OH244869   2.650   3.286   1.459 -1.0297 -0.4782 -0.3551
 7793TIP3    H144870   2.573   3.232   1.474  0.2838 -2.4117 -0.3055
 7793TIP3    H244871   2.660   3.336   1.540 -0.9144 -1.9266  0.5423
 7794TIP3   OH244872   4.859   2.989   5.081  0.4343 -0.7473 -0.2312
 7794TIP3    H144873   4.801   3.048   5.032 -1.6452 -1.4897  1.1983
 7794TIP3    H244874   4.802   2.916   5.106  1.2233 -0.2441  3.5808
 7795TIP3   OH244875   2.607   3.813  16.977  0.1765 -0.4151  0.0869
 7795TIP3    H144876   2.616   3.751  17.049 -1.0571 -0.1123  0.5352
 7795TIP3    H244877   2.650   3.892  17.007  1.0324 -0.7819 -0.1531
 7796TIP3   OH244878   1.544   3.371   3.897  0.2183 -0.4364 -0.2960
 7796TIP3    H144879   1.458   3.385   3.856  1.1000  1.2269 -1.7112
 7796TIP3    H244880   1.563   3.278   3.880 -1.5041 -0.9954  0.5413
 7797TIP3   OH244881   5.043   6.505   3.048 -0.4936  0.1694  0.4230
 7797TIP3    H144882   4.976   6.517   3.115 -0.8815  0.1932  0.0368
 7797TIP3    H244883   5.067   6.594   3.023  0.4631  0.1815  1.3168
 7798TIP3   OH244884   3.383   6.549   6.176  0.5324  0.4541  0.1932
 7798TIP3    H144885   3.350   6.579   6.261 -1.3770 -1.7854  0.3514
 7798TIP3    H244886   3.454   6.489   6.198  0.2155  0.0829  0.2237
 7799TIP3   OH244887   4.427   0.544   1.838 -0.0583  0.2695 -0.2108
 7799TIP3    H144888   4.439   0.497   1.920 -3.8356 -2.1133 -0.7657
 7799TIP3    H244889   4.375   0.621   1.861  0.6331  0.7242 -0.1422
 7800TIP3   OH244890   4.433   1.880  16.238  0.1886  1.0343  0.4763
 7800TIP3    H144891   4.345   1.910  16.215 -0.7266 -2.1591 -0.8732
 7800TIP3    H244892   4.458   1.822  16.166  1.7030 -1.2579  2.6745
 7801TIP3   OH244893   1.364   1.618   4.884  0.0030 -0.0393 -0.0495
 7801TIP3    H144894   1.447   1.618   4.835 -0.6941  1.5673 -1.3074
 7801TIP3    H244895   1.302   1.662   4.826 -1.0584  1.2919  2.0085
 7802TIP3   OH244896   0.326   4.043  12.308  0.0396  0.1340  0.1885
 7802TIP3    H144897   0.374   3.971  12.266  2.4137  1.5856  0.2508
 7802TIP3    H244898   0.350   4.121  12.257 -1.6647  1.0655  0.7397
 7803TIP3   OH244899   2.535   3.635  16.762  0.4720 -0.3488 -0.6133
 7803TIP3    H144900   2.446   3.604  16.744  0.1887 -0.3951  0.7798
 7803TIP3    H244901   2.526   3.687  16.842  1.4313  0.9659 -1.3111
 7804TIP3   OH244902   4.974   1.266   3.302 -0.6144 -0.0070 -0.0953
 7804TIP3    H144903   4.884   1.238   3.286 -0.0057 -1.0351 -2.0775
 7804TIP3    H244904   5.006   1.207   3.370 -0.9533 -0.7069 -0.5338
 7805TIP3   OH244905   2.667   5.697  10.380  0.1619 -0.0741  0.4094
 7805TIP3    H144906   2.702   5.630  10.440  1.1735 -1.8368 -1.9869
 7805TIP3    H244907   2.740   5.756  10.364  0.1702 -0.1416  0.1968
 7806TIP3   OH244908   3.319   1.587  14.726  0.0349  0.2436  0.0330
 7806TIP3    H144909   3.331   1.597  14.632  0.4276 -0.3070  0.0258
 7806TIP3    H244910   3.400   1.619  14.765 -0.0699  0.3343  0.1795
 7807TIP3   OH244911   4.411   5.823   3.395 -0.1618 -0.8009 -0.1368
 7807TIP3    H144912   4.334   5.797   3.344  0.3689 -1.6817 -0.5267
 7807TIP3    H244913   4.464   5.743   3.400  0.9497 -0.0962 -0.2805
 7808TIP3   OH244914   1.012   6.739  14.807 -0.4843  0.2933 -0.2435
 7808TIP3    H144915   0.983   6.828  14.792 -1.6779 -0.2488 -1.3515
 7808TIP3    H244916   1.030   6.704  14.720 -0.5532 -0.7027  0.1259
 7809TIP3   OH244917   2.152   5.519   6.154  0.6543  0.1330  0.1950
 7809TIP3    H144918   2.102   5.574   6.213  1.3870  0.8555  0.1718
 7809TIP3    H244919   2.244   5.533   6.180  0.8227 -1.6366  0.6511
 7810TIP3   OH244920   0.926   0.322   4.346  0.2414  0.7088 -0.2875
 7810TIP3    H144921   0.961   0.319   4.257 -0.5815 -1.5573 -0.6198
 7810TIP3    H244922   0.905   0.230   4.366 -1.6079  1.4238  1.4257
 7811TIP3   OH244923   6.467   6.770  11.439  0.0238 -0.4229  0.2680
 7811TIP3    H144924   6.552   6.743  11.474  1.1982 -0.7967 -2.6339
 7811TIP3    H244925   6.412   6.692  11.445  0.6086 -0.8515  0.0927
 7812TIP3   OH244926   3.448   0.887   0.691 -0.0090  0.0685 -0.1238
 7812TIP3    H144927   3.411   0.967   0.730  0.8042  0.4250 -0.0626
 7812TIP3    H244928   3.372   0.833   0.672 -0.4583  0.0117  1.6516
 7813TIP3   OH244929   3.804   4.427  10.802  0.4089 -0.5982  0.1209
 7813TIP3    H144930   3.737   4.488  10.833 -0.4721 -0.4330 -1.9401
 7813TIP3    H244931   3.882   4.482  10.790 -0.2888  0.1077 -1.4247
 7814TIP3   OH244932   4.457   2.156  14.385  0.1836 -0.2940 -0.0652
 7814TIP3    H144933   4.431   2.102  14.460 -1.7252 -2.5079 -2.1312
 7814TIP3    H244934   4.519   2.101  14.337  0.6505  0.6863 -0.6011
 7815TIP3   OH244935   5.493   1.157   0.516  0.0383 -0.2570  0.0013
 7815TIP3    H144936   5.554   1.180   0.586  0.8871 -0.0385 -0.7957
 7815TIP3    H244937   5.482   1.062   0.523 -0.4448 -0.1457  0.8691
 7816TIP3   OH244938   2.757   1.440   1.746  0.1151 -0.2125  0.2880
 7816TIP3    H144939   2.835   1.443   1.802  1.5928 -0.2568 -1.6421
 7816TIP3    H244940   2.760   1.523   1.698  0.0264 -0.9993 -1.1214
 7817TIP3   OH244941   1.784   5.679  15.165  0.0698  0.0316 -0.0892
 7817TIP3    H144942   1.748   5.701  15.251 -1.5921  0.2895 -0.8123
 7817TIP3    H244943   1.779   5.761  15.116  0.4715 -0.2555 -0.6126
 7818TIP3   OH244944   2.580   5.299   4.662 -0.0480 -0.1810  0.2124
 7818TIP3    H144945   2.569   5.391   4.683 -2.1288 -0.4351  0.4057
 7818TIP3    H244946   2.571   5.295   4.567 -0.2407 -0.2285  0.2333
 7819TIP3   OH244947   4.078   4.460   3.895  0.4330  0.3203 -0.5454
 7819TIP3    H144948   4.016   4.533   3.891 -0.9224 -0.7789 -0.7104
 7819TIP3    H244949   4.049   4.402   3.824 -0.0011 -1.4588  1.0025
 7820TIP3   OH244950   2.408   0.015  14.172  0.0804 -0.7373  0.2908
 7820TIP3    H144951   2.477  -0.050  14.188 -0.1228 -0.6891  1.4525
 7820TIP3    H244952   2.449   0.099  14.195  0.7156 -0.2493 -2.2824
 7821TIP3   OH244953   2.554   5.522   0.988 -0.0020 -0.6761 -0.4226
 7821TIP3    H144954   2.533   5.546   0.897 -1.1510  1.5460  0.3553
 7821TIP3    H244955   2.647   5.499   0.985  0.6903  1.8353 -1.7938
 7822TIP3   OH244956   1.322   2.003   2.992  0.1124  0.9920  0.7216
 7822TIP3    H144957   1.254   1.989   2.926 -0.6077  1.0133  1.4471
 7822TIP3    H244958   1.340   2.096   2.988 -0.9719  1.2624  1.5274
 7823TIP3   OH244959   2.456   3.263  12.562 -0.4368 -0.3424 -0.3814
 7823TIP3    H144960   2.505   3.189  12.599 -0.2057 -0.1025 -0.2084
 7823TIP3    H244961   2.398   3.222  12.497  0.0992 -0.6142 -0.7019
 7824TIP3   OH244962   3.216   4.527  14.236 -0.3733  0.0503  0.1362
 7824TIP3    H144963   3.214   4.449  14.182 -0.6550 -1.1057  1.7444
 7824TIP3    H244964   3.163   4.591  14.189  3.0893  0.8164 -3.3059
 7825TIP3   OH244965   3.570   1.125  12.433  0.1876 -0.0794  0.4834
 7825TIP3    H144966   3.616   1.118  12.349  0.9548  0.7822  0.8241
 7825TIP3    H244967   3.637   1.149  12.496 -0.4860 -0.1653  1.2522
 7826TIP3   OH244968   5.529   2.619  16.176 -0.3575 -0.1329  0.9500
 7826TIP3    H144969   5.544   2.622  16.270  1.0878 -0.0962  0.7488
 7826TIP3    H244970   5.497   2.706  16.154 -0.3607 -0.0299  1.3624
 7827TIP3   OH244971   0.307   1.703   1.024 -0.1107 -0.5697 -0.4221
 7827TIP3    H144972   0.333   1.620   0.985  0.3715  0.3085 -2.0341
 7827TIP3    H244973   0.285   1.759   0.950  1.3528  1.3424  0.5071
 7828TIP3   OH244974   3.972   5.049  13.283  0.2232  0.2556  0.4471
 7828TIP3    H144975   3.963   5.009  13.369 -1.7895  1.0941  0.7004
 7828TIP3    H244976   4.023   5.129  13.298  0.7981 -0.1483  0.6554
 7829TIP3   OH244977   0.305   3.554  13.864  0.0676  0.2580  0.2379
 7829TIP3    H144978   0.224   3.599  13.841 -1.2169 -1.5659  0.9328
 7829TIP3    H244979   0.315   3.569  13.958 -0.5353 -1.0788  0.5380
 7830TIP3   OH244980   3.087   1.570   5.687  0.0031  0.1845 -0.3738
 7830TIP3    H144981   3.039   1.615   5.618 -1.0246  0.1810  0.3247
 7830TIP3    H244982   3.028   1.501   5.717  0.8984 -0.5556 -0.2799
 7831TIP3   OH244983   6.733   0.502   5.408 -0.0043 -0.0656 -0.0992
 7831TIP3    H144984   6.762   0.411   5.409 -0.5860 -0.2547  0.9094
 7831TIP3    H244985   6.660   0.504   5.346  0.2891 -0.1877 -0.4518
 7832TIP3   OH244986   5.654   2.138  14.302  0.1525 -0.2024  0.1746
 7832TIP3    H144987   5.713   2.129  14.227  0.0779  0.5766  0.0110
 7832TIP3    H244988   5.587   2.071  14.288  0.4351 -0.4152 -0.1764
 7833TIP3   OH244989   6.748   6.798   2.298 -0.1760  0.0402 -0.5763
 7833TIP3    H144990   6.769   6.887   2.270  1.4273  0.0470  0.5178
 7833TIP3    H244991   6.829   6.765   2.336 -0.7120 -1.9528 -1.0733
 7834TIP3   OH244992   6.189   2.807   0.933  0.1204 -0.0056  0.3873
 7834TIP3    H144993   6.094   2.798   0.926  0.1734  0.4533 -1.2505
 7834TIP3    H244994   6.224   2.755   0.861  1.0793  0.4537  0.5069
 7835TIP3   OH244995   0.850   2.568   2.074  0.2509 -0.1761 -0.2735
 7835TIP3    H144996   0.899   2.641   2.110 -1.1081  1.3651 -1.3908
 7835TIP3    H244997   0.760   2.581   2.104 -0.0341 -1.3672 -0.5268
 7836TIP3   OH244998   1.694   3.541   3.449  0.0365 -0.0114 -0.8055
 7836TIP3    H144999   1.644   3.465   3.479  1.6061 -0.3908  1.0102
 7836TIP3    H245000   1.733   3.512   3.366  1.7828 -1.8319  0.5241
 7837TIP3   OH245001   0.007   0.981   5.236 -0.1292  0.6607  0.3605
 7837TIP3    H145002  -0.010   0.998   5.144 -0.2733  1.8737  0.6027
 7837TIP3    H245003  -0.077   0.952   5.272 -0.2493  0.9096  0.2763
 7838TIP3   OH245004   0.627   0.187  16.409  0.0493 -0.4018  0.5432
 7838TIP3    H145005   0.594   0.250  16.345  2.2628 -0.2953 -0.6261
 7838TIP3    H245006   0.554   0.172  16.469 -1.6283  0.6731 -1.1196
 7839TIP3   OH245007   6.407   5.266  13.442  0.2313  0.2994  0.2863
 7839TIP3    H145008   6.425   5.174  13.464 -1.5791 -0.5389 -1.3164
 7839TIP3    H245009   6.492   5.303  13.419  1.1635 -0.6334  2.0369
 7840TIP3   OH245010   1.584   0.015   3.805  0.0557 -0.3624 -0.0454
 7840TIP3    H145011   1.678   0.026   3.788  0.2343 -0.6150  0.7101
 7840TIP3    H245012   1.550  -0.028   3.727  0.3788  0.6367 -0.7500
 7841TIP3   OH245013   2.104   6.596   3.901  0.2330 -0.1667  0.6243
 7841TIP3    H145014   2.053   6.641   3.833  2.0486  1.8568  0.4910
 7841TIP3    H245015   2.080   6.504   3.893 -2.8769  0.5682  0.1623
 7842TIP3   OH245016   0.749   1.983   1.355 -0.5789  0.1257 -0.8186
 7842TIP3    H145017   0.720   2.034   1.431 -1.0215 -0.7557 -0.3810
 7842TIP3    H245018   0.672   1.935   1.327  0.0843 -1.1735 -0.5080
 7843TIP3   OH245019   6.697   5.796   1.382 -0.2336  0.0559 -0.0680
 7843TIP3    H145020   6.746   5.862   1.431  1.3334 -0.7752 -0.4441
 7843TIP3    H245021   6.761   5.726   1.365 -1.6605 -1.2666 -0.2535
 7844TIP3   OH245022   1.346   6.463  17.153 -0.0749  0.2945 -0.5564
 7844TIP3    H145023   1.284   6.411  17.101  1.0990 -0.2094 -1.4851
 7844TIP3    H245024   1.371   6.406  17.226 -0.6347  0.4791 -0.2094
 7845TIP3   OH245025   6.217   6.590   4.436  0.2107 -0.1892  0.4321
 7845TIP3    H145026   6.304   6.621   4.410 -0.0816 -0.0929 -0.4423
 7845TIP3    H245027   6.227   6.495   4.444  1.0743  0.0408  2.9903
 7846TIP3   OH245028   5.950   0.006  16.662  0.0279 -0.0402  0.0342
 7846TIP3    H145029   5.910   0.036  16.744  1.4177  0.0144  0.7198
 7846TIP3    H245030   5.930   0.076  16.599 -1.4277 -0.2865  0.1782
 7847TIP3   OH245031   4.076   2.695  13.258  0.1182  0.0495 -0.3421
 7847TIP3    H145032   4.148   2.706  13.320 -0.1514 -0.3364  0.0418
 7847TIP3    H245033   3.999   2.725  13.305 -0.2855 -1.3718 -0.0486
 7848TIP3   OH245034   3.614   3.550  12.314 -0.3290  0.8638  0.8912
 7848TIP3    H145035   3.648   3.493  12.383  0.2772  0.0722 -0.0319
 7848TIP3    H245036   3.519   3.541  12.321 -0.2519 -0.5759  0.5404
 7849TIP3   OH245037   4.142   4.586   5.743  0.3959  0.3724 -0.4485
 7849TIP3    H145038   4.194   4.596   5.823 -1.5642 -1.5564  1.2135
 7849TIP3    H245039   4.127   4.676   5.713  1.4131  1.1483  1.2130
 7850TIP3   OH245040   1.684   3.620   0.658 -0.5221  0.7125 -0.3333
 7850TIP3    H145041   1.628   3.694   0.633 -0.3547  1.1687  0.5865
 7850TIP3    H245042   1.773   3.650   0.641 -0.4296  0.8940  0.4434
 7851TIP3   OH245043   4.415   5.284  13.440 -0.1284  0.1559 -0.2183
 7851TIP3    H145044   4.475   5.295  13.367 -1.0299  2.7163 -0.6733
 7851TIP3    H245045   4.327   5.285  13.401 -0.5774 -0.6744  0.7053
 7852TIP3   OH245046   4.989   4.332   4.852  0.3797  0.1386  0.6803
 7852TIP3    H145047   5.047   4.371   4.919 -0.7870  1.5137  0.9362
 7852TIP3    H245048   4.956   4.407   4.803  0.8439 -0.8226 -1.1897
 7853TIP3   OH245049   0.553   1.450  12.131  0.2719 -0.3356  0.1329
 7853TIP3    H145050   0.597   1.425  12.213  1.3533  2.8075  0.6564
 7853TIP3    H245051   0.491   1.519  12.157 -2.4740 -2.1012 -1.1734
 7854TIP3   OH245052   3.591   3.321  12.453  0.0510 -0.2426  0.3171
 7854TIP3    H145053   3.669   3.268  12.439 -0.2502 -1.0426  1.5081
 7854TIP3    H245054   3.529   3.262  12.496 -1.0503  0.5082 -0.1949
 7855TIP3   OH245055   2.297   0.317  17.252  0.8481 -0.4528  0.0759
 7855TIP3    H145056   2.345   0.301  17.171  1.9173 -0.5673  0.7204
 7855TIP3    H245057   2.241   0.239  17.263  1.6008 -1.0016  0.0775
 7856TIP3   OH245058   4.197   6.756  16.100  0.0118 -0.0209  0.7322
 7856TIP3    H145059   4.225   6.743  16.010  0.2253  0.7195  0.6816
 7856TIP3    H245060   4.171   6.669  16.131  2.2234 -0.7291  0.7334
 7857TIP3   OH245061   0.853   1.165  13.879 -0.3705  0.1654 -0.5250
 7857TIP3    H145062   0.891   1.250  13.857 -2.4272  0.8956 -1.4459
 7857TIP3    H245063   0.849   1.118  13.796  0.6905 -0.8691 -0.0360
 7858TIP3   OH245064   3.725   5.090   3.367  0.3804 -0.4473  0.7627
 7858TIP3    H145065   3.692   5.095   3.277  0.8923  0.9346  0.6290
 7858TIP3    H245066   3.685   5.165   3.411  1.2022 -0.3297  1.3209
 7859TIP3   OH245067   0.039   5.099  13.367  0.1064 -0.2058 -0.0986
 7859TIP3    H145068   0.126   5.100  13.407  0.3279 -3.4972 -0.2007
 7859TIP3    H245069   0.042   5.168  13.301  3.1637 -1.0240 -0.9661
 7860TIP3   OH245070   0.502   1.512   5.252  0.8220  0.3016 -0.3038
 7860TIP3    H145071   0.590   1.544   5.232  0.0317  0.9225 -3.2038
 7860TIP3    H245072   0.506   1.418   5.234  1.0747  0.1628  0.4213
 7861TIP3   OH245073   5.257   6.648   5.295 -0.5862  0.3693 -0.7439
 7861TIP3    H145074   5.214   6.704   5.229  0.3430  0.9940 -0.8346
 7861TIP3    H245075   5.349   6.646   5.269 -0.2951  0.2018  0.2477
 7862TIP3   OH245076   2.651   4.614  13.536 -0.2171 -0.7259 -0.6744
 7862TIP3    H145077   2.573   4.641  13.583 -0.6446 -1.1187 -1.1396
 7862TIP3    H245078   2.623   4.607  13.444 -0.3587 -3.3836 -0.5243
 7863TIP3   OH245079   6.418   3.869  11.872  0.3386 -0.5599 -0.1443
 7863TIP3    H145080   6.348   3.931  11.890  0.6312 -0.2536 -0.0605
 7863TIP3    H245081   6.472   3.870  11.952  0.5284 -0.6733 -0.2708
 7864TIP3   OH245082   4.358   5.894   3.944 -0.0009 -0.4224 -0.1040
 7864TIP3    H145083   4.351   5.989   3.947 -0.0695 -0.4483  0.8961
 7864TIP3    H245084   4.448   5.877   3.916 -0.1296 -0.0696 -0.7435
 7865TIP3   OH245085   2.480   0.014  14.526  0.3835 -0.2886 -0.0145
 7865TIP3    H145086   2.496   0.069  14.602 -1.9791 -0.9460  1.0456
 7865TIP3    H245087   2.414   0.061  14.475 -0.7293 -1.4825  0.2607
 7866TIP3   OH245088   2.282   5.393   3.297 -0.3738 -0.3100  0.0704
 7866TIP3    H145089   2.321   5.394   3.209 -0.2504 -2.2439  0.0649
 7866TIP3    H245090   2.191   5.368   3.283 -1.1165  1.9742  0.3052
 7867TIP3   OH245091   6.802   1.641   6.591 -0.3442 -0.0268 -0.0253
 7867TIP3    H145092   6.710   1.657   6.615 -0.2622  0.0912  0.2155
 7867TIP3    H245093   6.804   1.548   6.568 -0.7921  0.2566 -1.2891
 7868TIP3   OH245094   1.598   6.249   1.980 -0.3985 -0.4425  0.1702
 7868TIP3    H145095   1.535   6.273   2.049  0.3941  0.1728  0.7062
 7868TIP3    H245096   1.663   6.320   1.982 -0.7197 -0.0662 -1.6790
 7869TIP3   OH245097   1.700   3.051  14.846 -0.4223  0.2568  0.6936
 7869TIP3    H145098   1.781   3.021  14.804 -1.8662 -0.2459 -1.8889
 7869TIP3    H245099   1.641   2.977  14.841 -1.1043  0.6052  2.5902
 7870TIP3   OH245100   2.048   4.745   5.951 -0.5351 -0.4615  0.1157
 7870TIP3    H145101   2.080   4.693   6.024  1.2028 -0.0936 -0.3416
 7870TIP3    H245102   1.953   4.734   5.953 -0.3880 -1.7004  1.4685
 7871TIP3   OH245103   4.539   0.590   0.121 -0.4298  0.0541  0.0018
 7871TIP3    H145104   4.526   0.633   0.205  1.1255  0.8937 -0.1431
 7871TIP3    H245105   4.454   0.596   0.077 -1.0261  0.3721  1.1668
 7872TIP3   OH245106   0.664   6.193   2.171  0.2801 -0.1706  0.8434
 7872TIP3    H145107   0.613   6.168   2.249 -1.5233  0.5956 -0.0319
 7872TIP3    H245108   0.702   6.111   2.140 -1.1545 -0.9457  1.0546
 7873TIP3   OH245109   0.207   1.969  16.450 -0.0357 -0.3941 -0.0528
 7873TIP3    H145110   0.288   1.962  16.500 -0.0328 -1.5786 -0.1906
 7873TIP3    H245111   0.200   2.062  16.428  3.2156 -0.6288 -3.1304
 7874TIP3   OH245112   6.692   0.897  16.317 -0.0630  0.0998 -0.2639
 7874TIP3    H145113   6.641   0.967  16.358  0.5373 -0.4489  1.5411
 7874TIP3    H245114   6.783   0.927  16.326  0.0359  1.1512 -3.5751
 7875TIP3   OH245115   1.293   1.581   0.645 -0.1501 -0.5425 -0.0027
 7875TIP3    H145116   1.249   1.666   0.651 -0.1822 -0.5330 -0.3834
 7875TIP3    H245117   1.223   1.520   0.621  0.0551 -0.5208 -0.6559
 7876TIP3   OH245118   3.246   2.840  11.691  0.0039 -0.4595 -0.1412
 7876TIP3    H145119   3.175   2.891  11.654  0.8299 -0.1155 -1.3112
 7876TIP3    H245120   3.211   2.806  11.774 -0.7646  1.4946  0.3770
 7877TIP3   OH245121   5.924   3.646   3.555  0.3933  0.5958  0.2765
 7877TIP3    H145122   5.955   3.675   3.641 -1.1128 -0.2101  1.1492
 7877TIP3    H245123   5.903   3.727   3.508 -1.2317  1.0403  1.6651
 7878TIP3   OH245124   3.821   5.606  11.216 -0.1504  0.2731  0.6342
 7878TIP3    H145125   3.808   5.536  11.281 -0.3608 -1.2768 -1.0031
 7878TIP3    H245126   3.914   5.601  11.195  0.1095  1.3859  1.4521
 7879TIP3   OH245127   5.192   2.623   4.359 -0.0808 -0.1435 -0.5133
 7879TIP3    H145128   5.198   2.718   4.367 -0.9580  0.0426 -1.7733
 7879TIP3    H245129   5.101   2.607   4.332 -0.9211 -1.5777  2.5955
 7880TIP3   OH245130   3.870   6.709   4.081 -0.2483 -0.3432  0.1546
 7880TIP3    H145131   3.854   6.626   4.036  0.6945 -0.2966 -0.2725
 7880TIP3    H245132   3.808   6.770   4.040  1.0095 -0.1396 -1.5649
 7881TIP3   OH245133   4.807   2.067  13.422  0.4503 -0.1715 -0.2031
 7881TIP3    H145134   4.861   2.043  13.347  0.1257 -0.0020 -0.4953
 7881TIP3    H245135   4.718   2.043  13.397 -0.0614  2.1383 -0.9158
 7882TIP3   OH245136   6.092   0.830   2.397  0.6191  0.6148 -0.2928
 7882TIP3    H145137   6.121   0.776   2.323 -0.0018  0.2414 -0.2735
 7882TIP3    H245138   6.082   0.767   2.469  0.6714  0.8874 -0.0476
 7883TIP3   OH245139   6.810   1.591   5.138 -0.0855 -0.6428  0.1757
 7883TIP3    H145140   6.840   1.533   5.068 -0.9353 -0.7351 -0.1311
 7883TIP3    H245141   6.749   1.650   5.094  0.0645 -0.1168  0.6689
 7884TIP3   OH245142   0.352   4.280   4.687 -0.2720 -0.0144 -0.1510
 7884TIP3    H145143   0.261   4.275   4.716  0.3377  0.0039  1.9078
 7884TIP3    H245144   0.354   4.356   4.629 -1.3025  0.8664  0.9048
 7885TIP3   OH245145   6.329   2.640  17.049  0.4323 -0.2836  0.1430
 7885TIP3    H145146   6.416   2.670  17.025  0.6082 -0.4608  0.5402
 7885TIP3    H245147   6.343   2.587  17.128  0.0337 -0.7591 -0.0957
 7886TIP3   OH245148   5.497   5.196  14.716  0.0556 -0.1794  0.8600
 7886TIP3    H145149   5.592   5.195  14.731  0.3079 -0.3266 -0.6270
 7886TIP3    H245150   5.471   5.286  14.737  0.8278  0.3604 -0.4056
 7887TIP3   OH245151   2.973   1.307   5.767 -0.0531 -0.4646 -0.3103
 7887TIP3    H145152   2.983   1.271   5.855  1.1641  0.0206 -0.2247
 7887TIP3    H245153   2.943   1.233   5.714 -2.9315 -0.2575  0.8861
 7888TIP3   OH245154   1.356   0.783  12.594 -0.3562  0.0386  0.3919
 7888TIP3    H145155   1.377   0.723  12.522  0.2491 -0.0238  0.6147
 7888TIP3    H245156   1.332   0.865  12.550  0.7192  0.2268  0.1234
 7889TIP3   OH245157   5.307   3.446  11.574 -1.0014 -0.2280 -0.2083
 7889TIP3    H145158   5.302   3.366  11.521 -1.1632 -1.2409  1.2717
 7889TIP3    H245159   5.260   3.512  11.522 -1.6845 -1.3256 -1.0352
 7890TIP3   OH245160   6.223   6.134   1.465  0.4034  0.6389  1.0349
 7890TIP3    H145161   6.274   6.204   1.505  0.4408  0.4644  1.2908
 7890TIP3    H245162   6.150   6.179   1.422 -0.0408  0.7664  1.9202
 7891TIP3   OH245163   0.253   1.121  11.685  0.1032 -0.0521  0.1003
 7891TIP3    H145164   0.336   1.077  11.668  1.1434  2.2133 -1.0595
 7891TIP3    H245165   0.276   1.213  11.697 -2.0867  0.4213  1.2827
 7892TIP3   OH245166   2.986   1.222  14.515 -0.3484  0.1264  0.2200
 7892TIP3    H145167   2.944   1.237  14.600  0.4863  2.3805  0.3108
 7892TIP3    H245168   3.035   1.302  14.499  0.6383 -0.8180 -1.7662
 7893TIP3   OH245169   5.503   1.133  16.073  0.0424  0.6761 -0.4680
 7893TIP3    H145170   5.521   1.185  16.152  2.0857 -1.5217  0.6574
 7893TIP3    H245171   5.413   1.102  16.085 -0.4182  2.0745 -0.0839
 7894TIP3   OH245172   1.977   6.098  15.326 -0.1427  0.4640  0.0125
 7894TIP3    H145173   2.025   6.056  15.254  2.0954  0.0696  1.6272
 7894TIP3    H245174   1.942   6.025  15.377  0.2355  0.6731  0.5740
 7895TIP3   OH245175   0.731   0.695   0.580 -0.4702  0.1775  0.1704
 7895TIP3    H145176   0.686   0.662   0.658  1.2436 -0.2592  1.0335
 7895TIP3    H245177   0.734   0.620   0.520 -0.2539 -0.0110  0.4144
 7896TIP3   OH245178   5.997   4.488  15.067 -0.1489  0.0153  0.6614
 7896TIP3    H145179   5.998   4.541  14.986 -1.1596  0.9550  1.2211
 7896TIP3    H245180   6.054   4.414  15.048  0.3793  0.6996 -0.5894
 7897TIP3   OH245181   5.272   3.247  12.778  0.0372 -0.5967  0.7853
 7897TIP3    H145182   5.205   3.220  12.715 -0.1347  0.5626  0.4523
 7897TIP3    H245183   5.231   3.234  12.864 -0.9257  0.8109  0.5756
 7898TIP3   OH245184   2.492   6.613  12.764 -0.3175 -0.1871  0.1876
 7898TIP3    H145185   2.481   6.637  12.672 -1.8124 -1.9874 -0.1510
 7898TIP3    H245186   2.403   6.603  12.797  0.2054  0.0668  1.7503
 7899TIP3   OH245187   4.057   1.013  16.789 -0.3975  0.2809 -0.5240
 7899TIP3    H145188   4.134   1.015  16.733  2.1652  0.2215  2.7110
 7899TIP3    H245189   4.003   0.943  16.753  0.1301  1.4457 -3.9155
 7900TIP3   OH245190   0.572   1.147   1.799  0.1799 -0.7475  0.2310
 7900TIP3    H145191   0.563   1.180   1.889  1.0955  0.2570 -0.0177
 7900TIP3    H245192   0.563   1.052   1.807 -0.3318 -0.6216  1.3029
 7901TIP3   OH245193   5.667   2.052   0.807  0.2593 -0.0597 -0.5151
 7901TIP3    H145194   5.675   2.021   0.897  1.9635  1.4882 -0.0862
 7901TIP3    H245195   5.579   2.090   0.802  0.8944  1.8002  1.1930
 7902TIP3   OH245196   5.230   4.549  12.496 -0.8470 -0.0627 -0.1406
 7902TIP3    H145197   5.291   4.623  12.491 -0.1564 -0.2526  3.2223
 7902TIP3    H245198   5.146   4.586  12.470  0.1375  0.9190 -2.1200
 7903TIP3   OH245199   4.234   3.580  14.262 -0.0285 -0.0383 -0.0040
 7903TIP3    H145200   4.222   3.649  14.196  1.3835 -0.0439 -0.2828
 7903TIP3    H245201   4.326   3.584  14.284 -0.5526  0.2868  2.3608
 7904TIP3   OH245202   3.514   6.393  13.418  0.0514  0.5205  0.1740
 7904TIP3    H145203   3.452   6.465  13.418  0.2957  0.7385 -0.2909
 7904TIP3    H245204   3.477   6.329  13.357  0.7345  1.0657 -0.8467
 7905TIP3   OH245205   0.663   3.186   2.224  0.0594 -0.1715  0.4056
 7905TIP3    H145206   0.756   3.209   2.226  0.3057 -1.1093  0.3296
 7905TIP3    H245207   0.652   3.122   2.294 -0.0791 -1.5690 -0.8207
 7906TIP3   OH245208   1.633   0.096   5.819  0.6335 -0.4038 -0.3544
 7906TIP3    H145209   1.563   0.073   5.880  1.1186 -0.6908  0.1079
 7906TIP3    H245210   1.603   0.176   5.777  1.0087  0.7361  1.4728
 7907TIP3   OH245211   5.771   1.636  14.138 -0.2984  0.1779 -0.2344
 7907TIP3    H145212   5.679   1.657  14.123 -0.2564 -0.6019 -1.9434
 7907TIP3    H245213   5.811   1.643  14.051  1.7583  2.6084  0.7841
 7908TIP3   OH245214   3.211   2.096  12.487  0.8101 -0.4989 -0.1251
 7908TIP3    H145215   3.132   2.150  12.489  1.3181  0.2620 -0.0639
 7908TIP3    H245216   3.250   2.108  12.573  3.0454  2.3232 -1.3471
 7909TIP3   OH245217   0.826   6.065  12.995 -0.4402 -0.0675  0.5656
 7909TIP3    H145218   0.902   6.017  12.963 -1.8649 -1.8314 -0.3269
 7909TIP3    H245219   0.832   6.150  12.951 -0.1087 -0.9511 -1.1733
 7910TIP3   OH245220   0.026   3.804   5.333  0.5654 -0.4715 -0.3637
 7910TIP3    H145221   0.120   3.790   5.322  1.2790  3.4117 -0.7632
 7910TIP3    H245222   0.008   3.774   5.422  2.4612 -0.3704  0.1035
 7911TIP3   OH245223   0.024   4.999  14.049 -0.4373 -0.0393  0.3746
 7911TIP3    H145224   0.060   5.045  13.974 -0.2597  2.7281  2.0307
 7911TIP3    H245225   0.088   4.930  14.068  0.4689  0.4380 -0.8228
 7912TIP3   OH245226   4.763   3.760  13.047  0.3774 -0.1217  0.3472
 7912TIP3    H145227   4.799   3.674  13.069 -0.3954 -0.5310  0.0425
 7912TIP3    H245228   4.815   3.789  12.972  0.5293 -0.4040  0.3409
 7913TIP3   OH245229   6.220   3.450   2.053  0.1385  0.6298 -0.0808
 7913TIP3    H145230   6.174   3.457   2.136 -0.2479  0.1137 -0.2487
 7913TIP3    H245231   6.209   3.537   2.013 -1.5830  0.2210 -0.5757
 7914TIP3   OH245232   3.665   1.904   1.787 -0.2129  0.2563  0.0242
 7914TIP3    H145233   3.617   1.975   1.830  0.7784  0.5113  0.7476
 7914TIP3    H245234   3.609   1.879   1.714 -0.9148  1.3046  0.1691
 7915TIP3   OH245235   1.018   2.154   0.194  0.3278  0.3307 -0.0251
 7915TIP3    H145236   1.071   2.225   0.230 -1.4922  1.6807  0.1282
 7915TIP3    H245237   1.036   2.156   0.100  1.9537 -0.4889  0.2455
 7916TIP3   OH245238   6.760   6.016  13.313  0.3161  0.2281 -0.6655
 7916TIP3    H145239   6.673   6.041  13.280  0.2830  1.0868  0.0258
 7916TIP3    H245240   6.748   6.011  13.408  0.7960 -0.6186 -0.6447
 7917TIP3   OH245241   4.565   3.166   1.327 -0.0979 -0.0127 -0.5861
 7917TIP3    H145242   4.587   3.192   1.417  0.5731  0.4381 -0.8784
 7917TIP3    H245243   4.509   3.088   1.338 -0.7264  0.5376  0.2372
 7918TIP3   OH245244   6.023   1.571   5.290 -0.5268 -1.2478  0.1204
 7918TIP3    H145245   6.064   1.570   5.203  0.1611 -1.4882  0.4432
 7918TIP3    H245246   6.079   1.629   5.342 -0.8992 -1.1558  0.4224
 7919TIP3   OH245247   5.955   3.304   0.291  0.5236 -0.5289  0.2174
 7919TIP3    H145248   5.983   3.213   0.280  1.8987 -0.1555  0.4106
 7919TIP3    H245249   5.860   3.299   0.302  0.3358 -1.7907 -1.4962
 7920TIP3   OH245250   4.347   3.540   4.119 -0.1622  0.0486 -0.2938
 7920TIP3    H145251   4.345   3.566   4.027 -0.0540 -2.4155 -1.0578
 7920TIP3    H245252   4.398   3.459   4.120 -0.4828 -0.1858  1.8890
 7921TIP3   OH245253   3.540   6.508  17.063  0.3956  0.0551  1.2001
 7921TIP3    H145254   3.550   6.497  17.158 -1.3541  0.7370  1.5063
 7921TIP3    H245255   3.498   6.594  17.054 -0.5317 -0.5127 -0.1147
 7922TIP3   OH245256   4.451   6.314  12.613  0.9503 -0.8506  0.0310
 7922TIP3    H145257   4.407   6.388  12.655  1.5041 -0.3668 -0.2207
 7922TIP3    H245258   4.381   6.262  12.575  0.6234  0.2728 -0.9694
 7923TIP3   OH245259   3.415   5.187   2.053  0.1031 -0.1367  0.0230
 7923TIP3    H145260   3.392   5.188   1.960 -2.2970  2.5119  0.5200
 7923TIP3    H245261   3.493   5.242   2.060 -0.6024  0.9175 -0.2733
 7924TIP3   OH245262   2.971   2.514   1.126  0.0344 -0.0328 -0.0388
 7924TIP3    H145263   3.021   2.595   1.116 -0.8048  0.4886 -0.0669
 7924TIP3    H245264   2.950   2.488   1.037  0.4602 -0.3893 -0.0392
 7925TIP3   OH245265   2.776   3.994   1.664  0.5919  0.4326  0.1950
 7925TIP3    H145266   2.700   4.040   1.701 -0.1719 -1.0293  0.4894
 7925TIP3    H245267   2.835   4.065   1.638 -0.8516  1.6093 -0.0362
 7926TIP3   OH245268   1.207   3.748  13.464  0.1423 -0.5103 -0.1034
 7926TIP3    H145269   1.161   3.691  13.402  0.4396  0.0920 -0.8998
 7926TIP3    H245270   1.159   3.738  13.546 -2.5908  1.4006 -1.2800
 7927TIP3   OH245271   5.437   5.114   3.594 -0.4995 -0.3423 -0.3660
 7927TIP3    H145272   5.417   5.177   3.525 -0.7162 -0.4292 -0.3819
 7927TIP3    H245273   5.522   5.142   3.628 -0.5190 -0.1406 -0.4848
 7928TIP3   OH245274   3.946   6.731  15.007 -0.1058 -0.1076  0.2702
 7928TIP3    H145275   3.887   6.786  15.058 -0.6462 -0.0333 -0.4151
 7928TIP3    H245276   4.008   6.791  14.967 -0.1306 -0.0881  0.2611
 7929TIP3   OH245277   2.122   3.068  15.189  0.3257  0.1032  0.0981
 7929TIP3    H145278   2.153   3.116  15.112 -0.7652  1.9020  0.7219
 7929TIP3    H245279   2.027   3.066  15.180  0.0171  1.9397  2.2323
 7930TIP3   OH245280   0.704   6.683   4.911  0.0831 -0.2734  0.2282
 7930TIP3    H145281   0.652   6.614   4.953 -0.0623 -0.2803  0.0366
 7930TIP3    H245282   0.743   6.730   4.984  2.8030 -2.4944  0.4004
 7931TIP3   OH245283   5.410   2.235   0.107  0.1158  0.4156  0.5255
 7931TIP3    H145284   5.443   2.308   0.159  1.5298 -0.9952  1.7276
 7931TIP3    H245285   5.343   2.194   0.162 -1.2618  1.2422 -0.4830
 7932TIP3   OH245286   3.633   5.522  15.724  0.2556 -0.1784  0.7529
 7932TIP3    H145287   3.693   5.447  15.722  0.0182 -0.3697  0.8017
 7932TIP3    H245288   3.622   5.545  15.631 -0.7962 -1.1085  0.6261
 7933TIP3   OH245289   4.052   3.840   2.876 -0.2230  0.1261  0.3439
 7933TIP3    H145290   4.148   3.845   2.882 -0.2834  1.4942  0.3241
 7933TIP3    H245291   4.020   3.916   2.924 -1.2886  0.1122 -0.3152
 7934TIP3   OH245292   6.284   5.803  14.182  0.3985  0.8508 -0.0660
 7934TIP3    H145293   6.254   5.723  14.226 -1.6387  1.9268  0.5987
 7934TIP3    H245294   6.324   5.855  14.251 -0.4715  1.4245  0.0246
 7935TIP3   OH245295   0.344   2.070   2.802 -0.3313 -0.1893 -0.2169
 7935TIP3    H145296   0.331   2.071   2.897 -3.3421 -2.1697 -0.4726
 7935TIP3    H245297   0.267   2.115   2.767 -0.8553 -2.1711 -1.7669
 7936TIP3   OH245298   4.990   1.511   0.510  0.2093 -0.2851 -0.0626
 7936TIP3    H145299   5.085   1.499   0.505  0.2921  0.1035  0.6085
 7936TIP3    H245300   4.960   1.439   0.565 -0.0661 -1.2565 -1.4241
 7937TIP3   OH245301   2.266   6.255   5.547  0.3781 -0.0431 -0.5196
 7937TIP3    H145302   2.223   6.336   5.520  0.6542  0.7315  1.2030
 7937TIP3    H245303   2.344   6.283   5.595 -0.4132 -1.2180  1.6323
 7938TIP3   OH245304   6.259   1.212  13.473  0.2092  0.3768  0.2759
 7938TIP3    H145305   6.215   1.295  13.493 -0.1033 -0.2095  2.2485
 7938TIP3    H245306   6.347   1.238  13.446 -0.3158  1.4069 -0.5383
 7939TIP3   OH245307   0.245   2.021   3.066 -0.1238  0.0875 -0.2674
 7939TIP3    H145308   0.246   2.107   3.107 -0.7539  0.4151 -0.9099
 7939TIP3    H245309   0.153   1.993   3.071 -0.2690  0.2413 -1.6230
 7940TIP3   OH245310   2.198   1.055   2.216  0.2468  0.6421  0.1659
 7940TIP3    H145311   2.189   1.081   2.124 -0.1148  0.4610  0.1476
 7940TIP3    H245312   2.285   1.014   2.221 -0.3523 -0.7592 -0.4460
 7941TIP3   OH245313   6.623   5.006   1.096  0.1750 -0.6763  0.5054
 7941TIP3    H145314   6.706   4.961   1.081  0.8035  0.5688  0.1547
 7941TIP3    H245315   6.617   5.071   1.026 -1.1313 -0.7779  0.4850
 7942TIP3   OH245316   6.808   3.318   4.774  0.0467  0.5714  0.1852
 7942TIP3    H145317   6.760   3.248   4.731 -0.2182  0.8154  0.0764
 7942TIP3    H245318   6.892   3.322   4.729 -0.4254  1.1692 -0.6658
 7943TIP3   OH245319   0.296   2.925  17.071 -0.0977  0.2392 -0.5491
 7943TIP3    H145320   0.216   2.898  17.116 -0.1576  0.6214 -0.4243
 7943TIP3    H245321   0.289   3.020  17.063  1.8766  0.7922  2.5008
 7944TIP3   OH245322   4.777   5.278   5.898 -0.2211 -0.0062  0.0925
 7944TIP3    H145323   4.813   5.264   5.986 -0.0645  1.1684  0.2312
 7944TIP3    H245324   4.709   5.344   5.911 -0.2873  0.0779 -0.6563
 7945TIP3   OH245325   6.619   3.236  16.390  0.4123  0.2820  0.5867
 7945TIP3    H145326   6.692   3.190  16.431  0.3567 -0.2333  0.1203
 7945TIP3    H245327   6.660   3.293  16.324  0.3776 -0.2074  0.1392
 7946TIP3   OH245328   0.200   2.038  10.615 -0.1806 -0.6481  0.2368
 7946TIP3    H145329   0.280   2.051  10.666 -0.2886 -1.3661  0.6106
 7946TIP3    H245330   0.213   1.953  10.572  0.0034  0.0439 -1.1224
 7947TIP3   OH245331   1.514   0.876   4.810 -0.3042  0.1448 -0.1546
 7947TIP3    H145332   1.569   0.885   4.887 -0.2425  2.3479 -0.3932
 7947TIP3    H245333   1.430   0.913   4.836 -0.4730  0.3354 -0.9432
 7948TIP3   OH245334   3.574   0.157   1.856  0.7358  0.1465  0.0061
 7948TIP3    H145335   3.493   0.115   1.885  0.4749  0.0841 -0.7924
 7948TIP3    H245336   3.590   0.122   1.768  1.8170 -0.1044  0.2820
 7949TIP3   OH245337   3.379   3.323  13.879 -0.5547  0.8129 -0.7369
 7949TIP3    H145338   3.331   3.404  13.860 -0.3563  0.8689 -1.0024
 7949TIP3    H245339   3.456   3.351  13.928  0.0832  0.9062 -1.7730
 7950TIP3   OH245340   3.727   3.435  11.943  0.3004 -0.1107  0.1972
 7950TIP3    H145341   3.764   3.386  11.869 -0.0147  0.4615 -0.3446
 7950TIP3    H245342   3.761   3.524  11.932  0.2082 -0.0123  0.7092
 7951TIP3   OH245343   6.209   4.548  13.261  0.0514 -0.4508  0.0898
 7951TIP3    H145344   6.186   4.570  13.171  0.1118 -1.3481 -0.1551
 7951TIP3    H245345   6.165   4.464  13.277 -0.5777  0.0593  1.1467
 7952TIP3   OH245346   6.332   2.767   2.712 -0.5171 -0.5874 -0.0282
 7952TIP3    H145347   6.255   2.823   2.700  1.4804  2.0181 -1.4095
 7952TIP3    H245348   6.347   2.728   2.625  0.5781  0.1185 -0.1699
 7953TIP3   OH245349   5.801   0.597   2.598 -0.0772 -0.1105  0.4421
 7953TIP3    H145350   5.891   0.596   2.564 -0.0665 -1.2308  0.4639
 7953TIP3    H245351   5.746   0.590   2.519 -0.1208 -0.2988  0.4895
 7954TIP3   OH245352   3.497   6.490   1.181  0.3536  0.6937 -0.2258
 7954TIP3    H145353   3.504   6.431   1.257  0.5160  0.7913 -0.1666
 7954TIP3    H245354   3.511   6.433   1.106 -1.2304  0.2986 -0.2766
 7955TIP3   OH245355   5.389   5.967  12.157 -0.3938  0.0166  0.7093
 7955TIP3    H145356   5.406   6.059  12.180  3.3916 -0.3997  0.2520
 7955TIP3    H245357   5.412   5.919  12.236 -1.5154 -0.6307  0.6565
 7956TIP3   OH245358   0.442   1.189  13.095  0.3222  0.2412 -0.4376
 7956TIP3    H145359   0.447   1.101  13.133  0.2581  0.5221  0.2247
 7956TIP3    H245360   0.531   1.223  13.101  0.6480 -0.2601 -1.8966
 7957TIP3   OH245361   2.806   3.978   0.837  0.2355  1.6202  0.5093
 7957TIP3    H145362   2.872   3.928   0.886  0.9829  0.3912 -1.6160
 7957TIP3    H245363   2.836   4.068   0.841  2.2304  1.0634 -0.5975
 7958TIP3   OH245364   4.507   2.795  14.036 -0.1394  0.2348 -0.4814
 7958TIP3    H145365   4.538   2.747  14.113 -1.3436 -0.0776 -0.1656
 7958TIP3    H245366   4.576   2.859  14.017 -0.8309  1.9513  2.2811
 7959TIP3   OH245367   1.259   6.551   6.375  0.2499  0.1899  0.3640
 7959TIP3    H145368   1.289   6.642   6.376 -0.2771  0.3757  1.8734
 7959TIP3    H245369   1.339   6.499   6.366  0.5005  0.7916 -1.2057
 7960TIP3   OH245370   4.518   2.742  13.078  0.2242 -0.0968 -0.0711
 7960TIP3    H145371   4.527   2.763  13.171  0.9185  0.0151 -0.1568
 7960TIP3    H245372   4.463   2.812  13.043 -0.2812 -0.2985  0.3096
 7961TIP3   OH245373   3.396   1.586  16.991 -0.2008 -0.6904 -0.2324
 7961TIP3    H145374   3.318   1.529  16.988  0.0653 -1.0288 -2.4030
 7961TIP3    H245375   3.361   1.675  16.984 -0.4568 -0.7921 -0.2728
 7962TIP3   OH245376   4.018   5.796   1.438 -0.7518  0.2182 -0.0337
 7962TIP3    H145377   4.075   5.747   1.496  0.5918  1.9888  0.2209
 7962TIP3    H245378   3.933   5.798   1.482  0.1494  1.2305  1.7427
 7963TIP3   OH245379   4.163   0.807  11.085 -0.1252  0.6928  0.5839
 7963TIP3    H145380   4.249   0.768  11.102 -0.5820 -0.9319 -0.5051
 7963TIP3    H245381   4.179   0.873  11.018  0.1292 -0.5822 -0.6736
 7964TIP3   OH245382   2.694   3.314  10.975  0.0591  0.0928  0.2779
 7964TIP3    H145383   2.642   3.392  10.956 -1.9720 -1.6517 -2.0491
 7964TIP3    H245384   2.776   3.327  10.927  0.2309  1.2307  0.8410
 7965TIP3   OH245385   0.482   2.997   4.478  0.0332  0.0656  0.1835
 7965TIP3    H145386   0.480   3.052   4.556 -0.0457 -0.7590  0.7853
 7965TIP3    H245387   0.523   2.915   4.508  1.1000  0.1615 -0.9255
 7966TIP3   OH245388   3.733   2.019  13.184  0.0123  0.5679  0.6626
 7966TIP3    H145389   3.762   1.930  13.162  0.8069  1.0892 -0.4799
 7966TIP3    H245390   3.811   2.073  13.175 -1.0071  1.8420 -1.5170
 7967TIP3   OH245391   1.776   5.579  13.095 -0.0153 -0.2775  1.0021
 7967TIP3    H145392   1.792   5.586  13.189  0.2808 -0.6912  0.9852
 7967TIP3    H245393   1.835   5.510  13.065  1.4839  1.2838  0.1346
 7968TIP3   OH245394   6.426   0.113   5.869 -0.9377  0.3531  0.0118
 7968TIP3    H145395   6.515   0.146   5.877 -0.8668  0.6266 -1.4575
 7968TIP3    H245396   6.431   0.046   5.801 -2.2189  2.1112 -1.9677
 7969TIP3   OH245397   0.850   0.207   3.648 -0.3271  0.0788 -0.0267
 7969TIP3    H145398   0.890   0.212   3.561  0.6573 -1.3896  0.2966
 7969TIP3    H245399   0.897   0.272   3.700  0.0884 -0.0399 -0.2424
 7970TIP3   OH245400   6.499   2.675  16.762 -0.2449 -0.1579 -0.2186
 7970TIP3    H145401   6.464   2.763  16.749 -1.4945 -0.7369 -1.0087
 7970TIP3    H245402   6.524   2.672  16.855 -0.9912  0.7576  0.0233
 7971TIP3   OH245403   5.481   5.529  16.377 -0.1648  0.0992 -0.0093
 7971TIP3    H145404   5.437   5.486  16.451 -0.6135 -2.0043 -1.4113
 7971TIP3    H245405   5.522   5.457  16.329  3.5297  1.7643  0.3068
 7972TIP3   OH245406   0.569   1.350   5.951  0.1217 -0.1461  0.4436
 7972TIP3    H145407   0.584   1.261   5.981 -2.3331 -1.1476 -1.0363
 7972TIP3    H245408   0.482   1.373   5.984 -0.9239  0.2147 -2.2795
 7973TIP3   OH245409   4.512   1.357  15.139 -0.0738  0.3904  0.2896
 7973TIP3    H145410   4.434   1.361  15.194  0.5888 -0.1579  1.2996
 7973TIP3    H245411   4.568   1.292  15.181  0.2844 -0.3619 -1.2669
 7974TIP3   OH245412   4.705   2.372  12.829 -0.0172 -0.0686  0.4760
 7974TIP3    H145413   4.782   2.426  12.813  0.2392 -0.7132 -0.6060
 7974TIP3    H245414   4.634   2.434  12.843  0.6872  0.5307  1.4460
 7975TIP3   OH245415   0.484   3.640   6.084 -0.1057  0.1292 -0.8806
 7975TIP3    H145416   0.439   3.714   6.124  0.6822  1.1767 -1.8276
 7975TIP3    H245417   0.425   3.611   6.014  1.2614  2.6465 -3.3164
 7976TIP3   OH245418   0.318   4.821  11.108  0.1652 -0.1966  0.1526
 7976TIP3    H145419   0.242   4.835  11.052 -0.7616 -2.2640  0.8127
 7976TIP3    H245420   0.339   4.728  11.098  0.9715 -0.2528  2.0009
 7977TIP3   OH245421   2.229   2.796   1.283  0.0804  0.8913  1.3458
 7977TIP3    H145422   2.238   2.700   1.284 -1.8236  0.1502 -5.3634
 7977TIP3    H245423   2.152   2.813   1.337 -0.7649 -1.6977  1.0958
 7978TIP3   OH245424   4.606   6.194   4.720  0.1059  0.4631 -0.2084
 7978TIP3    H145425   4.572   6.281   4.740 -1.3931 -0.1947  0.2537
 7978TIP3    H245426   4.532   6.147   4.683  0.6655 -0.8587  0.2683
 7979TIP3   OH245427   0.163   2.134   6.311  0.2871 -0.2532  0.1890
 7979TIP3    H145428   0.117   2.197   6.256  1.0372  0.0057 -0.1569
 7979TIP3    H245429   0.094   2.077   6.345 -0.1238 -0.9966 -1.7489
 7980TIP3   OH245430   4.758   6.159   1.745 -0.3825 -0.4849  0.3656
 7980TIP3    H145431   4.827   6.139   1.808  0.0026  1.5154  0.6512
 7980TIP3    H245432   4.685   6.102   1.771  0.0282 -0.2589  2.1561
 7981TIP3   OH245433   6.164   2.394  15.385  0.0580 -0.5395 -0.4880
 7981TIP3    H145434   6.234   2.414  15.323  1.1279 -4.3984 -0.7779
 7981TIP3    H245435   6.192   2.314  15.428 -0.9642  1.4967  4.6423
 7982TIP3   OH245436   2.189   2.671  15.196  0.2123  0.1071  0.4137
 7982TIP3    H145437   2.140   2.752  15.207  0.7677  0.3010  1.5376
 7982TIP3    H245438   2.272   2.686  15.240  1.0191 -0.4706 -0.8686
 7983TIP3   OH245439   6.519   1.571   1.574 -0.2015  0.6657  0.0989
 7983TIP3    H145440   6.596   1.557   1.630 -0.5548  0.7335  0.6128
 7983TIP3    H245441   6.475   1.647   1.613 -1.7337 -0.6891  1.1869
 7984TIP3   OH245442   5.022   3.891   2.085  0.4903  0.1484 -0.2296
 7984TIP3    H145443   4.950   3.932   2.132 -0.4023 -3.4049  1.8552
 7984TIP3    H245444   5.087   3.961   2.075 -0.8302  2.0819  3.0788
 7985TIP3   OH245445   3.589   5.438  11.500  0.1272  0.2972 -0.0086
 7985TIP3    H145446   3.518   5.377  11.483  0.1786  0.3987 -0.6247
 7985TIP3    H245447   3.558   5.522  11.466 -0.2122  0.7858  1.4256
 7986TIP3   OH245448   3.137   4.889  15.414 -0.1976 -0.4087 -0.0132
 7986TIP3    H145449   3.104   4.808  15.374  0.5002 -0.2651 -0.9233
 7986TIP3    H245450   3.074   4.956  15.388 -2.0059 -0.9604  2.5414
 7987TIP3   OH245451   6.555   4.997  11.563  0.1209  0.4458 -0.2138
 7987TIP3    H145452   6.489   5.012  11.495  0.1015  0.2689 -0.2346
 7987TIP3    H245453   6.635   5.034  11.527  1.0397 -2.7983 -1.9408
 7988TIP3   OH245454   0.191   0.323   4.205 -0.2858  0.6291 -0.3096
 7988TIP3    H145455   0.181   0.256   4.138 -0.9572 -0.0036  0.3961
 7988TIP3    H245456   0.279   0.310   4.239 -0.2506  0.3992 -0.4871
 7989TIP3   OH245457   0.548   0.876   1.863 -0.4635 -0.2223 -0.1445
 7989TIP3    H145458   0.579   0.788   1.842  1.0368  0.6231 -1.7234
 7989TIP3    H245459   0.583   0.893   1.951  0.9635 -0.4877 -0.6345
 7990TIP3   OH245460   0.910   5.256  15.997 -0.1463  0.2199 -0.5640
 7990TIP3    H145461   0.830   5.273  16.047  0.3500  0.9843  0.0011
 7990TIP3    H245462   0.981   5.271  16.060  0.4892  0.9599 -1.4180
 7991TIP3   OH245463   4.249   0.113  16.324  0.1143  0.0077 -0.2245
 7991TIP3    H145464   4.210   0.146  16.244 -0.1892  1.3172  0.4247
 7991TIP3    H245465   4.267   0.020  16.307 -1.4034 -0.1303 -1.2379
 7992TIP3   OH245466   1.515   2.481   3.076  0.1354  0.2054 -0.3341
 7992TIP3    H145467   1.493   2.533   3.154  0.2813 -0.3540  0.0865
 7992TIP3    H245468   1.609   2.465   3.083  0.4943  1.6198 -1.5379
 7993TIP3   OH245469   5.919   4.149  14.841 -0.2379 -0.3182  0.0620
 7993TIP3    H145470   5.881   4.075  14.792 -0.5375  0.1227 -0.3865
 7993TIP3    H245471   5.844   4.191  14.882  0.1432 -1.5160  2.1231
 7994TIP3   OH245472   1.006   0.935  11.834  0.0014  0.3187 -0.3058
 7994TIP3    H145473   0.970   0.846  11.832  0.4039  0.1501 -0.1199
 7994TIP3    H245474   0.981   0.972  11.750 -1.5645  0.5851  0.2355
 7995TIP3   OH245475   0.189   0.384   2.005 -0.3682  0.3598 -0.1975
 7995TIP3    H145476   0.099   0.377   2.036 -0.0296 -0.2559  0.6948
 7995TIP3    H245477   0.239   0.409   2.082  0.3256 -0.0488 -0.5029
 7996TIP3   OH245478   1.299   2.684  14.689 -0.2433 -0.1563  0.6979
 7996TIP3    H145479   1.258   2.728  14.614 -0.8331  0.5609  1.4306
 7996TIP3    H245480   1.307   2.593  14.661 -1.3439 -0.0934  0.1305
 7997TIP3   OH245481   5.352   3.788  15.025  0.0250 -0.3850 -0.4917
 7997TIP3    H145482   5.274   3.768  15.078 -1.1091  0.6069 -1.7037
 7997TIP3    H245483   5.322   3.777  14.935  1.5517 -0.7859 -0.9742
 7998TIP3   OH245484   0.214   1.791  17.033  0.7173 -0.8783 -0.7292
 7998TIP3    H145485   0.292   1.750  16.997 -0.7769 -2.1173 -2.7942
 7998TIP3    H245486   0.156   1.718  17.054 -0.2637  0.0315 -0.1363
 7999TIP3   OH245487   2.237   5.081  10.930  0.0635 -0.0160  0.4641
 7999TIP3    H145488   2.244   4.988  10.907 -0.5871  0.1327 -0.4063
 7999TIP3    H245489   2.314   5.122  10.890  0.3653 -0.1822  0.8721
 8000TIP3   OH245490   4.150   5.297  13.727 -0.2310  0.1674  0.0272
 8000TIP3    H145491   4.211   5.249  13.671  0.2011 -0.4079  0.9720
 8000TIP3    H245492   4.204   5.337  13.794 -0.9048 -0.6464  1.0895
 8001TIP3   OH245493   3.177   6.095  13.379 -0.1524  0.1509  0.3849
 8001TIP3    H145494   3.174   6.006  13.412  0.3579  0.6439  1.8369
 8001TIP3    H245495   3.172   6.085  13.284 -0.6932 -1.3750  0.5447
 8002TIP3   OH245496   2.064   2.248   0.811  0.0425 -0.2435 -0.1168
 8002TIP3    H145497   2.159   2.254   0.795  0.0853 -1.4786 -0.4600
 8002TIP3    H245498   2.056   2.253   0.906  0.3436  0.9323 -0.1320
 8003TIP3   OH245499   4.616   1.337   5.178 -0.0666  0.9281 -0.2129
 8003TIP3    H145500   4.554   1.270   5.206  1.2975 -0.3571 -0.1463
 8003TIP3    H245501   4.631   1.391   5.256 -0.4150  0.6908  0.0161
 8004TIP3   OH245502   5.166   1.230   4.781  0.3488  0.5257 -0.1201
 8004TIP3    H145503   5.227   1.303   4.774  1.0366  0.1724  1.5524
 8004TIP3    H245504   5.157   1.196   4.692  0.8614  1.9591 -0.7417
 8005TIP3   OH245505   1.385   3.856   2.924 -0.1296  0.1390  0.7558
 8005TIP3    H145506   1.410   3.882   3.013  1.0786  0.6865  0.2810
 8005TIP3    H245507   1.432   3.774   2.909 -0.0069  0.2575  0.4820
 8006TIP3   OH245508   3.575   2.271  15.503  0.1444 -0.9697  0.2333
 8006TIP3    H145509   3.535   2.341  15.555 -1.1886 -1.9480  0.5777
 8006TIP3    H245510   3.502   2.234  15.453  1.1357 -1.0210 -1.2391
 8007TIP3   OH245511   2.428   4.414   0.434 -0.5039 -1.1148 -0.2301
 8007TIP3    H145512   2.472   4.370   0.506  0.0833 -0.5811 -0.2484
 8007TIP3    H245513   2.336   4.391   0.444 -0.5225 -0.6074  1.0317
 8008TIP3   OH245514   6.703   0.903  15.553  0.4510  0.2078 -0.2174
 8008TIP3    H145515   6.691   0.976  15.613 -0.1835 -0.5162  0.5560
 8008TIP3    H245516   6.691   0.825  15.607  1.1871 -0.4804 -1.0114
 8009TIP3   OH245517   4.655   5.721  12.138 -0.2844  0.2679 -0.2803
 8009TIP3    H145518   4.606   5.669  12.075 -0.2047  1.6032 -1.5057
 8009TIP3    H245519   4.635   5.682  12.223  0.1023 -1.9722 -1.1556
 8010TIP3   OH245520   6.046   6.132   2.991 -0.1640 -0.0913  0.2994
 8010TIP3    H145521   6.129   6.094   3.020  0.0571 -0.1167 -0.3295
 8010TIP3    H245522   5.993   6.056   2.964  0.7041  0.0603 -2.0461
 8011TIP3   OH245523   4.128   5.427  16.423  0.4623  0.3966 -0.6727
 8011TIP3    H145524   4.151   5.410  16.332  1.4881 -0.4465 -0.2741
 8011TIP3    H245525   4.034   5.408  16.428  0.3046  0.8360 -1.6282
 8012TIP3   OH245526   3.345   0.471  13.338 -0.2213  0.6397  0.0133
 8012TIP3    H145527   3.356   0.466  13.433 -0.5180  1.0363  0.0706
 8012TIP3    H245528   3.251   0.456  13.324 -0.3639  1.6376 -0.1348
 8013TIP3   OH245529   3.000   2.554   4.491  0.4488  0.1878 -0.4199
 8013TIP3    H145530   3.062   2.481   4.492  0.1319 -0.0827  0.1313
 8013TIP3    H245531   2.914   2.513   4.503  0.5132  0.8348  3.6697
 8014TIP3   OH245532   3.650   6.426  12.438  0.0737 -0.1244 -0.3889
 8014TIP3    H145533   3.682   6.366  12.505 -0.7538 -0.2797 -0.1229
 8014TIP3    H245534   3.721   6.431  12.374  1.4550  1.0925  1.1457
 8015TIP3   OH245535   1.933   1.229  11.767 -0.0026  0.0007 -0.5893
 8015TIP3    H145536   1.980   1.232  11.851 -0.1717 -1.7409 -0.4039
 8015TIP3    H245537   1.997   1.260  11.703  0.5340  0.1664  0.0184
 8016TIP3   OH245538   0.954   2.110   0.870  0.4301 -0.3781  0.0625
 8016TIP3    H145539   0.870   2.152   0.853  0.9860  1.9567  2.3886
 8016TIP3    H245540   0.955   2.097   0.965  2.9617  0.3126  0.1961
 8017TIP3   OH245541   5.283   4.415  12.240  0.0992  0.6376  0.4348
 8017TIP3    H145542   5.220   4.357  12.282 -0.2028  0.1930 -0.5855
 8017TIP3    H245543   5.319   4.468  12.311  0.1761 -0.5986  1.3558
 8018TIP3   OH245544   6.275   3.934  16.144 -0.3249 -0.1733 -0.2077
 8018TIP3    H145545   6.180   3.922  16.146 -0.2685 -1.1178 -1.6703
 8018TIP3    H245546   6.306   3.897  16.227 -1.3478  1.6171  1.0189
 8019TIP3   OH245547   3.693   0.848   0.185  0.1762 -0.1832  0.4251
 8019TIP3    H145548   3.780   0.871   0.153  0.0372  0.2771  0.3724
 8019TIP3    H245549   3.655   0.931   0.215 -0.6455 -0.1901 -0.5233
 8020TIP3   OH245550   3.106   1.840  13.137  0.6339  0.5457  0.2586
 8020TIP3    H145551   3.200   1.825  13.151  0.2455 -6.6186 -1.1791
 8020TIP3    H245552   3.090   1.811  13.047 -3.1949 -0.8891  1.2150
 8021TIP3   OH245553   1.691   3.298  12.488  0.4824 -0.0257  0.4272
 8021TIP3    H145554   1.776   3.331  12.518 -0.0500  1.4078  0.4059
 8021TIP3    H245555   1.669   3.353  12.413  0.7910 -2.1788 -1.3479
 8022TIP3   OH245556   4.373   6.059  11.488  0.3079  0.2037  0.1064
 8022TIP3    H145557   4.280   6.081  11.478  0.0872 -1.2642 -1.5854
 8022TIP3    H245558   4.417   6.144  11.490 -0.7938  0.9822 -2.6864
 8023TIP3   OH245559   3.951   4.659  12.996  0.5167  0.4033 -0.1739
 8023TIP3    H145560   3.864   4.690  12.971  0.1608 -0.2876  0.1740
 8023TIP3    H245561   4.009   4.695  12.928 -0.3078 -0.6893 -1.5294
 8024TIP3   OH245562   0.735   4.729   1.179  0.1832 -0.1814  0.3713
 8024TIP3    H145563   0.790   4.787   1.126  0.7222 -0.1180  1.0009
 8024TIP3    H245564   0.775   4.643   1.169 -0.5419 -0.4439 -0.4564
 8025TIP3   OH245565   2.447   2.080   2.325 -0.2626  0.7152 -0.2954
 8025TIP3    H145566   2.498   2.112   2.400 -1.8341  1.6541  0.4173
 8025TIP3    H245567   2.479   1.990   2.312  0.5954  0.7953  0.9948
 8026TIP3   OH245568   3.959   5.554  14.711  0.0140  0.1190 -0.0397
 8026TIP3    H145569   4.044   5.511  14.704 -0.2626 -0.2424 -1.3404
 8026TIP3    H245570   3.896   5.486  14.691 -0.4570  0.9704 -1.5547
 8027TIP3   OH245571   6.287   0.843   3.120 -0.7411  0.5189 -0.2151
 8027TIP3    H145572   6.273   0.748   3.111 -1.4160  0.5087  0.8106
 8027TIP3    H245573   6.219   0.882   3.065 -1.4588  0.4086  0.5697
 8028TIP3   OH245574   2.783   3.351  14.092 -0.1844 -1.1193  0.3091
 8028TIP3    H145575   2.789   3.438  14.054  0.8817 -1.3184 -0.0186
 8028TIP3    H245576   2.740   3.364  14.176 -1.0167 -0.4364 -0.2121
 8029TIP3   OH245577   0.581   3.234   2.974  0.3288  0.1431 -0.1081
 8029TIP3    H145578   0.487   3.236   2.954 -0.1491  0.1469  1.8885
 8029TIP3    H245579   0.615   3.160   2.924 -0.4368  0.9782 -1.9483
 8030TIP3   OH245580   1.096   1.153  16.435  0.2132  0.9203 -0.7800
 8030TIP3    H145581   1.132   1.228  16.483 -0.0429  0.4543  0.1643
 8030TIP3    H245582   1.002   1.157  16.452  0.2023  0.3753 -0.6996
 8031TIP3   OH245583   5.576   6.436  11.039  0.1208 -0.1193 -0.3529
 8031TIP3    H145584   5.649   6.374  11.039  1.3527  1.2406  0.9368
 8031TIP3    H245585   5.520   6.408  10.967  2.0416 -1.0885 -1.5512
 8032TIP3   OH245586   5.761   1.623   0.767  0.3389 -0.4350 -0.1651
 8032TIP3    H145587   5.802   1.632   0.854 -0.1057  0.7112 -0.0653
 8032TIP3    H245588   5.834   1.629   0.706  0.6329 -1.0682  0.1092
 8033TIP3   OH245589   0.368   4.351  14.425 -0.5436 -0.0290  0.5700
 8033TIP3    H145590   0.292   4.354  14.367  0.2316 -0.0092 -0.4658
 8033TIP3    H245591   0.368   4.437  14.469 -1.2802 -0.1433  0.8025
 8034TIP3   OH245592   0.060   6.004  12.590  0.1339  0.0867 -0.3468
 8034TIP3    H145593  -0.025   5.960  12.594 -0.5130  1.0601 -2.3054
 8034TIP3    H245594   0.123   5.935  12.610 -1.0298 -1.0085 -0.3124
 8035TIP3   OH245595   5.282   1.431   1.260 -0.2614  0.6837 -0.1495
 8035TIP3    H145596   5.375   1.452   1.276 -0.2045  1.6726 -1.5565
 8035TIP3    H245597   5.261   1.477   1.179 -1.7479 -0.2861 -0.3528
 8036TIP3   OH245598   5.941   4.265   1.592  0.1881 -0.3462 -0.3662
 8036TIP3    H145599   5.880   4.191   1.595  0.6780 -0.7464 -0.1298
 8036TIP3    H245600   5.889   4.340   1.622  0.1568 -0.9408  1.1809
 8037TIP3   OH245601   0.159   4.695  14.359  0.3975 -0.5410 -0.7608
 8037TIP3    H145602   0.145   4.601  14.347 -1.4286 -0.9268  2.9929
 8037TIP3    H245603   0.073   4.729  14.385  1.4406  1.8051 -0.0925
 8038TIP3   OH245604   0.133   3.146   1.580  0.0849  0.1804 -0.4379
 8038TIP3    H145605   0.212   3.200   1.566 -1.1533  1.8359 -1.4981
 8038TIP3    H245606   0.067   3.209   1.609 -0.6660 -1.3135  1.2306
 8039TIP3   OH245607   0.777   1.751   2.655  0.6066 -0.5017  0.4884
 8039TIP3    H145608   0.745   1.671   2.614 -2.3568  0.5143  0.6207
 8039TIP3    H245609   0.750   1.744   2.746  1.1720  0.2404  0.7269
 8040TIP3   OH245610   4.124   2.181   3.731  0.8506 -0.5617 -0.4187
 8040TIP3    H145611   4.168   2.257   3.768 -0.5081  0.4680 -0.8041
 8040TIP3    H245612   4.085   2.214   3.649  0.9854 -1.9057 -1.0495
 8041TIP3   OH245613   4.416   4.471   5.553 -0.5649 -0.2171  0.1317
 8041TIP3    H145614   4.496   4.523   5.556 -0.6334 -0.0820 -0.3328
 8041TIP3    H245615   4.367   4.498   5.631  0.0173 -0.5977  0.6436
 8042TIP3   OH245616   0.769   0.476   0.918 -0.0114 -0.1658 -0.1819
 8042TIP3    H145617   0.846   0.430   0.886  0.7785  0.6178  0.5102
 8042TIP3    H245618   0.725   0.509   0.840  0.9420  0.2738 -0.5411
 8043TIP3   OH245619   1.991   1.925   4.649  0.1906  0.3545 -0.2547
 8043TIP3    H145620   1.977   1.850   4.707 -1.1195  0.4484 -0.4240
 8043TIP3    H245621   2.061   1.897   4.590 -1.0571 -1.1958 -1.0700
 8044TIP3   OH245622   3.082   0.073  14.913 -0.0311  0.6331 -0.5416
 8044TIP3    H145623   3.175   0.078  14.935 -0.1636 -1.6441  0.7453
 8044TIP3    H245624   3.077   0.010  14.841 -0.7405 -0.9646  0.8489
 8045TIP3   OH245625   1.989   4.977  15.109  0.2992  0.6420 -0.6677
 8045TIP3    H145626   1.991   5.067  15.142 -1.3108 -0.0965  1.7534
 8045TIP3    H245627   2.023   4.924  15.182  2.2133 -0.6886 -2.4007
 8046TIP3   OH245628   5.912   5.140   3.089 -0.2109  0.1354 -0.2061
 8046TIP3    H145629   5.906   5.222   3.137  1.8912 -0.4272  1.1439
 8046TIP3    H245630   5.833   5.093   3.112 -1.2853  1.6094 -0.7386
 8047TIP3   OH245631   1.777   2.084  15.893 -0.6096  0.2666  0.7036
 8047TIP3    H145632   1.759   2.045  15.979  2.8588  0.4126  1.6620
 8047TIP3    H245633   1.778   2.179  15.910 -1.2192  0.3727  0.1767
 8048TIP3   OH245634   6.441   2.818  11.491 -0.4133  0.5212 -0.0246
 8048TIP3    H145635   6.530   2.827  11.526 -0.4027 -0.0142  0.0893
 8048TIP3    H245636   6.435   2.727  11.463 -0.4196  0.9185 -1.4214
 8049TIP3   OH245637   1.309   1.525  10.276 -0.0200 -0.5091 -0.3681
 8049TIP3    H145638   1.289   1.434  10.297 -1.1255 -0.0255  0.7961
 8049TIP3    H245639   1.287   1.574  10.355  3.6143  0.4185  0.2481
 8050TIP3   OH245640   0.663   0.793   4.974 -0.5869  0.0830  0.3431
 8050TIP3    H145641   0.608   0.845   4.915  0.0303 -1.2643 -1.5020
 8050TIP3    H245642   0.709   0.732   4.916 -0.2882 -1.6162  2.2781
 8051TIP3   OH245643   0.526   5.581  10.782  0.1723  0.3639  0.1987
 8051TIP3    H145644   0.542   5.496  10.822 -0.8035  0.9011  1.8414
 8051TIP3    H245645   0.585   5.585  10.707  0.3685 -1.6638  0.2130
 8052TIP3   OH245646   2.191   5.813  16.545 -0.2141 -0.0815 -0.4432
 8052TIP3    H145647   2.148   5.786  16.464  0.7227  1.9537 -1.7064
 8052TIP3    H245648   2.275   5.766  16.545 -0.8413 -1.2452  0.1619
 8053TIP3   OH245649   4.785   0.934   1.263 -0.3495  0.6976  0.8329
 8053TIP3    H145650   4.771   0.854   1.313  1.7317  0.3411  0.9334
 8053TIP3    H245651   4.817   0.998   1.327 -1.4102  1.4516  0.6432
 8054TIP3   OH245652   1.293   0.175   6.153 -0.0372 -0.2186  0.5687
 8054TIP3    H145653   1.272   0.108   6.089 -0.8944 -0.8654  1.4876
 8054TIP3    H245654   1.374   0.144   6.195 -0.9159 -1.1831  1.6177
 8055TIP3   OH245655   2.309   5.201   3.707 -0.4144 -0.0654  1.1305
 8055TIP3    H145656   2.259   5.283   3.704  2.5625  1.9288  1.1639
 8055TIP3    H245657   2.325   5.180   3.616 -0.8980 -0.4561  1.1313
 8056TIP3   OH245658   0.874   1.570   2.278  0.1734 -0.3133 -0.2949
 8056TIP3    H145659   0.942   1.635   2.295  1.4981 -1.1866 -1.9668
 8056TIP3    H245660   0.793   1.612   2.307  1.1971  1.4243  0.1894
 8057TIP3   OH245661   2.217   0.811   4.239 -0.5485 -0.0038 -0.2016
 8057TIP3    H145662   2.213   0.906   4.242 -0.8983  0.0515 -1.6084
 8057TIP3    H245663   2.248   0.791   4.151 -1.8936 -1.2057 -0.4461
 8058TIP3   OH245664   3.851   0.992  17.184  1.0097  0.5562  0.0079
 8058TIP3    H145665   3.769   1.029  17.217  1.6691  0.6701  1.5838
 8058TIP3    H245666   3.823   0.925  17.121 -0.3039  0.3404  0.7790
 8059TIP3   OH245667   0.443   6.560   3.684  0.2336 -0.2660  0.4168
 8059TIP3    H145668   0.432   6.552   3.589 -0.6911 -0.6176  0.5493
 8059TIP3    H245669   0.446   6.655   3.699  2.2915 -0.1920 -0.1537
 8060TIP3   OH245670   2.868   0.872  12.732 -0.3475 -0.1324 -0.4232
 8060TIP3    H145671   2.820   0.873  12.815 -0.9380 -0.8243 -0.7376
 8060TIP3    H245672   2.902   0.961  12.723 -1.9068  0.5093 -0.3566
 8061TIP3   OH245673   0.802   3.986   5.468 -0.0488  0.1573  0.1237
 8061TIP3    H145674   0.863   4.016   5.535 -0.7591  1.0028  0.4161
 8061TIP3    H245675   0.839   4.018   5.386  1.1085 -1.3425  0.0116
 8062TIP3   OH245676   4.643   1.088  17.183 -0.1064  0.0377  0.2020
 8062TIP3    H145677   4.659   0.993  17.186  0.4259  0.1319  0.4397
 8062TIP3    H245678   4.713   1.126  17.236  0.5722  0.6640 -1.0876
 8063TIP3   OH245679   4.109   2.952  10.682  0.1471  0.3327 -0.6244
 8063TIP3    H145680   4.050   2.959  10.607 -0.8871  1.1271  0.2322
 8063TIP3    H245681   4.051   2.951  10.758  1.1826 -0.2845  0.1913
 8064TIP3   OH245682   5.269   0.347  15.160  0.3085  0.1211 -0.1188
 8064TIP3    H145683   5.281   0.256  15.189  0.5718  0.0021 -0.5901
 8064TIP3    H245684   5.249   0.340  15.067  3.0981  0.6545 -0.8613
 8065TIP3   OH245685   0.616   0.173  11.966 -0.2479  0.2384  0.0391
 8065TIP3    H145686   0.594   0.152  11.875 -1.3012 -0.2525  0.3889
 8065TIP3    H245687   0.705   0.140  11.977 -1.0150 -2.0969 -0.1055
 8066TIP3   OH245688   5.735   2.517  10.984 -0.0968  0.3410 -0.0984
 8066TIP3    H145689   5.756   2.560  10.901  0.6153  2.6947  1.1944
 8066TIP3    H245690   5.640   2.526  10.992 -0.8436 -3.3123 -2.2914
 8067TIP3   OH245691   5.166   0.701  14.079 -0.1688  0.2076 -0.3604
 8067TIP3    H145692   5.090   0.724  14.132 -0.2434 -1.2613  0.2059
 8067TIP3    H245693   5.155   0.607  14.060  1.3839  0.0212 -0.4619
 8068TIP3   OH245694   6.289   4.683  16.292  0.3458  0.8130 -0.1915
 8068TIP3    H145695   6.222   4.734  16.338 -0.0934 -0.5725  0.7958
 8068TIP3    H245696   6.243   4.648  16.215 -0.8763 -2.0355  1.6674
 8069TIP3   OH245697   6.227   5.100  14.864 -0.3994 -0.3591  0.1915
 8069TIP3    H145698   6.163   5.167  14.838 -0.0674 -0.4797 -1.0106
 8069TIP3    H245699   6.175   5.024  14.888 -0.7414 -0.0814  0.3364
 8070TIP3   OH245700   6.564   6.525   4.555 -0.2882 -0.1773 -0.0005
 8070TIP3    H145701   6.577   6.472   4.476  1.0560 -0.6527  0.4943
 8070TIP3    H245702   6.649   6.567   4.570 -0.8112  0.6861  0.6401
 8071TIP3   OH245703   4.060   6.316  14.342 -0.2996  0.3423  0.1188
 8071TIP3    H145704   4.008   6.237  14.356 -0.0628 -0.1724 -1.6599
 8071TIP3    H245705   3.996   6.382  14.315 -0.2286  0.1440 -0.5403
 8072TIP3   OH245706   0.451   2.876   0.844  0.1823  0.1475  0.5020
 8072TIP3    H145707   0.402   2.838   0.917  0.8571  1.6183  1.7822
 8072TIP3    H245708   0.456   2.806   0.779 -1.0304 -0.9846  1.5756
 8073TIP3   OH245709   5.089   1.222  10.332  0.2317  0.2021 -0.2714
 8073TIP3    H145710   5.029   1.293  10.354  0.6631  1.0627 -1.7347
 8073TIP3    H245711   5.168   1.267  10.301  1.6412 -0.8856  1.5077
 8074TIP3   OH245712   6.668   4.337  13.340  0.6570 -0.3023  0.3836
 8074TIP3    H145713   6.624   4.417  13.310 -0.0065 -1.1139 -0.9072
 8074TIP3    H245714   6.761   4.357  13.334  0.5472  1.2766  2.6630
 8075TIP3   OH245715   2.022   0.335   0.792  0.2673  0.1898  0.1297
 8075TIP3    H145716   2.100   0.306   0.744 -0.7605  0.0897 -1.5641
 8075TIP3    H245717   1.998   0.259   0.846  1.8908  0.5718  1.4667
 8076TIP3   OH245718   5.002   1.422   5.301 -0.0810 -0.5834 -0.3086
 8076TIP3    H145719   4.962   1.509   5.298 -2.2646 -1.4326  1.4722
 8076TIP3    H245720   5.016   1.399   5.210 -2.2323  0.4510 -0.9763
 8077TIP3   OH245721   5.524   1.807   3.279 -0.3086  0.0312 -0.1588
 8077TIP3    H145722   5.554   1.837   3.193  1.9447 -2.6480 -0.4571
 8077TIP3    H245723   5.489   1.719   3.263  0.2065 -0.5459  1.6284
 8078TIP3   OH245724   0.359   6.212   5.641  0.3579 -0.2009 -0.1441
 8078TIP3    H145725   0.409   6.205   5.560 -0.2087 -0.8571 -0.4446
 8078TIP3    H245726   0.396   6.146   5.699 -0.4560 -1.0376 -0.5422
 8079TIP3   OH245727   5.221   6.562  15.071  0.0025 -0.5880 -0.1084
 8079TIP3    H145728   5.188   6.525  15.153 -0.7705  1.5162  0.5769
 8079TIP3    H245729   5.254   6.648  15.095  3.3412 -1.3625 -1.3254
 8080TIP3   OH245730   6.252   0.158   5.187 -0.3997  0.0714 -0.0938
 8080TIP3    H145731   6.232   0.250   5.205 -1.5558 -0.2054  0.1102
 8080TIP3    H245732   6.266   0.156   5.092 -2.2614  0.1528 -0.4079
 8081TIP3   OH245733   3.116   3.227   4.103 -0.3497  0.0948  0.3423
 8081TIP3    H145734   3.041   3.193   4.054  0.0120 -0.3660  0.1053
 8081TIP3    H245735   3.086   3.226   4.194 -0.9927  0.8785  0.1569
 8082TIP3   OH245736   2.075   6.103  16.243  0.4462  0.0526 -0.0380
 8082TIP3    H145737   2.003   6.040  16.237  1.0190 -0.8861  1.9408
 8082TIP3    H245738   2.044   6.180  16.194 -0.2661 -1.7045 -2.5387
 8083TIP3   OH245739   5.886   6.390  16.520 -0.1746 -0.0682  0.1842
 8083TIP3    H145740   5.896   6.402  16.425 -0.2403 -1.6243 -0.0446
 8083TIP3    H245741   5.944   6.456  16.558 -0.0351  0.4909 -0.9334
 8084TIP3   OH245742   1.516   5.692   1.399 -0.4955 -0.1962  0.3762
 8084TIP3    H145743   1.512   5.740   1.317  0.9547  0.8853  0.8898
 8084TIP3    H245744   1.456   5.739   1.458  2.0758  2.1828  1.3762
 8085TIP3   OH245745   5.812   4.041  11.333 -0.0972 -0.1385 -0.4106
 8085TIP3    H145746   5.881   4.090  11.287 -0.3140  0.3083 -0.2622
 8085TIP3    H245747   5.848   4.024  11.420  0.5564 -1.5084 -0.9228
 8086TIP3   OH245748   3.343   5.863   2.520  0.1602  0.6369 -0.7592
 8086TIP3    H145749   3.256   5.901   2.534  1.7073  4.1154  0.4995
 8086TIP3    H245750   3.394   5.894   2.595  2.6460 -0.8618 -1.7386
 8087TIP3   OH245751   0.450   3.548   0.757  0.2016 -0.4672  0.1314
 8087TIP3    H145752   0.443   3.630   0.804 -0.1791 -1.2470  1.4852
 8087TIP3    H245753   0.402   3.563   0.675 -0.0841  0.5580  0.4806
 8088TIP3   OH245754   6.745   2.043  16.686 -0.2632  0.0631  0.0495
 8088TIP3    H145755   6.764   2.078  16.598 -0.8696  1.6172  0.4956
 8088TIP3    H245756   6.831   2.033  16.727 -0.0551  3.2284  0.6591
 8089TIP3   OH245757   1.145   4.565   3.387 -0.1867 -0.8881 -0.0493
 8089TIP3    H145758   1.162   4.615   3.307  1.4770 -0.2186  0.6787
 8089TIP3    H245759   1.061   4.598   3.419  0.3754  0.7342 -0.1507
 8090TIP3   OH245760   1.561   6.007   0.604 -0.3452 -0.0170 -0.3557
 8090TIP3    H145761   1.618   6.072   0.644  1.2788 -1.1317 -0.7830
 8090TIP3    H245762   1.484   6.004   0.661  0.3123  1.0235  0.6266
 8091TIP3   OH245763   3.837   4.627   5.056  0.0693 -0.7688 -0.8167
 8091TIP3    H145764   3.800   4.557   5.002  2.1142 -0.9478 -2.0903
 8091TIP3    H245765   3.884   4.582   5.125 -1.0039 -0.5587  0.0848
 8092TIP3   OH245766   6.695   3.896  13.617 -0.2407  0.2475  0.7052
 8092TIP3    H145767   6.653   3.826  13.567 -1.3049  0.7010  0.9405
 8092TIP3    H245768   6.769   3.923  13.562  1.9247 -2.8516  1.7995
 8093TIP3   OH245769   6.663   5.414   4.654 -0.4824 -0.4850  0.3036
 8093TIP3    H145770   6.717   5.476   4.703 -0.6106  0.1492 -0.3374
 8093TIP3    H245771   6.701   5.414   4.566  0.1533 -2.0945  0.5355
 8094TIP3   OH245772   2.444   6.427  16.621  0.0117 -0.8082 -0.0453
 8094TIP3    H145773   2.454   6.425  16.716 -2.0072 -1.3686  0.1977
 8094TIP3    H245774   2.481   6.511  16.595  1.2419 -0.9495  1.1326
 8095TIP3   OH245775   6.196   5.395   0.877  0.0378  0.2576 -0.7864
 8095TIP3    H145776   6.135   5.321   0.876 -0.1876  0.4423 -1.0986
 8095TIP3    H245777   6.238   5.391   0.963 -2.2057  1.5833  0.4805
 8096TIP3   OH245778   4.811   2.608  12.717  0.0550  0.4335 -0.0422
 8096TIP3    H145779   4.787   2.569  12.633 -0.3809  1.1347 -0.2588
 8096TIP3    H245780   4.766   2.693  12.717 -1.5157 -0.3415  1.7130
 8097TIP3   OH245781   5.383   6.709  10.334  0.3377 -0.1239  0.3802
 8097TIP3    H145782   5.362   6.618  10.358 -1.5433  0.0077 -0.5947
 8097TIP3    H245783   5.469   6.725  10.373  0.9568 -2.4923  0.1457
 8098TIP3   OH245784   6.290   2.413   1.950  0.7438 -1.0446  0.5274
 8098TIP3    H145785   6.302   2.446   2.039 -2.2961 -2.8992  1.7613
 8098TIP3    H245786   6.354   2.342   1.943  2.0478  0.0750  0.6089
 8099TIP3   OH245787   6.331   4.931   4.061  0.5964  0.1457  0.0544
 8099TIP3    H145788   6.426   4.932   4.069  0.6301  2.2575 -0.0746
 8099TIP3    H245789   6.312   4.989   3.987 -0.8375  0.8166  0.9008
 8100TIP3   OH245790   3.178   6.799   3.389  0.5084 -0.5391  0.1186
 8100TIP3    H145791   3.217   6.852   3.318 -1.5153  0.9407  0.0121
 8100TIP3    H245792   3.089   6.781   3.358 -0.2545 -0.2818  2.0624
 8101TIP3   OH245793   6.425   1.359   6.454  0.7937 -0.1179  0.3211
 8101TIP3    H145794   6.338   1.318   6.444  0.0450  1.6963 -1.3605
 8101TIP3    H245795   6.484   1.299   6.408  0.4513 -1.3324  1.4050
 8102TIP3   OH245796   6.402   5.422  12.023  0.3050 -0.0889 -0.0924
 8102TIP3    H145797   6.451   5.402  12.102 -0.5845  0.1538  0.5362
 8102TIP3    H245798   6.381   5.336  11.986  0.2784 -0.2164  0.2180
 8103TIP3   OH245799   2.656   1.025   6.380  0.0558  0.4909 -0.1725
 8103TIP3    H145800   2.566   0.994   6.390  0.1600  0.5347  1.0936
 8103TIP3    H245801   2.684   1.045   6.470  1.1567  0.9545 -0.6057
 8104TIP3   OH245802   4.719   0.418   1.798 -0.4124 -0.1096 -0.3847
 8104TIP3    H145803   4.627   0.416   1.772 -0.3239  0.5371 -0.7533
 8104TIP3    H245804   4.759   0.348   1.747 -1.1276 -2.0391  1.5295
 8105TIP3   OH245805   5.967   1.647  12.039 -0.1426  0.4152 -0.4246
 8105TIP3    H145806   6.035   1.593  11.998 -2.3009 -2.4660 -0.5081
 8105TIP3    H245807   6.004   1.670  12.124  1.1767 -0.6044 -0.6731
 8106TIP3   OH245808   3.715   3.234  10.642  0.3999 -0.0087 -0.3701
 8106TIP3    H145809   3.644   3.251  10.704 -0.0409 -0.4960 -0.7243
 8106TIP3    H245810   3.794   3.229  10.695  0.4153  2.0620 -0.1216
 8107TIP3   OH245811   2.187   2.964  14.268  0.4578 -0.3926 -0.1633
 8107TIP3    H145812   2.122   2.896  14.284  0.2758 -0.1659  0.0703
 8107TIP3    H245813   2.187   2.976  14.173 -0.3072  0.0620 -0.1085
 8108TIP3   OH245814   4.510   1.361  16.085 -0.0587 -0.0270  0.1769
 8108TIP3    H145815   4.501   1.293  16.152  1.5329 -0.1438  0.3085
 8108TIP3    H245816   4.482   1.319  16.004  0.5926 -0.7410  0.3146
 8109TIP3   OH245817   1.087   4.153   4.702  0.4864  0.0412  0.4231
 8109TIP3    H145818   1.007   4.203   4.683  0.3859 -0.9093 -2.0701
 8109TIP3    H245819   1.148   4.217   4.737 -0.3094  1.5270 -0.7853
 8110TIP3   OH245820   5.225   4.926   2.331  0.0763  0.4233  0.0978
 8110TIP3    H145821   5.270   4.909   2.248  1.3285 -1.5150  1.1096
 8110TIP3    H245822   5.137   4.891   2.317 -0.0100  0.9348 -0.6992
 8111TIP3   OH245823   3.791   6.046   1.638 -0.4476 -0.2391  0.2511
 8111TIP3    H145824   3.793   5.969   1.695  1.2164 -0.0861  0.4452
 8111TIP3    H245825   3.848   6.109   1.682 -0.3458  0.4313 -0.8237
 8112TIP3   OH245826   4.079   1.773  16.902 -0.4298  0.0111 -0.1165
 8112TIP3    H145827   4.102   1.814  16.819  1.2041  0.2708  0.4229
 8112TIP3    H245828   4.015   1.832  16.941  0.6499  1.2088 -0.0989
 8113TIP3   OH245829   3.181   2.254   2.824 -0.6701  0.4977 -0.0258
 8113TIP3    H145830   3.184   2.341   2.863  0.5408  0.7578 -0.6281
 8113TIP3    H245831   3.147   2.197   2.893  0.5522  1.0971  1.1165
 8114TIP3   OH245832   2.449   4.625   2.241  0.4541  0.5862 -0.4603
 8114TIP3    H145833   2.516   4.637   2.308  0.3673 -1.4383  0.0672
 8114TIP3    H245834   2.456   4.532   2.217 -1.1857  0.6776 -1.4412
 8115TIP3   OH245835   1.396   6.245  14.150 -0.2367  0.3223  0.2891
 8115TIP3    H145836   1.415   6.252  14.243  0.3201  0.7204  0.1483
 8115TIP3    H245837   1.305   6.215  14.146  0.4605 -2.0931  0.9970
 8116TIP3   OH245838   5.091   5.252  12.858  0.3278 -0.5677 -0.3613
 8116TIP3    H145839   5.050   5.166  12.865 -1.6226  0.0801 -2.4732
 8116TIP3    H245840   5.087   5.288  12.947  0.1810 -2.2050  0.3281
 8117TIP3   OH245841   4.635   1.369   0.746  0.7853 -0.4083 -0.2805
 8117TIP3    H145842   4.597   1.331   0.825  1.2796 -0.4206 -0.0390
 8117TIP3    H245843   4.604   1.460   0.745  0.9260 -0.3540  0.0358
 8118TIP3   OH245844   3.610   5.949   2.312 -0.3653  0.1538  0.0080
 8118TIP3    H145845   3.564   6.012   2.256  1.5867  1.1136 -0.5981
 8118TIP3    H245846   3.567   5.865   2.295 -0.8715  0.7352 -1.6979
 8119TIP3   OH245847   0.347   5.606   2.978 -0.5892 -0.7289 -0.4098
 8119TIP3    H145848   0.351   5.589   2.884 -0.3395 -0.6197 -0.4207
 8119TIP3    H245849   0.254   5.606   2.998 -0.7918  1.2606 -1.0415
 8120TIP3   OH245850   3.573   2.583   0.738  0.2187  0.2360  0.5967
 8120TIP3    H145851   3.598   2.637   0.663 -2.0014  0.1117 -0.3177
 8120TIP3    H245852   3.638   2.513   0.739  0.3990  0.3221 -1.1401
 8121TIP3   OH245853   2.235   4.528   0.859 -0.0953  0.2338 -0.5036
 8121TIP3    H145854   2.205   4.442   0.889  0.3289 -0.2795 -1.4716
 8121TIP3    H245855   2.163   4.587   0.879 -0.2808 -0.2978  0.4284
 8122TIP3   OH245856   5.587   0.812   5.146 -0.0419 -0.4183 -0.0203
 8122TIP3    H145857   5.519   0.858   5.195 -2.3831 -0.4892 -2.9463
 8122TIP3    H245858   5.659   0.804   5.208 -0.8094  3.9482  1.8131
 8123TIP3   OH245859   1.270   2.552   0.232 -0.1551 -0.4415  0.0323
 8123TIP3    H145860   1.326   2.477   0.255 -0.1956 -0.6390 -0.5082
 8123TIP3    H245861   1.244   2.589   0.317  0.7543 -0.3774  0.2940
 8124TIP3   OH245862   4.897   0.565   2.152 -0.6685 -0.2791 -0.5116
 8124TIP3    H145863   4.829   0.506   2.185 -0.6669  0.4025  0.7703
 8124TIP3    H245864   4.978   0.530   2.189 -0.7874  1.1133  1.1950
 8125TIP3   OH245865   3.882   0.840  16.642  0.0899  0.3761  0.1837
 8125TIP3    H145866   3.853   0.886  16.563 -1.9003 -0.8752  0.1110
 8125TIP3    H245867   3.913   0.755  16.611  1.4729  0.7126  0.5564
 8126TIP3   OH245868   1.324   1.927  16.142 -0.4839 -0.3951  0.4546
 8126TIP3    H145869   1.336   1.863  16.213  1.3372  1.2092  1.6956
 8126TIP3    H245870   1.412   1.941  16.107 -0.8697  1.2531  0.0681
 8127TIP3   OH245871   0.048   2.300   0.275 -0.1080 -0.4323 -0.2981
 8127TIP3    H145872   0.075   2.338   0.191 -1.3844 -0.8444 -0.9147
 8127TIP3    H245873   0.119   2.323   0.335  0.7174  0.0760 -1.4276
 8128TIP3   OH245874   4.049   5.400  11.983 -0.1107 -0.5023  0.5029
 8128TIP3    H145875   4.076   5.340  11.914 -1.2755 -0.6129  0.1269
 8128TIP3    H245876   4.087   5.363  12.063  1.4664 -0.2301 -0.0814
 8129TIP3   OH245877   6.427   1.525  14.211  0.0384 -0.3766  0.3648
 8129TIP3    H145878   6.447   1.541  14.119  0.4070  0.4865  0.5939
 8129TIP3    H245879   6.512   1.527  14.255 -0.0554 -1.4886  0.6337
 8130TIP3   OH245880   0.367   6.542  15.881 -0.0207 -0.3346 -0.0268
 8130TIP3    H145881   0.289   6.548  15.937  0.8797 -1.1220  1.3784
 8130TIP3    H245882   0.373   6.449  15.859  0.8100 -0.3768  0.3352
 8131TIP3   OH245883   4.286   3.543   0.050 -0.5267 -0.0937 -0.1823
 8131TIP3    H145884   4.327   3.573  -0.031  0.7857 -0.9705  0.1336
 8131TIP3    H245885   4.275   3.449   0.039  0.1459 -0.3115  0.8406
 8132TIP3   OH245886   1.303   5.832  15.106 -0.0111  0.1191  0.1503
 8132TIP3    H145887   1.264   5.887  15.174  1.1584 -0.0143  0.9672
 8132TIP3    H245888   1.335   5.755  15.154  0.0888 -0.3662 -0.6875
 8133TIP3   OH245889   5.307   6.279   5.464 -0.2356  0.3151 -0.8857
 8133TIP3    H145890   5.321   6.344   5.532  0.6792  0.8793 -1.5922
 8133TIP3    H245891   5.361   6.205   5.489  0.6155  0.7781 -1.3271
 8134TIP3   OH245892   1.286   0.907  11.574 -0.2810  0.1637  0.0995
 8134TIP3    H145893   1.198   0.928  11.543  0.3489  1.4672 -0.8805
 8134TIP3    H245894   1.337   0.892  11.494  0.0018 -2.4069  0.6794
 8135TIP3   OH245895   5.868   1.670  13.608 -0.1756  0.4402 -0.2196
 8135TIP3    H145896   5.953   1.695  13.572 -0.3986  0.3995 -0.7786
 8135TIP3    H245897   5.809   1.741  13.583 -0.3753  0.3222 -0.0922
 8136TIP3   OH245898   3.909   6.587  13.670 -0.0281 -0.5763 -0.1827
 8136TIP3    H145899   3.904   6.567  13.576  2.2755 -0.6028 -0.3574
 8136TIP3    H245900   3.853   6.521  13.711  0.2274 -1.6106 -1.4237
 8137TIP3   OH245901   3.159   4.843   1.113  0.7497 -0.3071  0.4619
 8137TIP3    H145902   3.087   4.867   1.054  2.1504 -0.1584 -1.2604
 8137TIP3    H245903   3.118   4.788   1.179 -1.2292  1.0390  0.4475
 8138TIP3   OH245904   0.076   1.369   3.647 -0.1726  0.0943  0.1180
 8138TIP3    H145905   0.036   1.392   3.563 -1.7745 -1.2431  0.4616
 8138TIP3    H245906   0.058   1.443   3.704  0.8398  0.9662 -0.6534
 8139TIP3   OH245907   6.012   4.743  12.114 -0.5493 -0.2513  0.3334
 8139TIP3    H145908   5.999   4.663  12.064  1.0133 -0.1604 -0.2658
 8139TIP3    H245909   5.923   4.775  12.132 -1.1596 -0.8645 -1.4324
 8140TIP3   OH245910   0.995   1.001   6.128  0.3900 -0.0365  0.1875
 8140TIP3    H145911   0.925   0.980   6.190 -1.4777  1.6513 -1.1614
 8140TIP3    H245912   1.045   1.070   6.170 -0.0663  0.1927  0.3613
 8141TIP3   OH245913   6.243   2.769   3.784 -0.8962  0.4483 -0.2945
 8141TIP3    H145914   6.273   2.853   3.750  0.7819  0.3612  0.8513
 8141TIP3    H245915   6.211   2.790   3.872  0.7841 -0.2716  0.5272
 8142TIP3   OH245916   1.381   2.020  13.165  0.0291 -0.2681 -0.2877
 8142TIP3    H145917   1.461   1.984  13.204  0.5790  2.5777  1.5300
 8142TIP3    H245918   1.401   2.028  13.072  1.6544 -0.1904  0.0362
 8143TIP3   OH245919   1.454   5.884  13.736 -0.4701 -0.2617 -0.3492
 8143TIP3    H145920   1.491   5.796  13.737 -2.7358 -1.3030 -0.6864
 8143TIP3    H245921   1.481   5.920  13.652 -0.6399 -1.1879 -0.8206
 8144TIP3   OH245922   3.620   3.603   5.908  0.0977  0.6679 -0.8277
 8144TIP3    H145923   3.667   3.543   5.967  0.4993  2.8609  1.2326
 8144TIP3    H245924   3.670   3.599   5.827  0.5311 -1.2127 -0.5215
 8145TIP3   OH245925   2.593   1.559  15.612  0.4392  0.2260  0.1654
 8145TIP3    H145926   2.629   1.502  15.543  0.8765 -1.4517  1.6900
 8145TIP3    H245927   2.500   1.567  15.590  0.0667 -2.1904  0.5378
 8146TIP3   OH245928   2.874   5.860  12.407 -0.0368  0.1453  0.4876
 8146TIP3    H145929   2.891   5.777  12.450 -1.5810 -0.6996 -0.4607
 8146TIP3    H245930   2.961   5.891  12.380  0.5779 -1.0191  1.0575
 8147TIP3   OH245931   5.336   1.771   3.046 -0.2969  0.1903 -0.0576
 8147TIP3    H145932   5.289   1.770   3.130  0.9521  0.5596  0.6807
 8147TIP3    H245933   5.308   1.691   3.002  2.0745 -2.2802  2.5001
 8148TIP3   OH245934   4.900   2.614  11.965  0.3753  0.2276 -0.0094
 8148TIP3    H145935   4.968   2.609  11.899  2.0255  1.2156  1.5319
 8148TIP3    H245936   4.897   2.527  12.004  0.0761 -0.0819 -0.7108
 8149TIP3   OH245937   0.727   1.783   3.270 -0.7788 -0.0418 -0.0086
 8149TIP3    H145938   0.814   1.744   3.276 -1.1561 -0.8023  0.7551
 8149TIP3    H245939   0.668   1.708   3.257 -1.0664  0.6577 -3.9303
 8150TIP3   OH245940   2.915   3.208  13.122 -0.5444 -0.3695 -0.2524
 8150TIP3    H145941   2.855   3.278  13.098 -2.0653 -1.9567 -1.2867
 8150TIP3    H245942   2.924   3.156  13.042  1.6460 -0.6104  0.0874
 8151TIP3   OH245943   0.702   0.222  15.598 -0.1144 -0.5949  0.9671
 8151TIP3    H145944   0.699   0.223  15.694 -0.6460  0.1671  0.9530
 8151TIP3    H245945   0.631   0.164  15.573  0.8607 -1.8653  1.0422
 8152TIP3   OH245946   4.872   3.924  15.824 -0.4358 -0.0605 -0.0216
 8152TIP3    H145947   4.912   3.880  15.899 -0.7515  0.7673  0.6520
 8152TIP3    H245948   4.797   3.870  15.802 -0.4713 -0.1914  0.4065
 8153TIP3   OH245949   0.770   5.176  15.284  0.5313 -0.2280  0.4055
 8153TIP3    H145950   0.811   5.091  15.298 -1.3081 -1.6679 -2.2055
 8153TIP3    H245951   0.742   5.175  15.192 -0.8285  2.6410  0.6713
 8154TIP3   OH245952   6.077   5.378  11.947 -0.3777 -0.0522  0.1536
 8154TIP3    H145953   6.103   5.312  12.011  0.0237  0.6654  0.7371
 8154TIP3    H245954   5.982   5.368  11.940 -0.3308 -0.6411  0.2877
 8155TIP3   OH245955   4.563   5.504  12.474 -0.5769 -0.5006 -0.1749
 8155TIP3    H145956   4.501   5.455  12.527 -1.0105 -0.2749 -0.4692
 8155TIP3    H245957   4.560   5.462  12.388 -1.7400  0.6717 -0.7446
 8156TIP3   OH245958   0.968   2.050  12.415 -0.4943  0.4719 -0.5182
 8156TIP3    H145959   0.917   2.125  12.385  2.2845  3.0906  0.7189
 8156TIP3    H245960   1.007   2.014  12.336 -1.5492  0.5607 -1.0924
 8157TIP3   OH245961   2.192   2.934  14.894  0.0137 -0.0986 -0.1228
 8157TIP3    H145962   2.266   2.993  14.879  0.2141 -0.0116  1.0984
 8157TIP3    H245963   2.232   2.852  14.923 -0.1941 -1.2719 -2.8810
 8158TIP3   OH245964   4.808   4.331  11.612 -0.1492  0.3779 -0.2488
 8158TIP3    H145965   4.786   4.297  11.525  0.3265  1.1433 -0.6835
 8158TIP3    H245966   4.901   4.314  11.622 -0.1702  0.4318  0.0422
 8159TIP3   OH245967   0.715   0.593   4.052  0.5139 -0.2934 -0.1287
 8159TIP3    H145968   0.804   0.626   4.061 -0.3076  1.9135  0.5693
 8159TIP3    H245969   0.662   0.651   4.107 -1.6312 -0.3109 -2.0166
 8160TIP3   OH245970   5.315   3.823  11.819  0.1039  0.2700 -0.5082
 8160TIP3    H145971   5.298   3.729  11.832  1.8965  0.0409  0.5909
 8160TIP3    H245972   5.326   3.857  11.908  0.3912  1.3267 -0.9431
 8161TIP3   OH245973   1.335   5.962   3.506  0.4480 -0.0303 -0.0782
 8161TIP3    H145974   1.335   5.993   3.597  0.6533 -1.2450  0.3514
 8161TIP3    H245975   1.363   6.039   3.455  1.3131  0.3943  0.9863
 8162TIP3   OH245976   4.121   0.179  12.862  0.0191  0.5801  0.4560
 8162TIP3    H145977   4.178   0.173  12.785  1.5490 -0.9644  1.6520
 8162TIP3    H245978   4.061   0.106  12.853 -0.6830  1.1884  0.0814
 8163TIP3   OH245979   3.368   5.755  13.195 -0.0548 -0.0033  0.7093
 8163TIP3    H145980   3.458   5.787  13.203 -0.9567  2.3652  2.1156
 8163TIP3    H245981   3.369   5.669  13.238  1.6499 -0.3505  0.0538
 8164TIP3   OH245982   0.983   3.612   5.269  0.0001 -0.0622 -0.5057
 8164TIP3    H145983   0.933   3.531   5.259 -0.3303  0.0469  0.2166
 8164TIP3    H245984   0.974   3.655   5.184 -1.8686  0.3568 -0.1425
 8165TIP3   OH245985   5.121   6.617   4.239 -0.3401 -0.1543  0.2066
 8165TIP3    H145986   5.090   6.660   4.319 -2.5247 -0.8236 -0.2147
 8165TIP3    H245987   5.134   6.526   4.265  0.5165 -0.0454  0.1744
 8166TIP3   OH245988   5.255   6.069   5.794  0.0224  0.1567 -0.0071
 8166TIP3    H145989   5.160   6.058   5.803  0.0552 -3.5196 -2.1648
 8166TIP3    H245990   5.291   6.028   5.874 -0.1336  1.5535  0.8123
 8167TIP3   OH245991   4.852   5.404  12.844 -0.4585 -0.2861  0.3483
 8167TIP3    H145992   4.927   5.345  12.840 -0.1815 -0.0016  1.2491
 8167TIP3    H245993   4.885   5.488  12.811 -0.8276 -0.5807 -0.8398
 8168TIP3   OH245994   1.105   5.186   2.433  0.0836  0.0213 -0.4605
 8168TIP3    H145995   1.058   5.267   2.418  2.2213  1.1898 -1.2990
 8168TIP3    H245996   1.149   5.198   2.517 -0.7154 -0.8837  0.1134
 8169TIP3   OH245997   1.385   5.003   6.380  0.0525  0.2305  0.5846
 8169TIP3    H145998   1.411   5.030   6.292  1.6110 -0.1323  0.9028
 8169TIP3    H245999   1.315   5.064   6.404 -2.3894 -1.3146 -1.9117
 8170TIP3   OH246000   4.551   5.348   5.295 -0.3280  0.1594 -0.3979
 8170TIP3    H146001   4.559   5.259   5.329 -0.2395  0.4143  0.2666
 8170TIP3    H246002   4.550   5.338   5.200 -0.4719 -0.5608 -0.3212
 8171TIP3   OH246003   4.739   3.156  16.973  0.2748  0.4177 -0.2565
 8171TIP3    H146004   4.659   3.104  16.971 -0.8780  2.0779  0.3208
 8171TIP3    H246005   4.769   3.151  17.063 -0.4663  1.5658  0.0892
 8172TIP3   OH246006   1.379   5.345   0.188  0.7274 -0.0853 -0.0872
 8172TIP3    H146007   1.422   5.380   0.110  0.2101  4.1355  1.3016
 8172TIP3    H246008   1.286   5.366   0.176  0.2189 -1.7396  0.5846
 8173TIP3   OH246009   5.366   0.392  17.252 -0.2918  0.0761  0.0311
 8173TIP3    H146010   5.376   0.311  17.302  0.2904 -0.3355 -0.7335
 8173TIP3    H246011   5.447   0.440  17.266 -0.2698  0.1199 -0.2434
 8174TIP3   OH246012   1.327   1.516   1.801 -0.0257 -0.6487 -0.4111
 8174TIP3    H146013   1.310   1.595   1.852  0.9978 -0.0777 -0.9353
 8174TIP3    H246014   1.419   1.497   1.816 -0.0259 -1.1875 -1.0665
 8175TIP3   OH246015   1.021   6.600  12.378  0.3719 -0.1492  0.0134
 8175TIP3    H146016   0.954   6.603  12.446 -0.2464  0.6326 -0.6060
 8175TIP3    H246017   1.058   6.688  12.377 -1.7283  0.8482 -2.6589
 8176TIP3   OH246018   5.809   3.918   4.638 -0.4658 -0.6129  0.0847
 8176TIP3    H146019   5.754   3.927   4.715 -0.7707  2.9146 -0.3420
 8176TIP3    H246020   5.898   3.912   4.672 -0.6789 -0.1019  0.7434
 8177TIP3   OH246021   4.142   3.298  15.492  0.3410  0.4315  0.7379
 8177TIP3    H146022   4.109   3.386  15.508  1.4624  0.8449  0.9138
 8177TIP3    H246023   4.110   3.246  15.565  0.1744  0.8389  0.9554
 8178TIP3   OH246024   2.249   6.236  12.046 -0.1110  0.4991  0.5732
 8178TIP3    H146025   2.209   6.173  12.105 -0.1261  0.1920  0.2369
 8178TIP3    H246026   2.329   6.195  12.016 -0.3464  0.4454  0.0020
 8179TIP3   OH246027   2.904   6.673   4.148  0.5794 -0.1550  0.5112
 8179TIP3    H146028   2.880   6.603   4.209 -0.6906  1.8456  2.4836
 8179TIP3    H246029   2.841   6.664   4.076  0.7441 -1.3036  0.4929
 8180TIP3   OH246030   2.182   1.256  11.648  0.0117  1.2415  0.1489
 8180TIP3    H146031   2.222   1.272  11.734  0.2588  0.7371  0.1284
 8180TIP3    H246032   2.231   1.312  11.588  1.8436 -0.6149 -0.1706
 8181TIP3   OH246033   1.982   1.321  12.346  0.2026  0.4451 -0.4451
 8181TIP3    H146034   1.940   1.235  12.352  0.9109  0.1676  3.1501
 8181TIP3    H246035   2.067   1.303  12.305  0.1424 -0.5344 -0.1701
 8182TIP3   OH246036   1.827   4.836  14.603 -0.4443  0.7880  0.4379
 8182TIP3    H146037   1.915   4.800  14.601 -0.5796  0.4188  1.0857
 8182TIP3    H246038   1.836   4.922  14.561 -0.3210 -0.3733 -2.1039
 8183TIP3   OH246039   0.393   5.649  15.844 -0.3180 -0.4561  0.1975
 8183TIP3    H146040   0.480   5.689  15.836  0.3751 -2.1497 -1.1422
 8183TIP3    H246041   0.337   5.701  15.785  0.0280 -0.0339  0.2381
 8184TIP3   OH246042   6.146   4.918  12.279 -0.1587  0.0683 -0.6530
 8184TIP3    H146043   6.133   4.843  12.221  0.3541 -1.2015  0.8069
 8184TIP3    H246044   6.057   4.950  12.297 -0.7808 -2.5120  1.5685
 8185TIP3   OH246045   3.843   4.253  14.105 -0.2512 -0.5767  0.0697
 8185TIP3    H146046   3.806   4.337  14.132  0.7388 -0.1907  0.2328
 8185TIP3    H246047   3.787   4.225  14.032  0.1085  0.7963 -0.7692
 8186TIP3   OH246048   4.258   2.279  12.816  0.0026  0.0892  0.0635
 8186TIP3    H146049   4.313   2.214  12.858 -0.5551 -0.6178 -0.2811
 8186TIP3    H246050   4.316   2.323  12.754  0.0495 -1.0783 -0.7567
 8187TIP3   OH246051   2.507   4.319  12.989 -0.6230 -0.0699  0.0712
 8187TIP3    H146052   2.467   4.337  12.904  1.0335  2.2834 -0.3255
 8187TIP3    H246053   2.455   4.369  13.052  0.2488  1.1589 -0.1339
 8188TIP3   OH246054   1.612   4.940   0.387  0.3702  0.2199  0.3714
 8188TIP3    H146055   1.617   4.844   0.388 -0.8717  0.0234 -2.3263
 8188TIP3    H246056   1.527   4.960   0.427  0.5603  0.2065  0.7903
 8189TIP3   OH246057   0.283   1.954   1.686 -0.4984 -0.3387  0.1543
 8189TIP3    H146058   0.291   1.895   1.762  1.1660 -2.3316 -1.4377
 8189TIP3    H246059   0.243   1.900   1.618  2.4817 -0.2928 -1.8456
 8190TIP3   OH246060   0.623   4.841  16.430 -0.0472  0.3744 -0.3569
 8190TIP3    H146061   0.547   4.811  16.380 -0.2212 -2.4420  1.3977
 8190TIP3    H246062   0.648   4.766  16.483  2.5387  1.9779  0.8925
 8191TIP3   OH246063   0.611   3.386  10.856  0.9311  0.1951 -0.2849
 8191TIP3    H146064   0.607   3.341  10.772  0.2566  0.1670 -0.2423
 8191TIP3    H246065   0.596   3.318  10.921 -0.7002  0.5647 -0.2500
 8192TIP3   OH246066   3.085   6.678  15.130 -0.0650 -0.0815  0.5487
 8192TIP3    H146067   3.040   6.760  15.110 -0.9413 -0.5538  0.5315
 8192TIP3    H246068   3.110   6.643  15.044  1.1246  0.5993  0.5985
 8193TIP3   OH246069   2.918   1.101  11.459 -0.2512  0.2329 -0.2628
 8193TIP3    H146070   2.933   1.181  11.408  0.3917 -0.2353 -0.8325
 8193TIP3    H246071   2.918   1.031  11.394 -0.1798 -0.3003  0.3032
 8194TIP3   OH246072   0.165   5.231  15.842 -0.5239 -0.0916  0.4278
 8194TIP3    H146073   0.142   5.231  15.935  0.7676  0.4453  0.7690
 8194TIP3    H246074   0.251   5.188  15.839 -0.4453  0.1084 -0.4898
 8195TIP3   OH246075   2.404   5.498   1.705  0.0514  0.1426 -0.3520
 8195TIP3    H146076   2.384   5.529   1.794  0.5956  1.2556 -0.6028
 8195TIP3    H246077   2.445   5.413   1.719  0.9703  0.7001  0.5435
 8196TIP3   OH246078   0.284   5.349  13.144 -0.3321  0.2342 -0.7457
 8196TIP3    H146079   0.254   5.434  13.112 -0.8235  0.2164 -0.3494
 8196TIP3    H246080   0.296   5.362  13.238 -0.6331 -0.1978 -0.6462
 8197TIP3   OH246081   0.515   1.508   3.092 -0.0653  0.2669 -0.4304
 8197TIP3    H146082   0.440   1.567   3.095 -0.5891 -0.4138 -0.0828
 8197TIP3    H246083   0.488   1.431   3.141  0.9903  0.1589  0.0226
 8198TIP3   OH246084   6.303   4.910   2.230  0.0617  0.3759 -0.2170
 8198TIP3    H146085   6.290   4.816   2.216 -0.6805  0.2958  0.8795
 8198TIP3    H246086   6.395   4.925   2.210  0.2516 -0.6443 -0.1376
 8199TIP3   OH246087   4.863   5.351   6.660  0.4168 -0.3144 -0.2684
 8199TIP3    H146088   4.854   5.294   6.584 -2.8950 -2.0302  1.2075
 8199TIP3    H246089   4.810   5.428   6.638  3.1633  1.4458 -1.3802
 8200TIP3   OH246090   5.556   6.045  11.562 -0.7653  0.1598  0.1456
 8200TIP3    H146091   5.503   6.044  11.483 -2.2094 -0.0152  1.0794
 8200TIP3    H246092   5.563   5.953  11.588 -1.4607  0.3212  0.9472
 8201TIP3   OH246093   0.270   1.636   3.103 -0.2488  0.0747  0.4606
 8201TIP3    H146094   0.207   1.668   3.168 -1.7947  1.6139 -1.6474
 8201TIP3    H246095   0.224   1.568   3.055 -0.9780  2.1372 -2.0050
 8202TIP3   OH246096   3.513   2.752  11.876  0.6419 -0.0781 -0.7909
 8202TIP3    H146097   3.457   2.701  11.818 -0.6470 -0.2144  0.5044
 8202TIP3    H246098   3.597   2.705  11.876  0.0116 -1.2357 -0.9467
 8203TIP3   OH246099   3.367   0.107  14.950 -0.1106  0.3535  0.0296
 8203TIP3    H146100   3.375   0.013  14.965  0.6046  0.1806 -1.3017
 8203TIP3    H246101   3.403   0.121  14.863  1.7554  2.1453  1.0013
 8204TIP3   OH246102   4.945   3.154   2.325 -0.1003  0.2515  0.1842
 8204TIP3    H146103   5.028   3.121   2.290 -0.7128 -0.4404 -0.6502
 8204TIP3    H246104   4.891   3.169   2.248 -0.2098  2.2842  0.6004
 8205TIP3   OH246105   4.220   3.036   2.527  0.3970  0.1679 -0.2360
 8205TIP3    H146106   4.277   2.993   2.463 -0.1958 -1.2724  0.1587
 8205TIP3    H246107   4.142   2.980   2.532 -0.5964  1.5056  0.0332
 8206TIP3   OH246108   6.778   3.262  14.057  0.8415 -0.1867  0.1646
 8206TIP3    H146109   6.871   3.241  14.053  0.5018 -1.8253 -0.0255
 8206TIP3    H246110   6.737   3.184  14.094 -0.5391  0.1885 -0.4795
 8207TIP3   OH246111   4.667   6.482  14.178  0.2209  0.5438  0.2343
 8207TIP3    H146112   4.632   6.511  14.093  0.6577  1.9921  0.5168
 8207TIP3    H246113   4.595   6.499  14.239  0.2539  0.4120  0.3092
 8208TIP3   OH246114   1.063   1.698   3.013 -0.9438 -0.1436 -0.2696
 8208TIP3    H146115   1.129   1.664   3.073 -0.2220 -0.4079 -1.1997
 8208TIP3    H246116   1.029   1.776   3.057  0.9154  0.7537 -0.3511
 8209TIP3   OH246117   3.571   3.839   1.057  0.0200 -0.0081 -0.5916
 8209TIP3    H146118   3.489   3.842   1.105  0.0245  0.7755 -0.6283
 8209TIP3    H246119   3.576   3.749   1.024 -0.9228 -0.0028 -0.7727
 8210TIP3   OH246120   2.772   0.018  16.560  0.6066 -0.6052 -0.5370
 8210TIP3    H146121   2.835  -0.030  16.505  1.5105  1.5935 -1.5473
 8210TIP3    H246122   2.827   0.075  16.615 -0.3885 -1.2394  1.2155
 8211TIP3   OH246123   3.634   4.452   5.214  0.1610  0.7181 -0.3857
 8211TIP3    H146124   3.632   4.496   5.299  0.8917  0.2878 -0.1333
 8211TIP3    H246125   3.647   4.360   5.235  1.1907  0.7067 -0.9716
 8212TIP3   OH246126   2.685   4.685   4.576 -0.0551 -0.1431 -0.4849
 8212TIP3    H146127   2.760   4.738   4.603  0.1442 -0.6871  0.0547
 8212TIP3    H246128   2.611   4.746   4.578  0.0897  0.0184  0.5865
 8213TIP3   OH246129   5.969   2.521   3.542 -0.0764 -0.4498  1.0341
 8213TIP3    H146130   5.883   2.547   3.509  1.2786  1.4653 -1.3502
 8213TIP3    H246131   5.969   2.546   3.634 -1.3234  1.6399  0.5318
 8214TIP3   OH246132   5.971   2.710   2.196 -0.2600  0.0620  0.6752
 8214TIP3    H146133   6.002   2.796   2.224 -1.7617  0.5832  0.8348
 8214TIP3    H246134   5.884   2.702   2.235 -0.3297 -1.3463  0.2906
 8215TIP3   OH246135   6.239   5.729  10.911  0.7342  0.6671 -0.4185
 8215TIP3    H146136   6.249   5.639  10.944 -0.1701  0.4620 -0.6692
 8215TIP3    H246137   6.145   5.744  10.912  0.8166  1.3124 -1.1764
 8216TIP3   OH246138   3.015   1.974  14.351 -0.4069 -0.0770 -0.4742
 8216TIP3    H146139   3.073   2.030  14.403 -0.3208 -0.5855 -0.0144
 8216TIP3    H246140   3.074   1.924  14.295 -0.5096  0.5807 -1.1756
 8217TIP3   OH246141   5.924   1.071   2.362 -0.1836 -0.3864  0.1004
 8217TIP3    H146142   5.831   1.067   2.337 -0.9940 -0.8668  2.8015
 8217TIP3    H246143   5.949   0.980   2.376  1.1005 -0.3579 -1.6990
 8218TIP3   OH246144   0.142   6.754   2.932  0.0805 -0.0211  0.2420
 8218TIP3    H146145   0.163   6.703   3.010  1.4454  1.2117  0.7346
 8218TIP3    H246146   0.192   6.713   2.861  0.3749  0.0158  0.4273
 8219TIP3   OH246147   6.721   4.566   5.970 -0.7879  0.2044 -0.1076
 8219TIP3    H146148   6.739   4.570   5.876  0.0082  0.8122  0.0586
 8219TIP3    H246149   6.769   4.640   6.007 -0.7067 -0.3037  0.8371
 8220TIP3   OH246150   4.399   2.982  11.756 -0.2530  0.4427  0.1952
 8220TIP3    H146151   4.415   3.031  11.837 -0.8285 -0.3474  0.8068
 8220TIP3    H246152   4.419   3.044  11.686 -0.0175  1.2345  0.9418
 8221TIP3   OH246153   4.529   5.769   4.911  0.4510 -0.2370 -0.5533
 8221TIP3    H146154   4.603   5.717   4.945 -0.3718 -1.9520 -1.2820
 8221TIP3    H246155   4.548   5.780   4.818 -0.6579 -1.5488 -0.9635
 8222TIP3   OH246156   3.688   4.172   4.748  0.3658 -0.4552 -0.5939
 8222TIP3    H146157   3.610   4.191   4.801  0.6606 -0.7190 -0.0595
 8222TIP3    H246158   3.683   4.079   4.730  0.3162 -0.3837 -0.9547
 8223TIP3   OH246159   5.403   1.771   1.185  0.1965  0.0500  0.1261
 8223TIP3    H146160   5.414   1.852   1.136 -0.3942 -0.2663 -0.5574
 8223TIP3    H246161   5.396   1.703   1.118 -0.5949 -0.4032  0.6433
 8224TIP3   OH246162   2.812   5.076  16.035 -0.4844 -0.2390 -0.4607
 8224TIP3    H146163   2.823   5.153  16.091 -0.9083 -0.8531  0.4659
 8224TIP3    H246164   2.721   5.050  16.047 -0.7957  0.0282 -1.9769
 8225TIP3   OH246165   3.548   4.168  14.397 -0.4240 -0.3571  0.3256
 8225TIP3    H146166   3.535   4.095  14.338 -0.4401 -0.1024  0.0125
 8225TIP3    H246167   3.640   4.160  14.426  0.3647  0.9052 -1.6456
 8226TIP3   OH246168   1.053   6.673  15.082  0.0590 -0.4771 -0.0320
 8226TIP3    H146169   0.960   6.693  15.092 -0.3026 -1.2284 -1.6016
 8226TIP3    H246170   1.067   6.671  14.987  1.6890 -0.3651  0.1738
 8227TIP3   OH246171   0.273   5.445  15.678 -0.4237 -0.6607 -0.0812
 8227TIP3    H146172   0.240   5.363  15.717  0.0184 -1.6666 -1.7379
 8227TIP3    H246173   0.299   5.498  15.754 -3.2566 -0.8910  1.1913
 8228TIP3   OH246174   5.122   3.676   2.556 -0.3644  0.0177  0.1258
 8228TIP3    H146175   5.031   3.703   2.549  0.0783  1.4299 -0.3865
 8228TIP3    H246176   5.123   3.585   2.525 -1.9780 -0.8653  2.3771
 8229TIP3   OH246177   0.917   5.278   1.759  0.5114  0.2485  0.3277
 8229TIP3    H146178   0.947   5.256   1.671  0.0624  0.0887  0.2160
 8229TIP3    H246179   0.825   5.303   1.749  0.2489 -0.4562  0.8488
 8230TIP3   OH246180   2.637   4.355  11.978  0.8145 -0.0184 -0.4033
 8230TIP3    H146181   2.683   4.425  11.933 -0.8195  0.9783 -0.6102
 8230TIP3    H246182   2.628   4.286  11.912  0.8007  0.3318 -0.7687
 8231TIP3   OH246183   5.499   6.464  15.123 -0.4236  0.1577 -0.4562
 8231TIP3    H146184   5.454   6.440  15.042  1.4045 -1.7550 -0.9911
 8231TIP3    H246185   5.460   6.408  15.190 -0.8214  0.5829 -0.3282
 8232TIP3   OH246186   4.541   2.163   5.090  0.3650  0.1067 -0.3275
 8232TIP3    H146187   4.509   2.091   5.036  2.0847  0.0814 -1.3876
 8232TIP3    H246188   4.636   2.156   5.087  0.5784  0.1835  2.6471
 8233TIP3   OH246189   2.540   5.315   4.405 -0.2433 -0.1650  0.2397
 8233TIP3    H146190   2.580   5.276   4.327 -1.3284 -0.5491 -0.1412
 8233TIP3    H246191   2.582   5.400   4.414 -1.4068  0.6938 -1.8581
 8234TIP3   OH246192   1.153   1.346   5.409  0.2971 -0.2019 -0.4761
 8234TIP3    H146193   1.220   1.343   5.478  1.5674  1.3253 -1.5543
 8234TIP3    H246194   1.072   1.319   5.452  1.1371  0.2838  1.5014
 8235TIP3   OH246195   0.637   4.224  14.348  0.0131 -0.0581  0.0048
 8235TIP3    H146196   0.550   4.257  14.371  1.2443  2.9369  0.8836
 8235TIP3    H246197   0.662   4.274  14.270  0.5370 -1.7030 -0.9294
 8236TIP3   OH246198   5.875   1.733  16.718  0.1372  0.5136 -0.9900
 8236TIP3    H146199   5.964   1.762  16.737 -0.1876  1.4781 -0.8771
 8236TIP3    H246200   5.819   1.790  16.771 -0.5645  0.0747 -1.2317
 8237TIP3   OH246201   2.803   4.214  12.650  0.1469  0.3498 -0.3758
 8237TIP3    H146202   2.738   4.229  12.582  1.9313  0.2281 -2.2320
 8237TIP3    H246203   2.887   4.215  12.603  1.5616  1.2485  1.9785
 8238TIP3   OH246204   3.519   0.418  12.543 -0.0624 -0.1196 -0.6302
 8238TIP3    H146205   3.488   0.329  12.558  2.9131 -1.5428 -1.8789
 8238TIP3    H246206   3.567   0.412  12.460  2.5170  1.9558  0.5676
 8239TIP3   OH246207   4.349   0.428  15.559  0.1603 -0.1856 -0.6818
 8239TIP3    H146208   4.291   0.501  15.538 -1.3045 -1.6223 -1.8711
 8239TIP3    H246209   4.420   0.467  15.610 -1.3488  1.8054  0.0095
 8240TIP3   OH246210   6.756   5.239   1.756  0.3862 -0.1254 -0.4377
 8240TIP3    H146211   6.668   5.267   1.730  0.3426  0.3034  0.1334
 8240TIP3    H246212   6.814   5.275   1.688  0.3522  1.5818  0.3812
 8241TIP3   OH246213   4.326   5.905   2.324  0.4506 -0.0935 -0.4043
 8241TIP3    H146214   4.236   5.930   2.300  1.0162  0.7258 -1.7927
 8241TIP3    H246215   4.324   5.809   2.328 -0.5155 -0.0761 -0.2832
 8242TIP3   OH246216   3.444   5.990   4.182 -0.1200  0.3983 -0.4909
 8242TIP3    H146217   3.487   5.987   4.097 -0.6187  0.4993 -0.7483
 8242TIP3    H246218   3.387   6.067   4.178  0.5146  0.9249  0.2578
 8243TIP3   OH246219   2.716   6.291  12.090 -0.0502  0.2494  0.1168
 8243TIP3    H146220   2.745   6.290  12.181  0.7206  0.4263 -0.1236
 8243TIP3    H246221   2.644   6.227  12.088  0.0580  0.0946  0.8006
 8244TIP3   OH246222   2.967   5.770   5.209 -1.0203 -0.1166 -0.2172
 8244TIP3    H146223   2.929   5.705   5.270 -1.1026 -1.6606 -1.8195
 8244TIP3    H246224   3.057   5.740   5.196 -1.5842 -1.0863 -2.3914
 8245TIP3   OH246225   4.633   1.151  12.017  0.0556  0.1843 -0.5502
 8245TIP3    H146226   4.699   1.145  12.086  0.5665 -1.7255 -1.1569
 8245TIP3    H246227   4.624   1.245  12.001  1.0606  0.5910  1.0089
 8246TIP3   OH246228   0.623   0.099   5.470 -0.5533  0.1473 -1.2517
 8246TIP3    H146229   0.615   0.069   5.379  2.6315  0.1644 -1.6379
 8246TIP3    H246230   0.657   0.189   5.463  2.4141 -0.7848 -0.1400
 8247TIP3   OH246231   4.968   3.182   2.832  0.3545  1.1712  0.1929
 8247TIP3    H146232   5.037   3.117   2.849 -0.5501  0.0725 -0.2167
 8247TIP3    H246233   4.940   3.164   2.743  0.1311  2.1916  0.0508
 8248TIP3   OH246234   5.808   0.749   2.821 -0.1973  0.5411 -0.6651
 8248TIP3    H146235   5.724   0.735   2.864  0.5236 -0.4800  0.4794
 8248TIP3    H246236   5.805   0.696   2.742  0.3596 -1.7182  0.7557
 8249TIP3   OH246237   0.959   2.317  13.183  0.0137  0.3472  0.2161
 8249TIP3    H146238   0.978   2.408  13.206 -0.2914  0.4501  0.0644
 8249TIP3    H246239   0.965   2.315  13.087 -3.2119  0.9792 -0.1015
 8250TIP3   OH246240   4.527   0.571  14.189 -0.5393  0.6990  0.9051
 8250TIP3    H146241   4.579   0.632  14.240  0.4137  0.1651  0.6103
 8250TIP3    H246242   4.437   0.587  14.216 -0.0972  0.6737  2.4885
 8251TIP3   OH246243   0.081   4.695   4.791 -0.4647 -0.3940  0.0369
 8251TIP3    H146244   0.089   4.709   4.885  0.9154 -0.5898 -0.0301
 8251TIP3    H246245   0.072   4.600   4.781 -0.8459 -0.3560 -0.0321
 8252TIP3   OH246246   6.347   6.143  14.408  0.5375  0.2373 -1.1098
 8252TIP3    H146247   6.337   6.048  14.409  2.9064 -0.0986 -2.0634
 8252TIP3    H246248   6.372   6.166  14.497 -0.8620  0.1355 -0.6572
 8253TIP3   OH246249   6.729   5.684   0.976  0.1850  0.2063 -0.2964
 8253TIP3    H146250   6.809   5.719   1.015  0.0534  0.3585 -0.1584
 8253TIP3    H246251   6.660   5.706   1.039  0.2018 -0.9716  0.1579
 8254TIP3   OH246252   3.605   5.758   3.638 -0.1503 -0.2529  0.5888
 8254TIP3    H146253   3.579   5.813   3.712 -0.1609 -0.8693  1.0581
 8254TIP3    H246254   3.661   5.691   3.677  0.3898 -0.1966 -0.0739
 8255TIP3   OH246255   0.496   0.786  13.738  0.7660  0.0836 -0.4547
 8255TIP3    H146256   0.498   0.725  13.811 -0.2070  0.8343  0.2219
 8255TIP3    H246257   0.585   0.785  13.703  0.9571 -1.1382  0.0108
 8256TIP3   OH246258   0.297   6.643  13.649 -0.1796  0.0219  0.3157
 8256TIP3    H146259   0.211   6.604  13.630  0.2637 -0.1135 -1.6464
 8256TIP3    H246260   0.347   6.571  13.688 -0.6180 -0.1971  0.4880
 8257TIP3   OH246261   0.441   1.294  15.846 -0.3040  0.4047  0.3138
 8257TIP3    H146262   0.384   1.364  15.878  0.1068  1.2644 -0.7453
 8257TIP3    H246263   0.452   1.313  15.753 -0.9987 -1.6662 -0.2322
 8258TIP3   OH246264   4.330   2.969  13.176 -0.0852  0.1946  0.2914
 8258TIP3    H146265   4.367   2.956  13.089  0.8381  1.4920  0.4418
 8258TIP3    H246266   4.395   2.931  13.235 -0.1303  0.3715  0.4561
 8259TIP3   OH246267   6.021   2.762   0.133  0.4817 -0.1946  0.3522
 8259TIP3    H146268   6.111   2.783   0.106  0.1362 -0.9314 -1.4914
 8259TIP3    H246269   6.016   2.667   0.126 -0.4920 -0.1454  0.3452
 8260TIP3   OH246270   0.517   4.328   1.400 -0.1351  0.0985 -0.8321
 8260TIP3    H146271   0.596   4.352   1.353  0.2453 -0.6544 -0.6092
 8260TIP3    H246272   0.509   4.233   1.386  0.3823 -0.3010  1.1194
 8261TIP3   OH246273   0.565   5.551  14.514 -0.5614 -0.1221 -0.1725
 8261TIP3    H146274   0.535   5.498  14.588 -1.0007  0.3624  0.0016
 8261TIP3    H246275   0.536   5.639  14.535  0.3185  0.2243 -0.3792
 8262TIP3   OH246276   6.333   4.059   4.381 -0.7937 -0.2158  0.2832
 8262TIP3    H146277   6.385   3.990   4.421 -0.7077 -0.0319  0.4894
 8262TIP3    H246278   6.391   4.135   4.381 -0.9083 -0.1271  0.1095
 8263TIP3   OH246279   3.023   4.901  15.669  1.2932 -0.2505 -0.2675
 8263TIP3    H146280   2.961   4.830  15.654  0.1096  1.1149 -2.4071
 8263TIP3    H246281   3.070   4.909  15.586  2.8476  0.1774  0.6080
 8264TIP3   OH246282   1.279   1.841  15.725  0.4823  0.4243 -0.3545
 8264TIP3    H146283   1.326   1.758  15.726  1.8992  1.1554  2.2624
 8264TIP3    H246284   1.347   1.908  15.725 -0.5054  1.5359  1.8820
 8265TIP3   OH246285   3.086   3.273   1.100  0.0148 -0.2832  0.0837
 8265TIP3    H146286   3.105   3.187   1.062 -1.1696 -0.3921 -0.3147
 8265TIP3    H246287   3.003   3.261   1.146  0.6142  0.2704  1.3498
 8266TIP3   OH246288   5.075   4.134   2.278 -0.2215 -0.2250 -0.2469
 8266TIP3    H146289   5.116   4.053   2.310  0.3534  0.2999  0.3868
 8266TIP3    H246290   4.982   4.112   2.269 -0.2222 -0.7051  0.8027
 8267TIP3   OH246291   5.215   1.088   3.039  0.1257  0.3089 -0.5113
 8267TIP3    H146292   5.215   1.070   2.945  1.4578  0.3248 -0.5410
 8267TIP3    H246293   5.148   1.155   3.051 -0.9464 -0.5906 -1.2448
 8268TIP3   OH246294   3.681   3.354  12.811  0.1343 -0.0343 -0.1171
 8268TIP3    H146295   3.757   3.363  12.753  1.2153  1.1552  1.4028
 8268TIP3    H246296   3.719   3.351  12.899 -1.6093  1.0008  0.6984
 8269TIP3   OH246297   6.167   4.127  10.470 -0.6377  0.0254  0.2923
 8269TIP3    H146298   6.109   4.200  10.491 -0.4132  1.1562 -2.5719
 8269TIP3    H246299   6.235   4.130  10.537 -2.2069  0.5644  1.9280
 8270TIP3   OH246300   2.669   1.251   5.271 -0.1948  0.0128 -0.5674
 8270TIP3    H146301   2.709   1.322   5.321  1.2636 -0.3659 -1.1542
 8270TIP3    H246302   2.697   1.266   5.180 -0.5544 -0.8383 -0.8310
 8271TIP3   OH246303   5.623   3.571  12.418 -0.2316  0.0335  0.1003
 8271TIP3    H146304   5.573   3.602  12.343  2.6536 -0.3187 -2.1180
 8271TIP3    H246305   5.601   3.478  12.426  0.2859 -0.1966 -1.0611
 8272TIP3   OH246306   6.288   0.181   6.129  0.2851 -0.5577 -0.1490
 8272TIP3    H146307   6.337   0.189   6.047 -0.5082  2.8901 -0.4587
 8272TIP3    H246308   6.225   0.111   6.113  1.2429 -1.0874 -1.8639
 8273TIP3   OH246309   2.685   2.277  15.520  0.5155 -0.1280  0.3715
 8273TIP3    H146310   2.773   2.313  15.527  0.7754 -0.7831  0.5812
 8273TIP3    H246311   2.684   2.231  15.436  0.7647 -1.1247  0.9021
 8274TIP3   OH246312   2.513   5.830  11.416  0.7485  0.6837 -0.5577
 8274TIP3    H146313   2.450   5.903  11.411 -0.5505 -0.4041 -0.7288
 8274TIP3    H246314   2.549   5.836  11.504  1.1488  1.9034 -0.7770
 8275TIP3   OH246315   6.007   0.661  12.389 -0.0863  0.6369  0.1232
 8275TIP3    H146316   6.014   0.681  12.482 -0.1534  0.8077  0.0919
 8275TIP3    H246317   5.923   0.699  12.363  0.0963  0.9004 -0.0855
 8276TIP3   OH246318   2.994   2.812  17.047  0.1835  0.1198  0.1074
 8276TIP3    H146319   2.928   2.863  17.094 -0.5737 -0.0952 -0.6958
 8276TIP3    H246320   3.030   2.753  17.112  0.4696  1.0963  0.8530
 8277TIP3   OH246321   3.872   3.404   5.763  0.0130 -0.2724 -0.4944
 8277TIP3    H146322   3.791   3.354   5.750  0.4197 -0.6463 -1.6732
 8277TIP3    H246323   3.941   3.344   5.735  0.7210  0.0070  0.6121
 8278TIP3   OH246324   5.113   1.767  15.041 -0.0585  0.5347 -0.2230
 8278TIP3    H146325   5.046   1.701  15.021  1.2282 -0.7734 -0.3519
 8278TIP3    H246326   5.104   1.783  15.135 -0.1246 -0.1357 -0.1101
 8279TIP3   OH246327   6.747   3.763   4.685 -0.5201  0.0505  0.2964
 8279TIP3    H146328   6.837   3.769   4.718 -0.0537  2.1629 -1.1433
 8279TIP3    H246329   6.744   3.679   4.639  1.0308  0.3493 -0.4166
 8280TIP3   OH246330   3.113   3.548   0.448 -0.0722  0.3664 -0.1476
 8280TIP3    H146331   3.189   3.533   0.504 -0.0499  0.6726 -0.0963
 8280TIP3    H246332   3.123   3.638   0.418 -0.3995  0.3963 -0.1665
 8281TIP3   OH246333   4.647   5.049   3.133  0.2485 -0.0229  0.0214
 8281TIP3    H146334   4.584   5.119   3.150  0.4762  0.5920 -1.5555
 8281TIP3    H246335   4.729   5.080   3.173 -0.6852 -1.5217  3.5320
 8282TIP3   OH246336   1.889   5.606   5.306  0.1229  0.0737  0.4871
 8282TIP3    H146337   1.851   5.656   5.377 -0.6348 -0.4834  0.4832
 8282TIP3    H246338   1.963   5.659   5.276  0.1485  0.5405  1.3581
 8283TIP3   OH246339   2.591   5.230   0.703 -0.2381  0.0808 -0.0593
 8283TIP3    H146340   2.505   5.222   0.742 -0.4370  0.4420 -0.4102
 8283TIP3    H246341   2.591   5.318   0.664  0.0134 -0.2041 -0.7152
 8284TIP3   OH246342   0.540   0.015   3.480 -0.0270  0.1990 -0.2429
 8284TIP3    H146343   0.624   0.014   3.434  0.2786 -0.8680  0.3144
 8284TIP3    H246344   0.475   0.002   3.411  0.3781 -0.6121 -0.4808
 8285TIP3   OH246345   3.845   5.020   5.933  0.0659  0.5678  0.0989
 8285TIP3    H146346   3.801   5.000   6.015 -0.0379 -0.6640 -0.2381
 8285TIP3    H246347   3.781   4.998   5.865  1.2452 -1.6632 -0.4187
 8286TIP3   OH246348   5.670   4.445  16.662  0.1090  0.0451 -0.3376
 8286TIP3    H146349   5.692   4.491  16.743  0.2571 -2.0943  0.9326
 8286TIP3    H246350   5.739   4.470  16.600  0.6522  0.8357  0.5621
 8287TIP3   OH246351   0.318   1.088  16.089  0.0630 -0.2945 -0.2696
 8287TIP3    H146352   0.339   1.181  16.073 -0.9372 -0.2266 -1.3399
 8287TIP3    H246353   0.223   1.085  16.090  0.0224 -0.9194  2.4372
 8288TIP3   OH246354   2.719   1.788   4.086  0.2850 -0.0888 -0.2430
 8288TIP3    H146355   2.812   1.786   4.065  0.1159 -0.1832 -0.9985
 8288TIP3    H246356   2.708   1.718   4.150  0.7848  0.1260  0.0852
 8289TIP3   OH246357   6.747   4.272   0.811  0.7665 -0.5631  0.5432
 8289TIP3    H146358   6.707   4.327   0.744  1.4349 -0.0617  0.5416
 8289TIP3    H246359   6.769   4.191   0.766  0.9410 -0.3436  0.2311
 8290TIP3   OH246360   0.146   1.078  16.880  0.0024 -0.4875  0.7700
 8290TIP3    H146361   0.150   1.158  16.827 -0.5081 -0.3383  0.9505
 8290TIP3    H246362   0.238   1.053  16.892  0.1367 -0.3609  0.0682
 8291TIP3   OH246363   2.295   2.890   2.944 -0.3010 -0.0848  0.5188
 8291TIP3    H146364   2.231   2.848   3.001  0.7057 -1.1181  0.9276
 8291TIP3    H246365   2.246   2.913   2.865 -0.9122 -2.0703  0.2609
 8292TIP3   OH246366   0.094   2.406   1.044 -0.2278  0.0837 -0.0276
 8292TIP3    H146367   0.060   2.320   1.018 -0.1134  0.0512 -0.0740
 8292TIP3    H246368   0.161   2.425   0.978 -2.0860  1.4390 -1.6535
 8293TIP3   OH246369   4.798   2.644   5.621  0.2316  0.6560 -0.1185
 8293TIP3    H146370   4.744   2.652   5.700 -0.2095 -0.4302 -0.2826
 8293TIP3    H246371   4.745   2.684   5.552  1.1155  2.6688  0.3191
 8294TIP3   OH246372   5.254   6.327   4.777 -0.3434 -0.0731  0.1982
 8294TIP3    H146373   5.321   6.368   4.722 -0.1919  0.0340  0.4631
 8294TIP3    H246374   5.202   6.400   4.810  1.5712  0.2149  2.8837
 8295TIP3   OH246375   1.005   2.577  13.735  0.7222  0.0685 -0.7224
 8295TIP3    H146376   1.006   2.668  13.705 -2.4518 -0.0834 -1.7087
 8295TIP3    H246377   0.961   2.530  13.664 -0.1833 -1.7084  0.9470
 8296TIP3   OH246378   2.089   2.861   0.691  0.1810 -0.2013  0.4149
 8296TIP3    H146379   2.110   2.948   0.724 -1.7644 -0.2261  1.8496
 8296TIP3    H246380   2.159   2.842   0.629  0.7452  2.2952  0.1875
 8297TIP3   OH246381   4.215   5.810   4.728  0.7700  0.4280  0.4443
 8297TIP3    H146382   4.304   5.805   4.761  0.4523 -1.0870  1.1741
 8297TIP3    H246383   4.211   5.742   4.660 -0.1315 -0.3755  1.2600
 8298TIP3   OH246384   0.331   4.207   4.325 -0.2365  0.0171  0.1473
 8298TIP3    H146385   0.325   4.249   4.411  2.0520  1.4912 -0.3267
 8298TIP3    H246386   0.409   4.246   4.285 -0.4432 -1.6604 -2.0517
 8299TIP3   OH246387   5.119   3.484  12.843  0.7249  0.1706 -0.2497
 8299TIP3    H146388   5.169   3.414  12.887 -0.8149 -0.6921  0.2013
 8299TIP3    H246389   5.121   3.461  12.751 -0.9085 -1.2763  0.0312
 8300TIP3   OH246390   3.739   4.746   2.230  0.2150 -0.1074 -0.0201
 8300TIP3    H146391   3.823   4.759   2.184 -0.0120 -1.3506 -0.8183
 8300TIP3    H246392   3.696   4.832   2.225  0.9606  0.2471 -0.5849
 8301TIP3   OH246393   4.315   6.728   2.123  0.5736 -0.2687 -0.0203
 8301TIP3    H146394   4.299   6.651   2.069  0.1292 -0.1453 -0.0648
 8301TIP3    H246395   4.409   6.743   2.115  0.4588 -0.0470 -1.0306
 8302TIP3   OH246396   0.920   6.353  15.947 -0.1013  0.1671  0.5499
 8302TIP3    H146397   0.859   6.399  15.890 -0.0366 -1.5930 -1.0091
 8302TIP3    H246398   0.994   6.413  15.955 -0.7313  1.0534  0.0019
 8303TIP3   OH246399   1.629   1.609   1.785  0.2482  0.1425  0.1680
 8303TIP3    H146400   1.618   1.648   1.871  0.6984  0.8857 -0.0993
 8303TIP3    H246401   1.711   1.559   1.792  0.8657  1.0918 -0.1339
 8304TIP3   OH246402   5.128   6.243  13.592 -0.2181 -0.1405  0.2247
 8304TIP3    H146403   5.053   6.235  13.651  0.2590 -0.8691  0.7655
 8304TIP3    H246404   5.159   6.153  13.581  0.9330  0.2014  0.5018
 8305TIP3   OH246405   2.434   2.556   1.980  0.5353 -0.4765  0.2827
 8305TIP3    H146406   2.355   2.520   1.941 -0.4423 -0.3615  2.0677
 8305TIP3    H246407   2.483   2.479   2.011  0.6786 -0.4989  0.0020
 8306TIP3   OH246408   3.193   5.191   3.750 -0.3095  0.3051 -0.0390
 8306TIP3    H146409   3.272   5.239   3.726  0.9774 -1.6220  0.0793
 8306TIP3    H246410   3.212   5.156   3.838 -1.4286  0.0972  0.1356
 8307TIP3   OH246411   5.872   2.080   5.639  0.1211  0.6698 -0.3289
 8307TIP3    H146412   5.792   2.075   5.586 -0.2683 -0.6191  0.3222
 8307TIP3    H246413   5.898   1.989   5.651  1.1468  1.0326  0.2834
 8308TIP3   OH246414   3.168   0.631   3.847  0.1316 -0.5063 -1.0902
 8308TIP3    H146415   3.250   0.649   3.802  0.7355  0.4279  0.3290
 8308TIP3    H246416   3.179   0.668   3.934 -1.7585 -0.4628 -0.8183
 8309TIP3   OH246417   3.966   1.284  17.058 -0.5298  0.0020  0.4112
 8309TIP3    H146418   3.964   1.228  17.136  0.5586 -0.3323  0.2213
 8309TIP3    H246419   3.884   1.264  17.012 -0.9201 -0.2091  1.1822
 8310TIP3   OH246420   0.174   5.037   3.141  0.2589  0.0253 -0.6208
 8310TIP3    H146421   0.162   4.961   3.197  2.2795  1.7390  2.4050
 8310TIP3    H246422   0.251   5.016   3.088 -1.7595 -1.6680 -3.1902
 8311TIP3   OH246423   0.539   1.480   1.952  0.4016  0.2438 -0.2909
 8311TIP3    H146424   0.512   1.414   2.016 -0.9645  0.3842 -0.6846
 8311TIP3    H246425   0.634   1.484   1.960  0.4899 -1.4779  0.0320
 8312TIP3   OH246426   3.640   3.024   5.287 -0.1606  0.5755 -0.4567
 8312TIP3    H146427   3.554   3.013   5.327  0.2598  0.2570  0.4090
 8312TIP3    H246428   3.623   3.065   5.203 -1.2723 -0.6637 -0.8780
 8313TIP3   OH246429   5.896   5.226  16.397  0.0412  0.3113  0.4153
 8313TIP3    H146430   5.841   5.298  16.364 -0.8659 -0.3638  0.4353
 8313TIP3    H246431   5.913   5.172  16.320  0.7436  0.5464  0.3962
 8314TIP3   OH246432   2.340   6.267   0.839  0.3542 -0.0100 -0.4974
 8314TIP3    H146433   2.257   6.288   0.882  0.7268  3.0322 -1.0341
 8314TIP3    H246434   2.369   6.187   0.883 -2.4804 -0.8050  0.1744
 8315TIP3   OH246435   2.952   0.548  16.935 -0.3349 -0.3875  0.5187
 8315TIP3    H146436   2.960   0.485  17.006  2.0108 -2.1970 -1.1911
 8315TIP3    H246437   3.014   0.618  16.957 -0.1160 -0.6050  0.5918
 8316TIP3   OH246438   0.291   6.153  16.072 -0.1671  0.3062  0.2953
 8316TIP3    H146439   0.376   6.178  16.109 -0.4983  2.1318 -0.0885
 8316TIP3    H246440   0.305   6.155  15.977 -0.8269  1.4884  0.1997
 8317TIP3   OH246441   5.329   6.799  15.479  0.3723  0.6374 -0.2828
 8317TIP3    H146442   5.367   6.866  15.423  1.6136  1.6088  1.6370
 8317TIP3    H246443   5.387   6.794  15.555 -2.9090  1.8148  2.5697
 8318TIP3   OH246444   2.743   2.407  12.094  0.8218  0.1790 -0.2822
 8318TIP3    H146445   2.798   2.370  12.025 -3.3374 -1.0107 -3.3191
 8318TIP3    H246446   2.749   2.502  12.082  0.4775  0.0007 -2.1057
 8319TIP3   OH246447   3.881   3.527   3.761  0.0073  0.5175  0.6562
 8319TIP3    H146448   3.934   3.566   3.691  1.6281  0.2990  1.6940
 8319TIP3    H246449   3.800   3.578   3.761  0.7493  1.7653 -0.1428
 8320TIP3   OH246450   4.306   2.390   1.231  0.5528  0.2558  0.1816
 8320TIP3    H146451   4.221   2.363   1.197  1.6603  0.8212 -3.4656
 8320TIP3    H246452   4.369   2.359   1.166  3.0386  1.1851  1.9662
 8321TIP3   OH246453   1.884   2.453   3.911 -0.3608 -0.0474  0.0620
 8321TIP3    H146454   1.861   2.363   3.889 -0.8643 -0.4258  1.9418
 8321TIP3    H246455   1.800   2.499   3.919 -0.2119  0.0535  1.1552
 8322TIP3   OH246456   6.051   1.981  13.987 -0.0400 -0.2258 -0.1496
 8322TIP3    H146457   6.091   2.038  13.922  0.0685 -0.5845 -0.3972
 8322TIP3    H246458   6.121   1.965  14.051 -0.2229  0.3410  0.2045
 8323TIP3   OH246459   1.666   1.062  15.281  0.1309 -0.3716 -0.6614
 8323TIP3    H146460   1.684   0.977  15.239 -0.2968 -0.1811 -1.2418
 8323TIP3    H246461   1.750   1.108  15.277  0.8404 -1.4011  1.2040
 8324TIP3   OH246462   2.370   6.640  13.102  0.1217  0.7918 -0.3830
 8324TIP3    H146463   2.385   6.679  13.189 -0.2073 -0.1865  0.1218
 8324TIP3    H246464   2.354   6.716  13.045  0.1839  1.4422  0.4360
 8325TIP3   OH246465   5.959   4.122   2.003 -0.3327  0.1216  0.1200
 8325TIP3    H146466   5.977   4.215   1.990  1.0408 -0.0849  0.3818
 8325TIP3    H246467   5.868   4.111   1.975 -0.7404  1.6611  0.7352
 8326TIP3   OH246468   6.009   5.490  15.730 -0.0712 -0.1538 -0.6201
 8326TIP3    H146469   5.947   5.498  15.803  0.4038 -3.2163  0.2697
 8326TIP3    H246470   6.018   5.579  15.696 -2.6562  0.8739  1.0993
 8327TIP3   OH246471   2.089   6.687  11.303  0.9183  0.4473  0.2249
 8327TIP3    H146472   2.155   6.622  11.330  0.3367 -0.2042  0.1115
 8327TIP3    H246473   2.047   6.713  11.384  2.3632  2.0702  0.5097
 8328TIP3   OH246474   3.977   1.675   3.085  0.1089  0.1399 -0.3479
 8328TIP3    H146475   3.928   1.656   3.005  1.9063 -0.3261 -1.3884
 8328TIP3    H246476   3.940   1.616   3.151 -0.9462  0.0544 -0.9929
 8329TIP3   OH246477   0.135   0.687  16.862 -0.0827  0.3607 -0.1691
 8329TIP3    H146478   0.116   0.595  16.848 -0.4020  0.3033  0.6069
 8329TIP3    H246479   0.110   0.730  16.780 -1.4516 -0.0275  0.0304
 8330TIP3   OH246480   5.258   1.377  11.385 -0.4203  0.0534  0.1488
 8330TIP3    H146481   5.224   1.348  11.301 -0.4368  0.0391  0.1600
 8330TIP3    H246482   5.193   1.346  11.449 -0.9629  0.9807  0.0706
 8331TIP3   OH246483   4.674   0.238   2.828  0.0241  0.0121  0.1562
 8331TIP3    H146484   4.723   0.308   2.872 -3.3612  1.8590  1.4474
 8331TIP3    H246485   4.696   0.248   2.735  1.7911  0.8870  0.6238
 8332TIP3   OH246486   3.314   1.837  11.868  0.5061  0.0220 -0.1689
 8332TIP3    H146487   3.221   1.833  11.890  0.7471 -2.2414  0.6454
 8332TIP3    H246488   3.344   1.918  11.909 -0.8785  0.2525  0.4646
 8333TIP3   OH246489   3.625   5.667   1.696 -0.0124  0.2318  0.5847
 8333TIP3    H146490   3.680   5.712   1.633 -0.5293  1.5864  1.0499
 8333TIP3    H246491   3.566   5.614   1.643 -0.6843  1.6337 -0.1270
 8334TIP3   OH246492   5.215   6.724   3.408 -0.1143 -0.2039  0.1105
 8334TIP3    H146493   5.209   6.799   3.349 -0.4027 -0.8072 -0.6396
 8334TIP3    H246494   5.132   6.726   3.457 -0.1914 -0.1265 -0.0230
 8335TIP3   OH246495   0.280   1.225   3.476  0.1762  1.0157 -0.5019
 8335TIP3    H146496   0.270   1.299   3.536  0.1099  3.0319 -2.8115
 8335TIP3    H246497   0.247   1.150   3.524  1.0956  2.2900  2.3139
 8336TIP3   OH246498   4.138   5.502  10.757 -0.5351 -0.7837  0.4022
 8336TIP3    H146499   4.055   5.534  10.793 -2.4819 -2.0461 -2.5627
 8336TIP3    H246500   4.131   5.407  10.761  0.9980 -0.9137  0.5207
 8337TIP3   OH246501   6.672   3.023  14.131  0.2479  0.2281  0.1236
 8337TIP3    H146502   6.655   2.994  14.042  1.9138 -0.6658  0.0483
 8337TIP3    H246503   6.645   2.949  14.186  1.4531 -0.2149  0.1593
 8338TIP3   OH246504   3.797   3.920   5.249  0.1998  0.2496 -0.2307
 8338TIP3    H146505   3.775   3.966   5.330 -0.3601 -1.0267  0.3680
 8338TIP3    H246506   3.720   3.867   5.230  1.2540 -1.3135 -0.2695
 8339TIP3   OH246507   3.824   3.226  12.317 -0.1016 -0.2139 -0.3390
 8339TIP3    H146508   3.850   3.137  12.295  0.8249  0.2802 -1.2712
 8339TIP3    H246509   3.884   3.282  12.269 -0.4830  0.9259  0.4643
 8340TIP3   OH246510   1.069   5.468   3.395 -0.3334 -0.0078 -0.2922
 8340TIP3    H146511   1.100   5.557   3.381  1.5970 -0.7316 -1.0319
 8340TIP3    H246512   0.996   5.477   3.456 -0.8533  2.1514 -1.1424
 8341TIP3   OH246513   3.862   4.105  13.073  0.1505  1.0593  0.1288
 8341TIP3    H146514   3.781   4.154  13.087 -1.1372 -1.0200  0.3962
 8341TIP3    H246515   3.851   4.063  12.988  1.2643  1.2937 -0.1557
 8342TIP3   OH246516   3.784   4.606  11.953  0.1186  0.1683 -0.4226
 8342TIP3    H146517   3.710   4.557  11.919  0.0953  0.1135 -0.2934
 8342TIP3    H246518   3.771   4.695  11.922 -0.9562  0.5781  1.0837
 8343TIP3   OH246519   4.410   3.579   4.655 -0.5191  0.3302 -0.1804
 8343TIP3    H146520   4.361   3.515   4.604 -0.6492  1.2905 -1.3259
 8343TIP3    H246521   4.351   3.603   4.726 -1.2452  0.5645 -0.8399
 8344TIP3   OH246522   6.681   0.961   0.543  0.0005  0.0816 -0.4846
 8344TIP3    H146523   6.680   0.926   0.632 -1.0858  1.3349  0.0450
 8344TIP3    H246524   6.773   0.977   0.523  0.6927 -3.7015 -1.0998
 8345TIP3   OH246525   2.247   4.126   1.972  0.0292  0.4040 -0.1937
 8345TIP3    H146526   2.186   4.074   1.920  0.8313 -0.2066 -0.5440
 8345TIP3    H246527   2.285   4.188   1.909  0.3660  0.2341 -0.1615
 8346TIP3   OH246528   3.313   5.033  14.506  0.5030  0.1117 -0.0926
 8346TIP3    H146529   3.288   5.095  14.574  0.7227  1.3221 -1.0764
 8346TIP3    H246530   3.240   5.035  14.444  1.2091  0.5900 -0.9224
 8347TIP3   OH246531   5.034   6.331   0.750 -0.0872 -0.2610  0.4401
 8347TIP3    H146532   5.121   6.354   0.784  0.3224  0.8717 -1.2626
 8347TIP3    H246533   5.051   6.283   0.669 -1.0221  1.0247 -0.5604
 8348TIP3   OH246534   5.708   1.568   4.465 -0.0863 -0.9891 -0.0699
 8348TIP3    H146535   5.615   1.568   4.445 -0.0757 -2.1711 -0.1843
 8348TIP3    H246536   5.748   1.617   4.394 -0.7184  0.5754  0.6017
 8349TIP3   OH246537   2.544   0.833   4.146 -0.0003 -0.6013  0.7749
 8349TIP3    H146538   2.514   0.869   4.062  2.1603  1.3897  0.7453
 8349TIP3    H246539   2.606   0.765   4.122  0.3198 -0.2997  0.7283
 8350TIP3   OH246540   1.924   0.545   1.420 -0.1755  1.0460 -0.1260
 8350TIP3    H146541   1.950   0.541   1.328  0.9045 -1.4337  0.2093
 8350TIP3    H246542   1.834   0.511   1.421  0.3642 -0.4802 -0.1494
 8351TIP3   OH246543   1.319   6.108  11.090 -0.0058  0.0912 -0.2805
 8351TIP3    H146544   1.354   6.197  11.080  0.7772 -0.0443  1.0498
 8351TIP3    H246545   1.368   6.057  11.025  1.0729  0.2491  0.3732
 8352TIP3   OH246546   5.698   4.449   1.011 -0.0353  0.0194 -0.5202
 8352TIP3    H146547   5.648   4.420   0.935 -0.7372  1.7527 -0.7851
 8352TIP3    H246548   5.645   4.422   1.087 -0.1483 -0.2969 -0.7135
 8353TIP3   OH246549   1.252   6.448   0.484  0.1004 -0.4599 -0.4646
 8353TIP3    H146550   1.206   6.531   0.491  0.2909 -0.3740 -0.1962
 8353TIP3    H246551   1.301   6.441   0.567 -0.2659 -1.0500 -0.2971
 8354TIP3   OH246552   2.797   1.815  11.399 -0.0664  0.3086  0.1092
 8354TIP3    H146553   2.786   1.779  11.487 -0.5548 -2.0602 -0.8561
 8354TIP3    H246554   2.726   1.878  11.391 -2.2783 -2.0258  0.2191
 8355TIP3   OH246555   4.524   5.129  12.509 -0.5352  0.1059 -0.2174
 8355TIP3    H146556   4.526   5.083  12.593 -2.2576  0.7390  0.2147
 8355TIP3    H246557   4.431   5.140  12.490 -0.1711  0.7609 -1.7912
 8356TIP3   OH246558   1.621   3.978   4.353  0.0246  0.3971 -0.4498
 8356TIP3    H146559   1.534   3.941   4.341  0.2004 -0.4593  0.6985
 8356TIP3    H246560   1.610   4.043   4.423  0.1225  1.0213 -1.0055
 8357TIP3   OH246561   4.844   1.028   0.286  0.2605  0.1619  0.5047
 8357TIP3    H146562   4.892   0.967   0.343 -1.3217 -0.8194  0.8461
 8357TIP3    H246563   4.860   0.996   0.198  0.6411  0.1500  0.5761
 8358TIP3   OH246564   2.677   1.569   2.809 -0.1653 -0.1574  0.6717
 8358TIP3    H146565   2.710   1.500   2.751 -0.4916 -1.0896  1.5754
 8358TIP3    H246566   2.688   1.650   2.758  1.9524 -0.6217  0.3147
 8359TIP3   OH246567   0.830   5.475   0.281  0.0886 -0.3190 -0.3779
 8359TIP3    H146568   0.776   5.408   0.324 -0.9413  0.2999 -0.6533
 8359TIP3    H246569   0.902   5.491   0.342 -0.5654 -0.4950  0.4585
 8360TIP3   OH246570   2.711   0.061  13.311 -0.2734 -0.0872 -0.8075
 8360TIP3    H146571   2.802   0.033  13.322  0.3202  2.5156  2.3625
 8360TIP3    H246572   2.664   0.022  13.384 -1.4744 -0.3447 -1.6746
 8361TIP3   OH246573   3.428   4.888   2.412  0.3686 -0.7077 -0.0592
 8361TIP3    H146574   3.375   4.809   2.422  0.7720 -1.2562 -1.9118
 8361TIP3    H246575   3.443   4.895   2.318 -1.3345  2.7004 -0.2558
 8362TIP3   OH246576   5.008   1.637   5.022  0.0830  0.2028 -0.9538
 8362TIP3    H146577   4.976   1.549   5.004  2.0321 -0.1066 -3.4553
 8362TIP3    H246578   5.103   1.630   5.020  0.2983  2.3870 -1.3675
 8363TIP3   OH246579   2.083   4.586   4.988 -0.5312 -0.6515  0.0556
 8363TIP3    H146580   2.159   4.582   4.930 -0.2845 -0.2801  0.3494
 8363TIP3    H246581   2.117   4.620   5.070 -1.1597  0.3204 -0.0634
 8364TIP3   OH246582   3.566   3.669  14.001 -0.2350 -0.2972  0.6075
 8364TIP3    H146583   3.597   3.744  14.053 -1.2639  0.1029  0.6839
 8364TIP3    H246584   3.585   3.593  14.056  0.5761 -0.0663  0.6536
 8365TIP3   OH246585   1.841   5.989  13.121  0.1790  0.4410 -0.0155
 8365TIP3    H146586   1.923   6.033  13.142  0.1549  0.3515  0.2689
 8365TIP3    H246587   1.866   5.917  13.064  0.1633  1.1250 -0.9094
 8366TIP3   OH246588   5.927   3.659  13.626 -0.3769 -0.2101 -0.8438
 8366TIP3    H146589   5.966   3.716  13.560  1.4508  0.1178  0.4391
 8366TIP3    H246590   5.994   3.650  13.693 -1.7169 -1.5041  0.4172
 8367TIP3   OH246591   1.077   4.321  11.724  0.3192 -0.2565 -0.1625
 8367TIP3    H146592   1.067   4.257  11.794  1.6499 -1.0322 -0.6454
 8367TIP3    H246593   1.053   4.274  11.644  2.0603 -0.4467 -0.6232
 8368TIP3   OH246594   3.308   0.385   1.308  0.6871 -0.1431  0.0966
 8368TIP3    H146595   3.355   0.467   1.293  0.5343 -0.1343 -0.3801
 8368TIP3    H246596   3.371   0.317   1.284  0.9477 -0.1776  0.8813
 8369TIP3   OH246597   1.989   2.341  16.396 -0.0773  0.0606 -0.0945
 8369TIP3    H146598   2.061   2.281  16.376  1.3969  1.5116  0.5624
 8369TIP3    H246599   1.981   2.395  16.317 -0.1639  0.1737 -0.0071
 8370TIP3   OH246600   3.919   1.856  14.462  0.2544  0.2723  0.1797
 8370TIP3    H146601   3.880   1.930  14.509  0.0058  0.5384 -0.4407
 8370TIP3    H246602   4.008   1.885  14.440  0.3129  0.2115  0.3322
 8371TIP3   OH246603   1.410   3.275   0.831  0.0748 -0.0140 -0.1354
 8371TIP3    H146604   1.378   3.185   0.847 -0.4031  0.2948  0.7382
 8371TIP3    H246605   1.495   3.278   0.876  1.0333 -0.6068 -1.8260
 8372TIP3   OH246606   5.750   4.363  14.499 -0.0708 -0.1821  0.6000
 8372TIP3    H146607   5.826   4.343  14.445  1.1027  0.8771  1.8109
 8372TIP3    H246608   5.705   4.279  14.509  1.6597 -1.0991  0.9424
 8373TIP3   OH246609   6.326   5.237   5.387 -0.7978  0.1606 -0.3418
 8373TIP3    H146610   6.247   5.280   5.418  0.1150  1.2691  0.5781
 8373TIP3    H246611   6.378   5.307   5.348 -0.4432 -0.6238 -1.3027
 8374TIP3   OH246612   1.942   6.465   0.327  0.5887  0.2632  0.3128
 8374TIP3    H146613   1.963   6.474   0.234  0.8189 -0.6597  0.2631
 8374TIP3    H246614   1.998   6.530   0.371  0.8288  0.3751 -0.1507
 8375TIP3   OH246615   5.502   2.929   1.268 -0.0754 -0.2502  0.0860
 8375TIP3    H146616   5.481   2.845   1.307  0.5433  0.3000  1.7032
 8375TIP3    H246617   5.564   2.969   1.330  0.2784  1.0414 -1.0517
 8376TIP3   OH246618   2.671   1.587   6.603  0.4117 -0.3327  0.0317
 8376TIP3    H146619   2.662   1.633   6.519 -1.3269  0.2624  0.4907
 8376TIP3    H246620   2.590   1.535   6.610  1.6532 -2.3356  0.2143
 8377TIP3   OH246621   0.518   2.168  13.009 -0.4867  0.9875 -0.0873
 8377TIP3    H146622   0.508   2.112  12.932 -1.7449  1.7203 -0.4923
 8377TIP3    H246623   0.596   2.135  13.053  0.3622  0.6308 -1.7604
 8378TIP3   OH246624   6.155   3.808   4.339 -0.2684 -0.0686 -0.0803
 8378TIP3    H146625   6.241   3.849   4.344  0.4228 -1.3799 -0.8793
 8378TIP3    H246626   6.136   3.782   4.430  0.6123 -0.6214 -0.0436
 8379TIP3   OH246627   3.274   3.366   5.489 -0.0390 -0.4127 -0.4053
 8379TIP3    H146628   3.367   3.384   5.501  0.1580 -0.8010 -1.3190
 8379TIP3    H246629   3.251   3.307   5.561 -0.1559  1.5047  1.2650
 8380TIP3   OH246630   4.434   4.280   4.066 -0.2340 -0.5016 -0.2012
 8380TIP3    H146631   4.366   4.271   4.132 -0.6501 -0.4581 -0.6155
 8380TIP3    H246632   4.472   4.367   4.081  0.2249 -0.8121  0.4842
 8381TIP3   OH246633   0.290   5.547  11.668  0.0629 -0.0515  0.2843
 8381TIP3    H146634   0.293   5.484  11.596 -0.3419 -0.4455  0.6086
 8381TIP3    H246635   0.372   5.535  11.714 -0.5570 -1.2796  1.1231
 8382TIP3   OH246636   6.690   0.592  15.339  0.4358  0.4214 -0.1878
 8382TIP3    H146637   6.684   0.549  15.424 -0.1028 -3.5358 -2.0240
 8382TIP3    H246638   6.600   0.618  15.320  0.3260  0.0682 -0.1525
 8383TIP3   OH246639   5.273   4.767  14.495  0.6034 -0.1376 -0.2110
 8383TIP3    H146640   5.304   4.756  14.405  0.8082  0.3907 -0.2033
 8383TIP3    H246641   5.202   4.703  14.503  0.8956 -0.5199 -0.5972
 8384TIP3   OH246642   0.192   2.190   1.961 -0.1482  0.1695 -0.6571
 8384TIP3    H146643   0.279   2.187   1.920 -0.0331 -0.6098 -0.3869
 8384TIP3    H246644   0.210   2.196   2.055 -0.3877 -0.0029 -0.5990
 8385TIP3   OH246645   2.901   0.901  15.030 -1.3099  0.6204  0.4899
 8385TIP3    H146646   2.835   0.832  15.036 -0.5018 -0.3576 -1.0242
 8385TIP3    H246647   2.975   0.859  14.985 -0.9164  2.5623 -0.8091
 8386TIP3   OH246648   0.351   0.297  11.919  0.3491  0.2308 -0.5104
 8386TIP3    H146649   0.428   0.242  11.910  0.7633  0.5206  0.9588
 8386TIP3    H246650   0.380   0.369  11.975 -1.3133 -0.3843  1.2642
 8387TIP3   OH246651   3.138   2.201  16.530 -0.0810  0.3693  0.8020
 8387TIP3    H146652   3.067   2.160  16.580 -1.2611 -0.6670 -1.5796
 8387TIP3    H246653   3.215   2.191  16.586 -1.4677  0.1047  2.7872
 8388TIP3   OH246654   3.139   5.575   0.753  0.2623 -0.4944  0.1579
 8388TIP3    H146655   3.166   5.600   0.841  0.8637 -0.4862 -0.0278
 8388TIP3    H246656   3.109   5.485   0.762  0.9229 -0.7097  0.2562
 8389TIP3   OH246657   2.549   1.282   1.134  0.2137  0.0758  0.5913
 8389TIP3    H146658   2.495   1.205   1.152 -0.5891 -0.1773 -2.3977
 8389TIP3    H246659   2.624   1.247   1.085 -0.1685  1.1537 -0.8138
 8390TIP3   OH246660   0.122   2.590  13.701 -0.2304  0.4257  0.1474
 8390TIP3    H146661   0.078   2.640  13.770 -0.4357  1.1886 -0.5131
 8390TIP3    H246662   0.064   2.516  13.683 -0.5945  0.6964  0.2020
 8391TIP3   OH246663   4.625   4.452   2.386 -0.1033 -0.1487 -0.4984
 8391TIP3    H146664   4.623   4.528   2.443 -0.0525 -0.7908  0.3771
 8391TIP3    H246665   4.713   4.415   2.397 -0.2188 -0.4949 -0.6987
 8392TIP3   OH246666   3.950   4.447   5.234  0.3173  0.1409  0.5241
 8392TIP3    H146667   3.987   4.438   5.321 -0.4611 -0.0171  0.8515
 8392TIP3    H246668   3.858   4.422   5.244  0.1249  0.4760 -0.2640
 8393TIP3   OH246669   2.481   2.641  15.016  0.0763 -0.1773  0.4819
 8393TIP3    H146670   2.394   2.650  15.055  0.9438  1.9167  2.0950
 8393TIP3    H246671   2.526   2.722  15.038  2.1940 -0.8554 -1.0309
 8394TIP3   OH246672   3.792   1.579   0.707  0.2991  0.4734  0.6330
 8394TIP3    H146673   3.760   1.521   0.638  1.0810 -1.6082  1.9025
 8394TIP3    H246674   3.716   1.593   0.763  0.5276 -0.9780  1.3579
 8395TIP3   OH246675   2.183   1.384  12.544  0.3320 -0.1276 -0.5295
 8395TIP3    H146676   2.113   1.388  12.479  0.2378 -0.0426 -0.4205
 8395TIP3    H246677   2.166   1.457  12.604 -0.3550 -1.0169  0.3831
 8396TIP3   OH246678   3.803   1.155  12.903  0.1119  0.7351 -0.0106
 8396TIP3    H146679   3.868   1.184  12.967 -0.7227  1.5485  0.4790
 8396TIP3    H246680   3.725   1.207  12.922  0.3097  2.1973 -2.7284
 8397TIP3   OH246681   3.118   4.542  11.142  0.1149 -0.5624  0.1087
 8397TIP3    H146682   3.169   4.612  11.102  0.5733 -0.5677  0.6792
 8397TIP3    H246683   3.087   4.578  11.224 -0.5157 -0.6796 -0.0704
 8398TIP3   OH246684   3.170   2.033   2.084  0.2554 -0.5808 -0.7440
 8398TIP3    H146685   3.182   1.963   2.148 -0.0292 -0.5059 -0.6028
 8398TIP3    H246686   3.076   2.051   2.086  0.5924  1.4306  0.9763
 8399TIP3   OH246687   0.685   4.537  12.069 -0.4801  0.4510  0.1499
 8399TIP3    H146688   0.605   4.531  12.016  0.9200  1.7360 -2.3415
 8399TIP3    H246689   0.728   4.452  12.057  0.0776  0.9065 -1.3304
 8400TIP3   OH246690   0.914   5.263  14.568  0.2284  0.0851 -0.2309
 8400TIP3    H146691   0.928   5.261  14.474  0.9551  0.0590 -0.1282
 8400TIP3    H246692   0.913   5.357  14.590 -0.6329  0.1123 -0.3555
 8401TIP3   OH246693   0.199   0.188   0.576  0.1026  0.1898 -0.0637
 8401TIP3    H146694   0.146   0.232   0.509 -1.4996 -0.2825  0.8342
 8401TIP3    H246695   0.287   0.224   0.564 -0.5172  1.4217 -1.2681
 8402TIP3   OH246696   0.370   3.057   3.912 -0.4196  0.1883 -0.8064
 8402TIP3    H146697   0.285   3.092   3.939 -0.5319 -1.6559  1.6086
 8402TIP3    H246698   0.432   3.095   3.974 -0.3093 -2.3659  0.7801
 8403TIP3   OH246699   2.027   1.411  16.231 -0.0231 -0.5661  0.0488
 8403TIP3    H146700   2.092   1.385  16.298 -1.5007  0.7990  2.1426
 8403TIP3    H246701   1.947   1.365  16.256 -0.6404  0.0503 -0.7285
 8404TIP3   OH246702   5.577   5.755   4.874 -0.4365  0.5664 -0.1595
 8404TIP3    H146703   5.651   5.769   4.933 -0.5409  3.4022 -0.5635
 8404TIP3    H246704   5.501   5.752   4.931 -0.1921 -0.6246  0.1218
 8405TIP3   OH246705   3.489   2.645  16.096  0.0864 -0.0800  0.0423
 8405TIP3    H146706   3.431   2.708  16.052  0.4774  0.2692  0.0176
 8405TIP3    H246707   3.452   2.636  16.183  0.0461  0.2122  0.0564
 8406TIP3   OH246708   2.108   3.387   5.061  0.3321  0.0773  0.0987
 8406TIP3    H146709   2.135   3.470   5.022 -0.4051  0.5169  0.5108
 8406TIP3    H246710   2.013   3.392   5.066  0.2751 -0.8153  0.0858
 8407TIP3   OH246711   5.091   4.080  13.167 -0.0127  0.1596  0.2613
 8407TIP3    H146712   5.165   4.035  13.126 -1.0708 -0.5152 -1.0081
 8407TIP3    H246713   5.059   4.018  13.232 -0.1778 -0.0559 -0.0198
 8408TIP3   OH246714   5.018   1.837  14.322 -0.5245 -0.5285  0.2567
 8408TIP3    H146715   4.973   1.753  14.308  0.8342 -1.1895 -0.3073
 8408TIP3    H246716   4.980   1.871  14.403 -3.8680  0.1975 -1.4371
 8409TIP3   OH246717   6.593   1.181   6.330 -0.2902 -0.7343 -0.4050
 8409TIP3    H146718   6.670   1.185   6.274  1.7287 -1.0873  2.1578
 8409TIP3    H246719   6.583   1.088   6.350 -0.7157 -0.5727  0.1533
 8410TIP3   OH246720   4.230   3.528  12.427  0.1794 -0.0117  0.5137
 8410TIP3    H146721   4.149   3.506  12.379 -0.1680  1.4267  0.3885
 8410TIP3    H246722   4.300   3.491  12.373 -0.1077  2.6251 -1.9005
 8411TIP3   OH246723   2.911   4.102  14.582 -0.6265 -0.7046  0.2920
 8411TIP3    H146724   2.832   4.153  14.595 -0.7849 -0.4606 -1.4945
 8411TIP3    H246725   2.882   4.022  14.539  0.2088 -0.0597 -1.5688
 8412TIP3   OH246726   3.534   3.754  12.144 -0.1182  0.5535  0.3714
 8412TIP3    H146727   3.575   3.674  12.175 -2.7273 -0.7082  0.9156
 8412TIP3    H246728   3.467   3.725  12.082  0.0759  2.4727 -0.8339
 8413TIP3   OH246729   0.164   0.536   4.012  0.0101  0.6602  0.1843
 8413TIP3    H146730   0.189   0.470   4.076  2.3077  1.2976  0.0506
 8413TIP3    H246731   0.204   0.506   3.930 -0.1536  1.4619 -0.2024
 8414TIP3   OH246732   2.382   4.626  12.861 -0.1441 -0.3204  0.0106
 8414TIP3    H146733   2.363   4.549  12.808 -1.2060 -0.0501 -0.0208
 8414TIP3    H246734   2.468   4.608  12.900  0.5117 -0.6546 -1.5386
 8415TIP3   OH246735   2.390   5.298   2.044  0.2133 -0.8650  0.2533
 8415TIP3    H146736   2.368   5.252   1.963  0.8565  0.4919 -0.7381
 8415TIP3    H246737   2.437   5.376   2.015 -2.5944  1.5740  1.6476
 8416TIP3   OH246738   6.426   5.646  13.148  0.1462 -0.2229 -0.2016
 8416TIP3    H146739   6.413   5.690  13.232  0.8428  0.0335 -0.2242
 8416TIP3    H246740   6.354   5.678  13.094 -0.3567 -0.4532  0.3148
 8417TIP3   OH246741   5.464   5.573  11.211  0.0698  0.5326  0.1167
 8417TIP3    H146742   5.520   5.649  11.198  0.1711  0.3747 -0.3900
 8417TIP3    H246743   5.375   5.606  11.202  0.1134  0.5972 -0.0774
 8418TIP3   OH246744   1.377   4.171  17.242  0.4017 -0.4146 -0.1847
 8418TIP3    H146745   1.288   4.200  17.225  1.1405  2.0554 -0.2244
 8418TIP3    H246746   1.377   4.147  17.335 -0.5235 -1.3852 -0.4283
 8419TIP3   OH246747   4.448   0.495  13.856 -0.4476  0.0044 -0.2282
 8419TIP3    H146748   4.489   0.490  13.769  0.1054  0.0394  0.0218
 8419TIP3    H246749   4.413   0.583  13.860 -0.4466  0.0146 -0.4067
 8420TIP3   OH246750   4.531   6.029  16.097 -0.0242 -0.5595  0.9333
 8420TIP3    H146751   4.555   6.094  16.164  1.4066  0.5428 -0.5735
 8420TIP3    H246752   4.565   5.947  16.132  0.0241 -0.1460  1.9045
 8421TIP3   OH246753   3.420   0.213   0.268 -0.1238 -0.1268 -0.0335
 8421TIP3    H146754   3.341   0.253   0.230  0.8558  1.9330 -0.0248
 8421TIP3    H246755   3.411   0.228   0.362 -0.2188 -0.8694  0.0818
 8422TIP3   OH246756   6.272   1.519   4.161  0.1249  0.5105  0.3464
 8422TIP3    H146757   6.250   1.544   4.251 -2.5447  0.4638 -0.2233
 8422TIP3    H246758   6.217   1.443   4.143  0.4388  0.6599 -1.4000
 8423TIP3   OH246759   1.170   5.744   0.704  0.3247 -0.0072 -0.1349
 8423TIP3    H146760   1.103   5.678   0.689  0.7939 -0.2491 -1.3129
 8423TIP3    H246761   1.145   5.817   0.646  1.2420 -0.2384 -0.8442
 8424TIP3   OH246762   1.239   3.156  17.290 -0.6698  0.2314 -0.4541
 8424TIP3    H146763   1.259   3.225  17.227 -0.3748  0.8874  0.3397
 8424TIP3    H246764   1.159   3.184  17.334 -1.6668 -0.9021 -1.4834
 8425TIP3   OH246765   4.577   5.616   4.342 -0.7264 -0.0727  0.0358
 8425TIP3    H146766   4.519   5.652   4.274 -1.7603 -0.9821  0.4030
 8425TIP3    H246767   4.548   5.525   4.351 -0.5198 -0.0000  1.5971
 8426TIP3   OH246768   5.584   1.823  14.786 -0.2198  0.1034  0.4712
 8426TIP3    H146769   5.658   1.782  14.831 -1.3416 -1.1541  1.2501
 8426TIP3    H246770   5.591   1.790  14.696 -0.8093 -1.4635  0.9634
 8427TIP3   OH246771   2.146   1.844   0.999  0.3150 -0.3616 -0.6290
 8427TIP3    H146772   2.155   1.772   0.937 -2.4625 -2.4515  1.1351
 8427TIP3    H246773   2.172   1.807   1.083  1.9286  1.7435 -0.1239
 8428TIP3   OH246774   3.617   4.586  10.912  0.3808 -0.1753  0.1642
 8428TIP3    H146775   3.577   4.642  10.978 -1.4761 -1.2313 -0.0168
 8428TIP3    H246776   3.572   4.502  10.920  2.4979 -1.4148 -0.1540
 8429TIP3   OH246777   6.515   4.029  12.782 -0.3929 -0.2895 -0.1412
 8429TIP3    H146778   6.442   3.968  12.793  1.0573 -1.7705  1.9726
 8429TIP3    H246779   6.567   3.992  12.711 -0.6462 -0.3040 -0.3215
 8430TIP3   OH246780   5.710   5.451  12.133 -0.1437 -0.2637 -0.3604
 8430TIP3    H146781   5.716   5.393  12.209 -0.1680 -0.8345 -0.7883
 8430TIP3    H246782   5.659   5.526  12.163  1.9346  0.7450  0.9506
 8431TIP3   OH246783   0.343   0.659   0.956  0.0329  0.1136 -0.1276
 8431TIP3    H146784   0.357   0.693   1.044 -2.1919  0.7660  0.0326
 8431TIP3    H246785   0.302   0.731   0.908  0.8541 -0.3601 -1.6122
 8432TIP3   OH246786   3.087   4.399   0.213  0.1020 -0.4613  0.2906
 8432TIP3    H146787   3.067   4.493   0.209 -0.8208 -0.5881  1.3388
 8432TIP3    H246788   3.043   4.369   0.293  0.0212 -1.8718 -0.2575
 8433TIP3   OH246789   5.568   3.542   0.604  0.0372  0.0898 -0.1886
 8433TIP3    H146790   5.552   3.576   0.516 -1.5214  1.4333  0.5546
 8433TIP3    H246791   5.593   3.451   0.591 -1.2178 -0.0540 -1.9570
 8434TIP3   OH246792   5.735   1.892  17.182 -0.2580  0.7383  0.4308
 8434TIP3    H146793   5.725   1.834  17.258  0.3233 -0.3198 -0.2821
 8434TIP3    H246794   5.814   1.861  17.139 -0.7196  1.1701 -0.7531
 8435TIP3   OH246795   6.236   0.080  16.030 -0.0052 -0.2770 -0.7017
 8435TIP3    H146796   6.289   0.075  16.110 -0.4464  1.0570 -0.3127
 8435TIP3    H246797   6.287   0.030  15.965  0.4759 -1.1681  0.3332
 8436TIP3   OH246798   3.652   6.628  14.159  0.0517  0.4067 -0.2760
 8436TIP3    H146799   3.649   6.545  14.111  0.0449  0.2362  0.0166
 8436TIP3    H246800   3.745   6.643  14.177  0.0214  0.2521  0.0271
 8437TIP3   OH246801   4.286   3.583  15.157  0.1838  0.0455  0.0517
 8437TIP3    H146802   4.237   3.641  15.098  0.7232  1.4828  0.9759
 8437TIP3    H246803   4.313   3.510  15.101 -0.4465  0.7115 -1.1695
 8438TIP3   OH246804   5.712   4.533  14.720 -0.0150  0.4579 -0.4854
 8438TIP3    H146805   5.642   4.596  14.703 -0.5056 -0.1438 -0.7198
 8438TIP3    H246806   5.709   4.472  14.646 -0.2271 -0.4460  0.2454
 8439TIP3   OH246807   3.867   0.330   4.750 -0.5658 -0.3727 -0.8762
 8439TIP3    H146808   3.892   0.245   4.714 -0.9734 -0.7660 -0.2629
 8439TIP3    H246809   3.805   0.308   4.820  1.5057  0.2105  1.2966
 8440TIP3   OH246810   4.941   4.633  16.618  0.0941 -0.1772  0.6022
 8440TIP3    H146811   4.928   4.539  16.632  1.2305 -0.4350  0.0235
 8440TIP3    H246812   4.855   4.665  16.592 -0.0595 -1.2849 -0.3668
 8441TIP3   OH246813   1.210   4.191  12.198 -0.1391 -0.1143 -0.2267
 8441TIP3    H146814   1.135   4.218  12.251  0.6028 -0.8153  1.2682
 8441TIP3    H246815   1.236   4.106  12.235  0.2623 -0.7756 -1.9207
 8442TIP3   OH246816   0.197   0.388   3.170 -0.5056 -1.1399  0.1590
 8442TIP3    H146817   0.263   0.375   3.102 -0.3413  0.7084 -0.0811
 8442TIP3    H246818   0.247   0.403   3.250 -0.5241  1.4210 -0.2313
 8443TIP3   OH246819   6.310   3.401  16.594  0.0930 -0.2479 -0.2813
 8443TIP3    H146820   6.277   3.341  16.661  0.9448 -0.9528 -0.4788
 8443TIP3    H246821   6.405   3.392  16.597  0.1742  0.1389 -1.1912
 8444TIP3   OH246822   5.820   6.554   3.598  0.0911 -0.6425  0.0858
 8444TIP3    H146823   5.792   6.643   3.617 -0.1873 -0.4780 -1.0269
 8444TIP3    H246824   5.793   6.503   3.674  0.8212  0.3216  1.0238
 8445TIP3   OH246825   4.762   0.972  14.619 -0.1719  0.7032  0.0492
 8445TIP3    H146826   4.827   0.951  14.553  1.1490  2.6361  0.6380
 8445TIP3    H246827   4.690   0.911  14.603  1.3243 -0.8105 -1.2844
 8446TIP3   OH246828   5.741   6.067  12.180 -0.2548  1.1887 -0.0317
 8446TIP3    H146829   5.718   6.038  12.092  1.0449  0.5008 -0.1631
 8446TIP3    H246830   5.835   6.050  12.188 -0.7337 -0.9933  2.3117
 8447TIP3   OH246831   1.906   4.272  14.445  0.2775  0.4118  0.5442
 8447TIP3    H146832   1.901   4.368  14.442 -0.2410  0.4600  2.0588
 8447TIP3    H246833   1.878   4.244  14.359  2.7933  1.6760 -0.7980
 8448TIP3   OH246834   2.807   2.781   0.342  0.1864  0.2192  0.1822
 8448TIP3    H146835   2.859   2.860   0.353 -1.3876  1.5070 -1.1917
 8448TIP3    H246836   2.801   2.744   0.430  2.3079  0.6850  0.5940
 8449TIP3   OH246837   6.788   1.403  11.718  0.3470 -0.6679 -0.2422
 8449TIP3    H146838   6.769   1.483  11.669  1.4714  0.3750  0.9162
 8449TIP3    H246839   6.775   1.332  11.655  1.7331  0.5903 -2.0661
 8450TIP3   OH246840   1.892   4.809   4.172 -0.1110  0.3987  0.8955
 8450TIP3    H146841   1.988   4.807   4.173 -0.0529 -0.5790 -1.1488
 8450TIP3    H246842   1.870   4.901   4.177  1.1353  1.0442 -2.6111
 8451TIP3   OH246843   2.518   0.546  17.117  0.8678  0.0275  0.1295
 8451TIP3    H146844   2.453   0.484  17.085  1.3043 -0.2845 -0.1787
 8451TIP3    H246845   2.576   0.493  17.171  2.5684 -0.3679 -1.9282
 8452TIP3   OH246846   0.406   1.023   5.499  0.0676 -0.1241  0.4623
 8452TIP3    H146847   0.465   1.048   5.571  0.9479 -1.9240  0.4323
 8452TIP3    H246848   0.461   1.028   5.421 -1.0272  2.3478 -0.2421
 8453TIP3   OH246849   4.145   1.327  16.438 -0.1017  0.0964  0.2622
 8453TIP3    H146850   4.100   1.252  16.398 -1.3708  0.5193  0.8542
 8453TIP3    H246851   4.124   1.320  16.531  1.8646 -0.2248  0.7148
 8454TIP3   OH246852   4.251   4.656  11.397  0.6104 -0.4320  0.3566
 8454TIP3    H146853   4.233   4.636  11.305 -1.5745 -1.6152  0.9636
 8454TIP3    H246854   4.320   4.595  11.423  0.1869 -1.1128 -0.1125
 8455TIP3   OH246855   5.829   2.360   0.317  0.2176  0.7837  0.1699
 8455TIP3    H146856   5.843   2.274   0.277  0.6921  0.6969  0.5137
 8455TIP3    H246857   5.852   2.348   0.409 -0.0771  1.1875  0.3034
 8456TIP3   OH246858   2.501   2.024  14.532  0.0178  0.2699 -0.7010
 8456TIP3    H146859   2.520   2.016  14.439 -1.5110  0.7606 -1.0870
 8456TIP3    H246860   2.533   2.112  14.555  0.6772  0.0292 -0.6761
 8457TIP3   OH246861   0.796   0.474   5.665  0.3345  0.5091  0.2186
 8457TIP3    H146862   0.770   0.562   5.690 -2.5127  0.1640 -1.1310
 8457TIP3    H246863   0.791   0.423   5.746  2.8479  1.6437  1.1952
 8458TIP3   OH246864   2.786   5.795  11.876 -0.0880 -0.1172  0.4016
 8458TIP3    H146865   2.719   5.735  11.911 -0.6297  0.8057  0.9861
 8458TIP3    H246866   2.819   5.841  11.953  1.7367 -1.0226  0.2251
 8459TIP3   OH246867   0.164   6.069   5.025 -0.2449  0.3738 -0.0980
 8459TIP3    H146868   0.220   6.057   5.102  0.4636  2.1097 -0.3013
 8459TIP3    H246869   0.225   6.085   4.953 -0.9318 -0.5517 -0.9185
 8460TIP3   OH246870   3.763   2.042  13.602 -0.2201 -0.5814 -0.5211
 8460TIP3    H146871   3.684   2.044  13.656  1.9325  1.6927  2.9767
 8460TIP3    H246872   3.758   2.123  13.550  0.7809  0.9193  1.5584
 8461TIP3   OH246873   0.548   0.300  14.524  0.3296  0.1079  0.5307
 8461TIP3    H146874   0.618   0.357  14.493 -1.1203  0.7621 -1.7491
 8461TIP3    H246875   0.491   0.358  14.575 -1.2631  0.8666 -1.9716
 8462TIP3   OH246876   4.434   5.220   3.133 -0.0620 -0.1501  0.5540
 8462TIP3    H146877   4.407   5.246   3.221 -1.3488  0.8841 -0.1022
 8462TIP3    H246878   4.403   5.292   3.077 -1.5878 -1.9701 -1.0691
 8463TIP3   OH246879   5.820   1.887   4.793 -0.0261  0.1796  0.5489
 8463TIP3    H146880   5.877   1.956   4.759  0.5425 -0.9811 -0.9801
 8463TIP3    H246881   5.731   1.918   4.776  0.0374  1.9577  2.8516
 8464TIP3   OH246882   1.953   0.309   3.620 -0.1177 -0.1413  0.1024
 8464TIP3    H146883   1.994   0.243   3.564  1.2150  1.2842 -0.7138
 8464TIP3    H246884   1.862   0.311   3.593  0.4335  0.3217 -1.9144
 8465TIP3   OH246885   6.004   2.067  11.317  0.7059 -0.0251  0.0820
 8465TIP3    H146886   6.036   1.980  11.342  0.0638 -0.6202 -1.0591
 8465TIP3    H246887   5.947   2.093  11.389  0.8208 -0.6019  0.3900
 8466TIP3   OH246888   1.717   0.466   1.920  0.3259  0.3268 -0.0922
 8466TIP3    H146889   1.708   0.542   1.864  1.5334  0.9267  0.4977
 8466TIP3    H246890   1.636   0.464   1.971 -1.0608 -0.5743 -2.2024
 8467TIP3   OH246891   1.391   5.504   2.204  0.0498  0.0317 -0.1406
 8467TIP3    H146892   1.382   5.410   2.219  0.2549  0.2523  1.5793
 8467TIP3    H246893   1.348   5.519   2.120  0.0316 -1.5963 -0.4538
 8468TIP3   OH246894   0.215   3.948   3.380 -0.2357  0.1407 -0.0646
 8468TIP3    H146895   0.169   3.998   3.312 -0.5667 -0.6950 -0.4707
 8468TIP3    H246896   0.147   3.929   3.445  0.0715  0.9055  0.5037
 8469TIP3   OH246897   3.595   6.387   3.678  0.1269 -0.2501 -0.4123
 8469TIP3    H146898   3.540   6.380   3.599  1.5504 -1.5172 -1.3486
 8469TIP3    H246899   3.567   6.315   3.734 -0.0161 -0.1244 -0.3203
 8470TIP3   OH246900   5.259   3.080  14.480 -0.0158 -0.6678 -0.3546
 8470TIP3    H146901   5.336   3.087  14.424  0.6875 -0.9901  0.5360
 8470TIP3    H246902   5.276   3.003  14.534 -1.5414 -1.4863 -0.9819
 8471TIP3   OH246903   3.157   0.089  12.801  0.1796  0.4119  0.0672
 8471TIP3    H146904   3.074   0.042  12.788  0.2166  0.6597 -1.1435
 8471TIP3    H246905   3.198   0.044  12.876 -0.8207 -0.0215  0.3727
 8472TIP3   OH246906   0.601   6.355   4.710 -0.3631 -0.4828  0.2285
 8472TIP3    H146907   0.598   6.414   4.635  1.5795  0.3437  0.7366
 8472TIP3    H246908   0.558   6.404   4.780 -0.3071 -0.3982  0.2038
 8473TIP3   OH246909   4.339   0.050   5.509 -0.0219 -0.1030  0.3467
 8473TIP3    H146910   4.257   0.098   5.523  0.2891  0.6043 -0.1756
 8473TIP3    H246911   4.363   0.069   5.418  0.4627 -0.7024  0.3453
 8474TIP3   OH246912   1.751   6.076   1.313 -0.2370 -0.4583 -0.3144
 8474TIP3    H146913   1.731   6.017   1.241 -0.5937  0.8297 -1.3092
 8474TIP3    H246914   1.698   6.044   1.386 -1.8449 -0.2694 -1.3690
 8475TIP3   OH246915   4.672   4.876  15.225  0.0608 -0.2277 -0.0560
 8475TIP3    H146916   4.578   4.877  15.207  0.3001  0.3747 -1.3492
 8475TIP3    H246917   4.678   4.853  15.318 -1.4378  1.7879  0.6014
 8476TIP3   OH246918   2.969   0.339   3.231  0.3995  0.2880 -0.2907
 8476TIP3    H146919   2.948   0.384   3.149 -0.6803  0.4161  0.0409
 8476TIP3    H246920   2.890   0.289   3.252  0.0678  1.4624  1.4636
 8477TIP3   OH246921   0.321   2.716  16.882  0.8337  0.1690  0.1044
 8477TIP3    H146922   0.323   2.805  16.918  1.1905  0.6049 -0.9480
 8477TIP3    H246923   0.413   2.691  16.878  0.6609 -1.4712  3.2064
 8478TIP3   OH246924   4.870   5.412   4.145 -0.4266 -0.0613  0.2952
 8478TIP3    H146925   4.947   5.408   4.089 -0.6094  1.3772 -0.0968
 8478TIP3    H246926   4.854   5.321   4.171  0.6319 -0.5341 -0.6489
 8479TIP3   OH246927   0.067   2.679   0.115  0.2887  1.0845 -0.1991
 8479TIP3    H146928  -0.017   2.635   0.102  1.2146 -0.2386 -2.1761
 8479TIP3    H246929   0.052   2.769   0.086 -0.6730  1.1241  0.3804
 8480TIP3   OH246930   5.258   6.022  10.949  0.1678  0.1421 -0.6931
 8480TIP3    H146931   5.214   6.047  10.868 -0.5748  0.5709 -0.1690
 8480TIP3    H246932   5.330   5.965  10.920 -0.1596  0.1813 -1.6367
 8481TIP3   OH246933   4.669   2.688  12.268 -0.3069 -0.4520  0.0937
 8481TIP3    H146934   4.596   2.711  12.210  1.0451  0.8765 -1.1814
 8481TIP3    H246935   4.739   2.748  12.242  1.6774 -2.5305  0.3521
 8482TIP3   OH246936   3.039   5.157   2.341  0.1790  0.1876  0.5705
 8482TIP3    H146937   3.065   5.073   2.379  0.2802  0.9638  2.3139
 8482TIP3    H246938   3.119   5.208   2.336 -0.0529  0.5515  0.4945
 8483TIP3   OH246939   6.696   5.995   6.344  0.8925 -0.0306 -0.0400
 8483TIP3    H146940   6.684   6.057   6.415  1.3105  0.4698 -0.3988
 8483TIP3    H246941   6.681   5.909   6.384  1.9462  0.1796  0.8542
 8484TIP3   OH246942   5.594   1.082   1.300 -0.6207  0.3135  0.5325
 8484TIP3    H146943   5.600   1.130   1.217  0.2346 -1.5565 -0.5390
 8484TIP3    H246944   5.578   1.150   1.366  2.3688  2.3583 -0.6349
 8485TIP3   OH246945   3.813   4.776  12.425 -0.7293  0.5202 -0.2029
 8485TIP3    H146946   3.829   4.718  12.351  0.8773  0.5756  0.0634
 8485TIP3    H246947   3.795   4.862  12.386  0.2406  0.5797 -0.5399
 8486TIP3   OH246948   2.561   2.999   4.549  0.0698 -0.0670  0.2743
 8486TIP3    H146949   2.480   3.050   4.556  0.2447  0.3588 -0.6285
 8486TIP3    H246950   2.531   2.908   4.541 -0.2921  0.0167  0.6372
 8487TIP3   OH246951   2.240   0.750   2.332 -0.2458 -0.1924 -0.5128
 8487TIP3    H146952   2.226   0.811   2.404  0.9424  1.6602 -1.7713
 8487TIP3    H246953   2.247   0.805   2.254 -2.0778 -2.1429 -2.2186
 8488TIP3   OH246954   0.317   0.771   1.196 -0.3341 -0.7066  0.9876
 8488TIP3    H146955   0.341   0.854   1.237 -2.5672  1.4326 -1.5921
 8488TIP3    H246956   0.243   0.739   1.248 -0.2061 -0.4608  1.3233
 8489TIP3   OH246957   6.596   6.103   1.399 -0.8982  0.0603  0.6156
 8489TIP3    H146958   6.533   6.103   1.326 -1.5080 -4.4264  0.8282
 8489TIP3    H246959   6.681   6.093   1.356 -1.1377 -1.2539  0.3763
 8490TIP3   OH246960   6.015   4.728  13.835 -0.2527  1.0398  0.0495
 8490TIP3    H146961   6.017   4.694  13.746  1.4978  0.4936  0.2574
 8490TIP3    H246962   6.010   4.649  13.890 -1.3101  1.3683  0.4619
 8491TIP3   OH246963   0.437   3.816  12.215  0.4933  0.0625  0.2193
 8491TIP3    H146964   0.451   3.742  12.155 -1.0246 -1.1208  1.2607
 8491TIP3    H246965   0.472   3.786  12.299 -0.8571  0.1634  0.8495
 8492TIP3   OH246966   1.188   0.612   0.401  0.7772 -0.3866 -0.0933
 8492TIP3    H146967   1.283   0.602   0.401  0.7896 -0.2917  0.2750
 8492TIP3    H246968   1.160   0.577   0.316  1.1441 -0.3624 -0.2266
 8493TIP3   OH246969   5.667   3.451  13.152  0.3043 -0.0828 -0.0766
 8493TIP3    H146970   5.652   3.412  13.066 -0.7144  0.5188 -0.1937
 8493TIP3    H246971   5.586   3.434  13.201  1.6612 -2.3442  1.5738
 8494TIP3   OH246972   0.873   4.373   4.330  0.3208 -0.4818 -0.3515
 8494TIP3    H146973   0.836   4.418   4.254 -0.0987 -1.2671 -0.6319
 8494TIP3    H246974   0.968   4.370   4.312  0.5580  1.5763  0.3917
 8495TIP3   OH246975   2.379   2.166  15.381 -0.7091 -0.2560  0.0427
 8495TIP3    H146976   2.397   2.168  15.287  2.3743 -0.7378  0.5216
 8495TIP3    H246977   2.381   2.257  15.408 -1.0764 -0.1540 -0.2665
 8496TIP3   OH246978   5.163   3.006   2.222 -1.0061 -0.0871 -0.2290
 8496TIP3    H146979   5.132   2.915   2.226 -0.6679 -0.3184 -1.9466
 8496TIP3    H246980   5.208   3.012   2.138  1.5627  0.8740  1.0836
 8497TIP3   OH246981   5.560   4.930  13.744  0.1828 -0.5537  0.2038
 8497TIP3    H146982   5.650   4.912  13.716  0.8919  0.8818  1.3962
 8497TIP3    H246983   5.552   5.025  13.740 -1.4469 -0.6785 -0.2802
 8498TIP3   OH246984   0.536   3.649   1.120 -0.2131 -0.2150 -0.1070
 8498TIP3    H146985   0.483   3.570   1.109 -2.2516  0.8504  1.3722
 8498TIP3    H246986   0.475   3.715   1.151  1.7473  1.5139  0.3317
 8499TIP3   OH246987   5.204   1.252  13.382  0.6633  0.3430 -0.4093
 8499TIP3    H146988   5.276   1.228  13.439  0.7783 -2.3558 -1.5532
 8499TIP3    H246989   5.148   1.175  13.379 -0.5461  1.2032 -2.1335
 8500TIP3   OH246990   0.851   3.671   0.991 -0.3721  0.2157 -0.2636
 8500TIP3    H146991   0.761   3.655   1.020 -0.2741  0.1740  0.0186
 8500TIP3    H246992   0.899   3.592   1.017 -0.1912  0.3644 -0.1508
 8501TIP3   OH246993   5.970   1.680   1.270 -0.0023 -0.1569  0.1881
 8501TIP3    H146994   6.003   1.685   1.360  1.5419 -1.0353 -0.2953
 8501TIP3    H246995   5.879   1.709   1.277 -0.0841 -0.6885  2.1205
 8502TIP3   OH246996   1.523   3.511  16.224  0.1528  0.4953  0.3390
 8502TIP3    H146997   1.557   3.462  16.150 -0.9048 -0.8076  0.6845
 8502TIP3    H246998   1.600   3.534  16.276  0.7115 -0.3902 -0.0849
 8503TIP3   OH246999   4.174   1.872   5.422  0.0302  0.4137  0.5660
 8503TIP3    H147000   4.115   1.820   5.368 -0.6960  1.8759 -0.1030
 8503TIP3    H247001   4.257   1.824   5.420 -0.2712 -0.1097 -1.0127
 8504TIP3   OH247002   5.539   0.296  13.492  0.2975 -0.7640  0.0604
 8504TIP3    H147003   5.567   0.375  13.538  1.4539  0.1601 -2.0773
 8504TIP3    H247004   5.480   0.328  13.423 -0.8773 -2.0237  0.4297
 8505TIP3   OH247005   0.859   5.801   6.304  0.1736 -0.0068 -0.4982
 8505TIP3    H147006   0.792   5.867   6.320 -1.5883 -1.4468 -1.5711
 8505TIP3    H247007   0.904   5.791   6.388  1.1826  3.1712 -0.5095
 8506TIP3   OH247008   1.471   4.042  16.994  0.2106 -0.0584  0.2301
 8506TIP3    H147009   1.406   3.973  17.005  0.2716  0.0210  1.1721
 8506TIP3    H247010   1.469   4.091  17.076  0.7514  0.5650 -0.1115
 8507TIP3   OH247011   6.127   3.913  17.279  0.3937 -0.3531 -0.3450
 8507TIP3    H147012   6.222   3.915  17.284  0.3224 -0.3213  1.6989
 8507TIP3    H247013   6.100   4.004  17.285  0.2020 -0.4863  1.5543
 8508TIP3   OH247014   0.069   5.820   6.129 -0.3893 -0.2558 -0.4106
 8508TIP3    H147015  -0.005   5.824   6.069  0.6263  2.1950 -1.6121
 8508TIP3    H247016   0.146   5.811   6.073  0.3902 -0.8732  0.7097
 8509TIP3   OH247017   0.745   2.240   0.245  0.0856 -0.6711  0.2169
 8509TIP3    H147018   0.675   2.176   0.248  1.1403 -1.8070  1.5537
 8509TIP3    H247019   0.819   2.193   0.208  0.3054  0.4025 -0.8029
 8510TIP3   OH247020   1.294   1.619  16.693 -0.0340 -0.2790 -0.5651
 8510TIP3    H147021   1.290   1.538  16.743  1.6705  0.3927  0.7961
 8510TIP3    H247022   1.344   1.596  16.615  0.9732 -0.4410  0.1051
 8511TIP3   OH247023   5.006   4.356   5.690  0.0664  0.3979  0.0442
 8511TIP3    H147024   4.940   4.321   5.751  0.7595 -0.7363  0.1772
 8511TIP3    H247025   5.053   4.279   5.659  1.2083  1.1667 -0.1976
 8512TIP3   OH247026   3.427   6.389  12.026  0.0299  0.6315 -0.2122
 8512TIP3    H147027   3.422   6.459  11.961 -0.8557  0.1751 -0.6593
 8512TIP3    H247028   3.497   6.416  12.085  1.3020  0.7709 -1.7047
 8513TIP3   OH247029   5.580   4.461  14.306  0.1675  0.2709  0.2696
 8513TIP3    H147030   5.646   4.463  14.237  0.7729  1.7558  0.8609
 8513TIP3    H247031   5.627   4.429  14.383 -0.2744 -0.4447  0.2569
 8514TIP3   OH247032   4.468   6.533  16.981  0.2331  0.6380 -0.6001
 8514TIP3    H147033   4.436   6.623  16.985 -1.4125  0.1403 -1.5509
 8514TIP3    H247034   4.541   6.530  17.044  0.8405  2.8116 -1.1383
 8515TIP3   OH247035   1.279   3.502  15.397 -0.0772  0.3609  0.4726
 8515TIP3    H147036   1.286   3.460  15.482  1.6698 -1.0106 -0.2758
 8515TIP3    H247037   1.185   3.516  15.384 -0.3586  0.8507  2.6972
 8516TIP3   OH247038   0.649   3.598  11.722 -0.7292  0.2869 -0.2133
 8516TIP3    H147039   0.659   3.626  11.631 -0.7806 -1.2288 -0.7137
 8516TIP3    H247040   0.557   3.574  11.730 -0.7805  0.6433  0.3123
 8517TIP3   OH247041   3.125   2.951  12.759 -0.0188  0.2436 -0.4164
 8517TIP3    H147042   3.151   2.980  12.672  1.3106  0.5423  0.0655
 8517TIP3    H247043   3.206   2.921  12.800 -0.5545  0.4649  0.8571
 8518TIP3   OH247044   4.953   5.655   2.148 -0.2993  0.8615  0.0125
 8518TIP3    H147045   4.961   5.580   2.089 -2.0093 -0.2980  1.1715
 8518TIP3    H247046   5.024   5.643   2.211  0.4710  1.1678 -0.7763
 8519TIP3   OH247047   1.709   5.125   5.130 -0.5770 -0.4466  0.3017
 8519TIP3    H147048   1.764   5.194   5.168  0.4911 -0.0909 -1.7609
 8519TIP3    H247049   1.621   5.162   5.132 -0.2165  0.4490  0.4134
 8520TIP3   OH247050   3.931   4.030   0.874  0.0154 -0.2288  0.2982
 8520TIP3    H147051   3.843   4.065   0.874 -0.5910 -1.6608 -0.0227
 8520TIP3    H247052   3.984   4.095   0.829 -0.7927  0.8205  0.8373
 8521TIP3   OH247053   5.658   5.651  11.930 -0.1124  0.2366 -0.2547
 8521TIP3    H147054   5.706   5.729  11.958  1.6012  0.0029 -2.2631
 8521TIP3    H247055   5.710   5.578  11.965  0.5592 -0.0027 -1.6579
 8522TIP3   OH247056   2.223   4.426   1.421  0.5438  0.0331  0.4852
 8522TIP3    H147057   2.297   4.486   1.417  0.8464 -0.3804 -0.3640
 8522TIP3    H247058   2.156   4.473   1.471  0.7114  1.1520 -0.2983
 8523TIP3   OH247059   4.483   4.080   6.142 -0.3822  0.4263  0.0669
 8523TIP3    H147060   4.484   4.173   6.116  1.9657  0.3297 -0.4286
 8523TIP3    H247061   4.524   4.079   6.228  1.0064 -0.2604 -0.5696
 8524TIP3   OH247062   2.586   1.256  16.928  0.0187 -0.3071  0.4698
 8524TIP3    H147063   2.622   1.170  16.949 -0.6292 -0.1017  2.5866
 8524TIP3    H247064   2.550   1.246  16.840  0.9058 -1.8840  0.2542
 8525TIP3   OH247065   3.453   0.341   4.953  0.4118  0.2224  0.4087
 8525TIP3    H147066   3.427   0.316   4.864 -0.2567 -0.7653  0.8547
 8525TIP3    H247067   3.479   0.433   4.946 -0.2337  0.3418 -0.6911
 8526TIP3   OH247068   4.317   6.744  11.072 -0.2444 -0.4327 -0.2621
 8526TIP3    H147069   4.255   6.758  11.001 -0.4077 -2.1566 -0.4988
 8526TIP3    H247070   4.299   6.655  11.103  0.5821 -0.1273  1.1896
 8527TIP3   OH247071   2.716   2.804  12.231 -0.2849 -0.6216  0.3701
 8527TIP3    H147072   2.798   2.850  12.247 -1.2391  1.5852 -0.6857
 8527TIP3    H247073   2.732   2.753  12.151 -0.0712  0.2168 -0.1379
 8528TIP3   OH247074   0.758   4.381   2.835  0.2501 -0.0615 -0.2327
 8528TIP3    H147075   0.723   4.357   2.750  0.0204  0.2155 -0.2200
 8528TIP3    H247076   0.829   4.442   2.815 -0.1859  0.4642 -0.2088
 8529TIP3   OH247077   6.438   1.212  12.249  0.1921 -0.5897 -0.3709
 8529TIP3    H147078   6.488   1.249  12.322  1.1132 -2.0132 -0.2496
 8529TIP3    H247079   6.361   1.269  12.242  0.2719 -0.1806  1.4527
 8530TIP3   OH247080   4.240   4.436  14.010 -0.9913  0.3599 -0.0466
 8530TIP3    H147081   4.182   4.391  13.949 -0.3743 -0.8140  0.2185
 8530TIP3    H247082   4.181   4.478  14.073 -1.5774 -1.6080  0.7843
 8531TIP3   OH247083   5.082   1.487  13.274 -0.3575 -0.1597 -0.3457
 8531TIP3    H147084   5.134   1.414  13.306  0.5303  0.6589  0.1354
 8531TIP3    H247085   5.058   1.462  13.185  0.8979 -0.5484 -0.5917
 8532TIP3   OH247086   6.584   1.678   4.587  0.1476  0.4165  0.2614
 8532TIP3    H147087   6.562   1.716   4.501  0.7229 -1.0641 -0.5783
 8532TIP3    H247088   6.534   1.730   4.650 -0.8122  1.1157 -1.0287
 8533TIP3   OH247089   2.392   6.379   2.290  0.7721  0.1203 -0.1648
 8533TIP3    H147090   2.326   6.340   2.347  0.8223 -1.0275 -0.8780
 8533TIP3    H247091   2.369   6.351   2.202  1.1190  1.2751 -0.6550
 8534TIP3   OH247092   4.631   6.227  13.006 -0.2083 -0.8285  0.7843
 8534TIP3    H147093   4.574   6.152  13.020 -0.9658 -0.4463 -0.1786
 8534TIP3    H247094   4.582   6.301  13.044 -0.7204 -0.3725 -0.7115
 8535TIP3   OH247095   0.274   5.947  11.988 -0.3227  0.6293 -0.4163
 8535TIP3    H147096   0.339   5.988  11.931  1.1458  0.4207  1.0220
 8535TIP3    H247097   0.296   5.854  11.986 -1.6760  0.3044 -1.2356
 8536TIP3   OH247098   6.330   6.662   0.200 -0.0885  0.4984 -0.1861
 8536TIP3    H147099   6.322   6.629   0.289 -0.3796 -0.3465 -0.5210
 8536TIP3    H247100   6.343   6.585   0.146  0.2814  1.0192 -0.8602
 8537TIP3   OH247101   2.989   0.292  13.756  0.1086  0.4733  0.0655
 8537TIP3    H147102   2.979   0.213  13.808 -0.4173  0.3118 -0.2674
 8537TIP3    H247103   2.963   0.266  13.668  2.6155  0.2980 -0.6935
 8538TIP3   OH247104   2.489   0.787   2.739  0.3120  0.5576  0.3521
 8538TIP3    H147105   2.420   0.737   2.782  0.0848  1.1261  0.6584
 8538TIP3    H247106   2.445   0.866   2.707  0.5251  0.2681 -0.7183
 8539TIP3   OH247107   5.337   2.121   2.488  0.4164  0.0115  0.0155
 8539TIP3    H147108   5.309   2.202   2.531 -0.6394 -1.1049  1.5754
 8539TIP3    H247109   5.430   2.134   2.470 -0.2285  2.4794 -2.0372
 8540TIP3   OH247110   5.479   0.921   1.478 -0.0721  0.0992  0.2938
 8540TIP3    H147111   5.496   0.973   1.399  0.2242 -0.3863  0.0282
 8540TIP3    H247112   5.512   0.975   1.550  0.2321  0.2786  0.0217
 8541TIP3   OH247113   0.797   1.470   2.037 -0.3113 -0.2239 -0.5728
 8541TIP3    H147114   0.858   1.501   1.970 -0.7786  0.0402 -0.8841
 8541TIP3    H247115   0.822   1.518   2.116  1.1580 -1.5586 -0.1609
 8542TIP3   OH247116   6.495   1.246  11.742 -0.3403  0.1318 -0.2639
 8542TIP3    H147117   6.547   1.282  11.815 -2.0686 -1.5514  1.9356
 8542TIP3    H247118   6.559   1.235  11.671  1.6910  0.7983  1.3389
 8543TIP3   OH247119   1.885   6.235  12.218  0.4138  0.4332  0.3075
 8543TIP3    H147120   1.880   6.321  12.260  0.8383  0.6471 -0.0675
 8543TIP3    H247121   1.861   6.251  12.126 -0.5032 -0.0277  0.4490
 8544TIP3   OH247122   1.731   2.495  14.697  0.1214  0.1263 -0.4046
 8544TIP3    H147123   1.743   2.516  14.790 -0.5158  2.3733 -0.7611
 8544TIP3    H247124   1.651   2.444  14.693 -0.9597  1.7031  0.1506
 8545TIP3   OH247125   1.100   2.376  11.740  0.2707 -0.2420  0.2029
 8545TIP3    H147126   1.151   2.449  11.774 -0.6010 -0.2846  1.7153
 8545TIP3    H247127   1.025   2.370  11.799 -0.8725 -0.9236 -1.2520
 8546TIP3   OH247128   0.880   2.913   1.957 -0.2798  0.4631 -0.1132
 8546TIP3    H147129   0.897   2.882   2.046  0.0935  0.9674 -0.0024
 8546TIP3    H247130   0.794   2.955   1.962 -0.4300  0.1536 -0.0812
 8547TIP3   OH247131   6.681   5.014   3.486  0.4214 -0.3751 -0.0499
 8547TIP3    H147132   6.693   4.952   3.558 -0.5995 -0.0456  0.4199
 8547TIP3    H247133   6.595   4.992   3.449  0.5707 -0.0031 -0.6320
 8548TIP3   OH247134   2.212   3.423  12.601 -0.3214 -0.2030 -0.4786
 8548TIP3    H147135   2.245   3.498  12.552  0.1284  0.1273  0.3196
 8548TIP3    H247136   2.288   3.366  12.611 -0.4648 -0.3741 -0.3561
 8549TIP3   OH247137   1.480   4.319   5.402 -0.1617 -0.3969  0.1376
 8549TIP3    H147138   1.449   4.232   5.376  0.9629 -0.7520 -0.0989
 8549TIP3    H247139   1.575   4.309   5.407 -0.1069  0.5287  1.2338
 8550TIP3   OH247140   6.808   2.394  14.042  0.0663  0.0224  0.1426
 8550TIP3    H147141   6.894   2.367  14.075  0.5708  2.9770  1.5193
 8550TIP3    H247142   6.813   2.379  13.948  1.5808 -1.0915  0.3618
 8551TIP3   OH247143   1.514   5.062   3.679 -0.5888 -0.0182 -0.7291
 8551TIP3    H147144   1.480   5.121   3.611  1.5786  2.1698 -0.0432
 8551TIP3    H247145   1.605   5.087   3.689 -0.4398 -1.3277  1.9451
 8552TIP3   OH247146   6.375   1.312   5.876 -0.3870  0.0316  0.5619
 8552TIP3    H147147   6.293   1.278   5.840  0.8037 -0.8726 -1.4078
 8552TIP3    H247148   6.434   1.237   5.876  1.3867  1.3658 -1.0161
 8553TIP3   OH247149   2.768   1.489   6.329  0.6252  0.1260 -0.1274
 8553TIP3    H147150   2.788   1.553   6.260 -2.8788  2.5757  0.8492
 8553TIP3    H247151   2.707   1.428   6.289  2.1638 -1.3366 -0.3752
 8554TIP3   OH247152   6.616   3.907  14.010  0.4668  0.1107 -0.6861
 8554TIP3    H147153   6.540   3.931  14.063  1.4346 -0.1564  0.8709
 8554TIP3    H247154   6.628   3.982  13.951 -0.6705  0.3772 -0.6037
 8555TIP3   OH247155   3.449   2.482  15.597  0.5342  0.4744  0.0642
 8555TIP3    H147156   3.355   2.494  15.588  0.6775  0.9201 -0.9486
 8555TIP3    H247157   3.463   2.475  15.691 -0.5059  0.4340  0.2284
 8556TIP3   OH247158   5.313   2.827  16.976 -0.0023  0.0686  0.3757
 8556TIP3    H147159   5.306   2.810  16.882 -0.6091 -0.9976  0.5973
 8556TIP3    H247160   5.339   2.919  16.982  1.4291 -0.2156 -0.8543
 8557TIP3   OH247161   2.631   4.730   5.573 -0.1830 -0.1936 -0.7363
 8557TIP3    H147162   2.601   4.678   5.498 -0.3559 -3.0440  1.1752
 8557TIP3    H247163   2.727   4.730   5.564 -0.0626 -2.1562 -0.0636
 8558TIP3   OH247164   3.557   0.171   2.396  0.0513 -0.6084 -0.7305
 8558TIP3    H147165   3.595   0.149   2.310  1.0169 -1.0177 -0.2118
 8558TIP3    H247166   3.615   0.128   2.459  0.5718  1.3927  0.2271
 8559TIP3   OH247167   4.320   4.996  15.324 -0.4176  0.2970  0.6126
 8559TIP3    H147168   4.232   5.019  15.352 -0.6418 -0.0211  0.1703
 8559TIP3    H247169   4.308   4.926  15.260  0.0010  1.8590 -1.2715
 8560TIP3   OH247170   3.667   0.903   4.687  0.0472  0.0660  0.4834
 8560TIP3    H147171   3.728   0.958   4.737  0.5583  1.1591 -1.2397
 8560TIP3    H247172   3.723   0.835   4.649 -0.1164 -0.0111  0.3809
 8561TIP3   OH247173   4.219   0.165  12.043 -0.0505 -0.6450 -0.2399
 8561TIP3    H147174   4.236   0.101  12.112 -1.4450 -0.0725  0.6848
 8561TIP3    H247175   4.192   0.244  12.090 -0.6668 -0.1298 -1.4191
 8562TIP3   OH247176   6.041   3.003   3.520 -0.9595  0.1563 -0.0353
 8562TIP3    H147177   5.961   3.053   3.533 -1.9911 -1.3742 -0.1528
 8562TIP3    H247178   6.012   2.922   3.477  0.3446 -1.2906  1.6136
 8563TIP3   OH247179   5.449   5.451   1.555 -0.1122 -0.0123 -0.1176
 8563TIP3    H147180   5.374   5.459   1.614  0.5589 -0.3962  0.8132
 8563TIP3    H247181   5.514   5.403   1.606  1.5047  2.0015 -0.1531
 8564TIP3   OH247182   4.340   2.949   1.995 -0.3844 -0.3024  0.2832
 8564TIP3    H147183   4.418   2.893   1.996  0.0271  0.2449 -0.3250
 8564TIP3    H247184   4.315   2.954   1.903 -0.4368  0.4740  0.3358
 8565TIP3   OH247185   1.073   2.544   0.034  0.1164 -0.4691 -0.0708
 8565TIP3    H147186   1.055   2.464  -0.015  2.4301 -1.0055 -0.1516
 8565TIP3    H247187   1.149   2.523   0.088 -0.0092  1.3001  0.8751
 8566TIP3   OH247188   1.388   3.536   1.765  0.1984  0.2042  0.1465
 8566TIP3    H147189   1.424   3.622   1.743  1.9535  0.0965  2.2674
 8566TIP3    H247190   1.448   3.474   1.724 -0.6698 -0.0224 -0.7985
 8567TIP3   OH247191   5.865   2.610  15.727  0.3546  0.2832 -0.2031
 8567TIP3    H147192   5.774   2.608  15.757 -0.2145  0.2962 -1.8510
 8567TIP3    H247193   5.917   2.592  15.806 -1.1223 -0.9648  0.5284
 8568TIP3   OH247194   2.809   1.336   4.693 -0.5219  0.5042  0.1450
 8568TIP3    H147195   2.789   1.284   4.614 -1.9776  1.6753 -0.3018
 8568TIP3    H247196   2.904   1.345   4.692 -0.5210  0.6613 -1.6172
 8569TIP3   OH247197   1.875   6.450  13.047  0.5518 -0.6262  0.4531
 8569TIP3    H147198   1.961   6.466  13.087  0.7859  0.0408 -0.3066
 8569TIP3    H247199   1.887   6.369  12.997  1.2253  0.3339 -0.9949
 8570TIP3   OH247200   5.637   2.593  16.414 -1.0325 -0.3887  0.6449
 8570TIP3    H147201   5.617   2.613  16.506  0.2701  1.8070  0.5171
 8570TIP3    H247202   5.732   2.586  16.411 -0.9617  0.7707 -0.7278
 8571TIP3   OH247203   6.386   4.446  16.949  0.2828  0.2966 -0.0715
 8571TIP3    H147204   6.414   4.389  17.020 -1.1394 -0.5170 -0.1267
 8571TIP3    H247205   6.330   4.511  16.992 -0.6643 -0.2608 -0.4464
 8572TIP3   OH247206   2.349   5.737   2.417  0.4984 -0.1245  0.1698
 8572TIP3    H147207   2.265   5.782   2.431  0.3808 -0.8165  2.1106
 8572TIP3    H247208   2.369   5.700   2.503  2.7431 -0.0934 -0.3005
 8573TIP3   OH247209   6.715   0.666   6.102  0.2118  0.2332 -0.2845
 8573TIP3    H147210   6.771   0.657   6.179 -0.5915  0.2826  0.3211
 8573TIP3    H247211   6.738   0.752   6.066  2.5711 -0.9258 -1.7508
 8574TIP3   OH247212   2.370   0.195  12.435  0.0880  0.1946  0.0665
 8574TIP3    H147213   2.329   0.119  12.475  0.5634  0.2961  0.7737
 8574TIP3    H247214   2.394   0.166  12.347 -0.7538 -0.1097 -0.0676
 8575TIP3   OH247215   1.676   4.793   5.267 -0.2494 -0.0072 -0.4457
 8575TIP3    H147216   1.712   4.881   5.254 -0.0269 -0.2357 -1.4845
 8575TIP3    H247217   1.733   4.754   5.334  0.8726 -0.0300 -1.3882
 8576TIP3   OH247218   4.400   6.744  13.286  0.7483  0.0391  0.2459
 8576TIP3    H147219   4.489   6.747  13.250  0.4417 -0.4652 -0.5862
 8576TIP3    H247220   4.350   6.805  13.232  0.6362  0.4813  0.8502
 8577TIP3   OH247221   2.045   4.711   6.514 -0.0313 -0.3847  0.4447
 8577TIP3    H147222   1.967   4.679   6.559 -0.1778  0.0135  0.4739
 8577TIP3    H247223   2.011   4.751   6.434  0.0721  0.5260  0.8524
 8578TIP3   OH247224   4.244   6.147   1.341  0.0008 -0.2623  0.5293
 8578TIP3    H147225   4.247   6.184   1.252  0.4167  3.6855  1.9770
 8578TIP3    H247226   4.336   6.143   1.368 -0.1430 -1.1552  0.9106
 8579TIP3   OH247227   1.583   4.917   0.722 -0.2661 -0.3410 -0.3285
 8579TIP3    H147228   1.602   5.011   0.729 -1.3963 -0.2353  3.2335
 8579TIP3    H247229   1.662   4.874   0.755 -0.3808 -0.5675 -0.3489
 8580TIP3   OH247230   5.390   5.985  16.274  0.2519 -0.3553 -0.2669
 8580TIP3    H147231   5.408   5.982  16.180  1.5650 -0.0017 -0.0539
 8580TIP3    H247232   5.342   6.066  16.288  2.3638  0.9873 -0.3156
 8581TIP3   OH247233   1.486   4.463   1.241 -0.1659 -0.7092  0.4297
 8581TIP3    H147234   1.501   4.413   1.161  1.2426 -0.2514  0.3847
 8581TIP3    H247235   1.573   4.472   1.280 -0.5541  0.7630  0.9961
 8582TIP3   OH247236   3.948   3.844  16.800  0.2728  0.2442 -0.6382
 8582TIP3    H147237   4.009   3.887  16.741  0.0738 -0.4493 -1.3654
 8582TIP3    H247238   3.999   3.825  16.878  1.7127 -2.4567 -2.1147
 8583TIP3   OH247239   4.665   0.481   0.834 -0.1739 -0.0162 -0.2489
 8583TIP3    H147240   4.728   0.469   0.905 -1.7375 -0.6952  1.0923
 8583TIP3    H247241   4.716   0.521   0.764  1.9421 -1.2995  0.4423
 8584TIP3   OH247242   2.369   2.773   5.202  0.1382  0.2336  0.2599
 8584TIP3    H147243   2.454   2.808   5.231 -0.8202  2.0700  1.0451
 8584TIP3    H247244   2.332   2.844   5.149 -1.6334  0.1940  1.3910
 8585TIP3   OH247245   4.355   3.729  16.378  0.2819  0.5146  0.9778
 8585TIP3    H147246   4.439   3.739  16.332  0.7906  1.4714  2.0815
 8585TIP3    H247247   4.328   3.639  16.358  0.5162  0.8573 -1.0975
 8586TIP3   OH247248   2.021   6.666  17.107 -0.0989 -0.5217 -0.4300
 8586TIP3    H147249   2.021   6.694  17.016  2.1529  0.2519 -0.2312
 8586TIP3    H247250   1.974   6.582  17.106 -2.4576  0.7060 -1.8258
 8587TIP3   OH247251   0.685   1.299  13.101  0.6948  0.0780  0.1814
 8587TIP3    H147252   0.678   1.285  13.196 -0.7450  0.3839  0.1367
 8587TIP3    H247253   0.713   1.389  13.092  1.9839 -0.2888  0.3196
 8588TIP3   OH247254   3.264   1.454  15.339  0.1070  0.3350  0.2560
 8588TIP3    H147255   3.238   1.458  15.247  0.0927 -1.5065  0.1484
 8588TIP3    H247256   3.301   1.367  15.350  1.1592  0.9269  1.7403
 8589TIP3   OH247257   3.146   0.907  13.587  0.0942 -0.2043  0.1855
 8589TIP3    H147258   3.238   0.913  13.614  0.7253  1.3704 -2.0544
 8589TIP3    H247259   3.109   0.992  13.609 -1.6153 -1.5814  3.3068
 8590TIP3   OH247260   2.991   5.157  14.891  0.0310 -0.3021 -0.0487
 8590TIP3    H147261   2.902   5.188  14.908 -0.0113  0.2163 -1.0919
 8590TIP3    H247262   3.026   5.135  14.977 -0.1948  1.9982  0.6906
 8591TIP3   OH247263   3.672   1.461  14.008  0.1330  0.4628  0.3330
 8591TIP3    H147264   3.615   1.503  14.072  0.6473  0.2457  0.9464
 8591TIP3    H247265   3.707   1.385  14.054  1.2889  0.8530  0.1350
 8592TIP3   OH247266   0.173   4.539  12.843  0.2139  0.8348  0.3309
 8592TIP3    H147267   0.155   4.553  12.936 -2.5831 -1.4974  0.2669
 8592TIP3    H247268   0.155   4.624  12.802 -0.9002  1.2758  1.6460
 8593TIP3   OH247269   5.204   3.773  11.528 -0.6667  0.2274 -0.0130
 8593TIP3    H147270   5.280   3.801  11.579 -0.0626 -0.2723 -0.6216
 8593TIP3    H247271   5.217   3.812  11.442 -2.1322  1.8067  0.4372
 8594TIP3   OH247272   6.588   2.179  11.916 -0.5511  0.0177  0.1475
 8594TIP3    H147273   6.642   2.242  11.868 -0.6736  0.2849  0.3598
 8594TIP3    H247274   6.645   2.102  11.927 -0.4693  0.0148 -0.2864
 8595TIP3   OH247275   4.075   5.627   0.793 -0.3952  0.4781  0.5289
 8595TIP3    H147276   4.115   5.700   0.839 -0.6703 -0.4433  2.2928
 8595TIP3    H247277   4.139   5.603   0.726  0.0845  1.7448  0.5081
 8596TIP3   OH247278   3.001   4.881  13.331 -0.5651 -0.0869  0.3559
 8596TIP3    H147279   3.094   4.859  13.337 -0.4260  0.6778  1.4764
 8596TIP3    H247280   2.964   4.814  13.274  0.3876 -1.3491  1.1559
 8597TIP3   OH247281   6.275   3.703  15.562 -0.3545  0.0777  0.2877
 8597TIP3    H147282   6.185   3.707  15.595 -0.1860  2.9865  0.6342
 8597TIP3    H247283   6.266   3.704  15.467 -0.6925  0.5426  0.3229
 8598TIP3   OH247284   5.196   2.866  15.773  0.2964 -0.0017 -0.0662
 8598TIP3    H147285   5.194   2.807  15.697 -2.1982  0.0487 -0.1244
 8598TIP3    H247286   5.196   2.807  15.849 -0.7643 -0.1014 -0.1287
 8599TIP3   OH247287   1.189   4.306   4.214 -0.1441 -0.4440  0.1239
 8599TIP3    H147288   1.222   4.314   4.304 -0.9763  0.8313  0.3415
 8599TIP3    H247289   1.186   4.396   4.181 -2.8271 -0.5073 -0.0500
 8600TIP3   OH247290   6.320   1.446  11.646 -0.1359  0.5241 -0.1358
 8600TIP3    H147291   6.367   1.374  11.688 -0.6371 -0.4610 -1.2288
 8600TIP3    H247292   6.269   1.405  11.577 -1.7549  1.7114  0.2978
 8601TIP3   OH247293   4.228   2.630  15.934  0.0326 -0.0637 -0.1885
 8601TIP3    H147294   4.297   2.635  15.869  0.6350 -1.3571  0.3160
 8601TIP3    H247295   4.229   2.715  15.978  1.3870 -0.1103 -0.1145
 8602TIP3   OH247296   2.920   0.559   3.026 -0.2011 -0.3679  0.2369
 8602TIP3    H147297   2.837   0.598   2.997 -0.7356 -0.0328  2.0998
 8602TIP3    H247298   2.943   0.607   3.106  0.0962 -2.6066  1.5855
 8603TIP3   OH247299   6.320   4.387  15.606  0.3970  0.3660 -0.9498
 8603TIP3    H147300   6.368   4.305  15.598  0.3797  0.3143 -0.5119
 8603TIP3    H247301   6.385   4.451  15.634  0.1071  0.1786  0.1867
 8604TIP3   OH247302   3.598   1.305   2.288 -0.7328  0.0372  0.0273
 8604TIP3    H147303   3.657   1.254   2.233  1.3449  0.7189  1.4931
 8604TIP3    H247304   3.545   1.239   2.334  0.0223 -0.6900 -0.1281
 8605TIP3   OH247305   5.128   0.047  13.322 -0.8035 -0.1022 -0.6050
 8605TIP3    H147306   5.142  -0.046  13.300 -1.0373  0.1113 -1.7239
 8605TIP3    H247307   5.033   0.059  13.314 -0.8875  0.0115  0.4939
 8606TIP3   OH247308   3.833   1.735  13.161 -0.7474  0.2755 -0.3833
 8606TIP3    H147309   3.804   1.707  13.248  1.0373 -0.5995 -0.0285
 8606TIP3    H247310   3.792   1.674  13.101  1.0429 -1.6039  0.1945
 8607TIP3   OH247311   3.557   4.154   2.931 -0.3492  0.4802  0.2212
 8607TIP3    H147312   3.462   4.168   2.926 -0.5363 -0.6179  0.5167
 8607TIP3    H247313   3.573   4.078   2.877  0.4359  0.9099 -0.1575
 8608TIP3   OH247314   4.809   4.649   1.427 -0.8949 -0.6037 -0.1142
 8608TIP3    H147315   4.765   4.730   1.452 -0.9049  0.0680 -2.1445
 8608TIP3    H247316   4.766   4.621   1.347 -0.1375 -2.0230 -0.0741
 8609TIP3   OH247317   5.203   2.278  16.314 -0.4745 -0.2052 -0.0665
 8609TIP3    H147318   5.297   2.268  16.331 -0.3391  0.4219 -0.4379
 8609TIP3    H247319   5.194   2.267  16.220 -0.8305 -0.6375  0.0112
 8610TIP3   OH247320   4.584   6.014   3.242  0.4967 -0.2253 -0.0038
 8610TIP3    H147321   4.650   5.964   3.290  2.3379  1.0150 -1.0948
 8610TIP3    H247322   4.501   5.989   3.282  1.6865 -1.1629  2.0602
 8611TIP3   OH247323   0.348   3.390   2.574  1.1325 -0.2040 -0.5722
 8611TIP3    H147324   0.314   3.459   2.516  1.3597  1.1968  0.8604
 8611TIP3    H247325   0.440   3.412   2.586  1.5777 -1.6501 -1.2623
 8612TIP3   OH247326   2.905   0.459   1.651  0.4838 -0.2758 -0.1614
 8612TIP3    H147327   2.832   0.416   1.607  0.5053 -0.1040 -0.3640
 8612TIP3    H247328   2.978   0.451   1.590  0.8431 -1.1344  0.3667
 8613TIP3   OH247329   1.128   4.469  13.875  0.3990 -0.2994  0.2451
 8613TIP3    H147330   1.146   4.388  13.922  0.4271  0.2799  1.2786
 8613TIP3    H247331   1.211   4.517  13.876  0.4419 -0.3519 -0.5513
 8614TIP3   OH247332   0.991   3.047   3.765  0.1909 -0.2890 -0.4585
 8614TIP3    H147333   1.038   3.120   3.725  0.5797 -1.0255 -1.3800
 8614TIP3    H247334   0.899   3.073   3.759  0.4515  1.9329  2.8962
 8615TIP3   OH247335   6.632   4.813  13.906  0.5427 -0.0932 -0.2327
 8615TIP3    H147336   6.681   4.884  13.865  3.5450 -3.7009 -3.7350
 8615TIP3    H247337   6.552   4.807  13.855  0.5667  0.3756 -0.3336
 8616TIP3   OH247338   3.849   6.363  17.222  0.2016 -0.3543 -0.4910
 8616TIP3    H147339   3.876   6.282  17.178  0.7266 -0.4560  0.0130
 8616TIP3    H247340   3.761   6.344  17.255  0.4568 -0.8393 -0.0760
 8617TIP3   OH247341   1.250   1.641  12.777  0.3468 -0.6674 -0.3641
 8617TIP3    H147342   1.222   1.605  12.861 -1.1926 -0.1127 -0.5853
 8617TIP3    H247343   1.277   1.731  12.797 -1.0872 -0.1477 -0.5631
 8618TIP3   OH247344   5.222   2.054  10.597  0.1313  0.3372  0.0340
 8618TIP3    H147345   5.233   2.089  10.509 -0.8700 -0.4823 -0.4307
 8618TIP3    H247346   5.133   2.019  10.598 -0.3587  1.4940  1.7782
 8619TIP3   OH247347   2.781   2.927   2.693 -0.3502  0.3136 -0.6134
 8619TIP3    H147348   2.698   2.890   2.722  0.2746 -0.8948 -0.2968
 8619TIP3    H247349   2.824   2.856   2.645  0.9701  0.5520  0.1419
 8620TIP3   OH247350   3.211   5.569  11.461  0.0395 -0.0365 -0.3341
 8620TIP3    H147351   3.300   5.598  11.443 -0.0669  0.0128 -0.8041
 8620TIP3    H247352   3.158   5.608  11.391  0.4040 -4.1599 -3.2667
 8621TIP3   OH247353   2.726   2.880   0.009  0.5353  0.6620  0.4525
 8621TIP3    H147354   2.804   2.827   0.027 -0.8608 -2.0205 -0.9252
 8621TIP3    H247355   2.672   2.872   0.087 -0.8867 -2.3978 -0.6966
 8622TIP3   OH247356   0.036   6.753  13.964 -0.1599 -0.3368  0.1601
 8622TIP3    H147357   0.103   6.730  14.028 -1.1720  0.0167  1.3669
 8622TIP3    H247358  -0.042   6.771  14.015 -0.6513  1.2796 -1.0774
 8623TIP3   OH247359   6.010   0.357   0.458  0.4751 -0.2683 -0.6236
 8623TIP3    H147360   5.955   0.289   0.419 -2.4039  1.8963 -0.6881
 8623TIP3    H247361   5.991   0.436   0.407  0.0589  1.6195  2.1818
 8624TIP3   OH247362   4.767   6.162   1.477  0.1790  0.1574  0.3567
 8624TIP3    H147363   4.786   6.184   1.568 -3.9115  0.5636  1.2968
 8624TIP3    H247364   4.697   6.097   1.482 -1.0742  1.1135 -2.4643
 8625TIP3   OH247365   5.653   5.215  15.707 -0.6306 -1.0211  0.8960
 8625TIP3    H147366   5.682   5.296  15.665 -0.2815 -2.1700 -1.2037
 8625TIP3    H247367   5.735   5.169  15.728 -0.8247 -1.7698  0.0839
 8626TIP3   OH247368   4.988   1.840   3.969 -0.1904 -0.3376  0.5386
 8626TIP3    H147369   5.070   1.793   3.955 -0.4268 -0.4440 -0.6161
 8626TIP3    H247370   4.966   1.824   4.061  0.9480 -0.4993  0.8024
 8627TIP3   OH247371   2.411   1.722  14.598 -0.3806  0.1885 -0.2754
 8627TIP3    H147372   2.430   1.692  14.687 -0.8331 -0.1012 -0.2714
 8627TIP3    H247373   2.376   1.811  14.610  1.1781  0.8292 -0.3075
 8628TIP3   OH247374   6.226   0.294   4.239 -0.1421  0.2264  0.1028
 8628TIP3    H147375   6.220   0.267   4.331  0.7697 -0.2900  0.0254
 8628TIP3    H247376   6.148   0.257   4.198 -0.3301  0.0886  0.5774
 8629TIP3   OH247377   0.267   6.456   3.900  0.5170  0.1730 -0.2004
 8629TIP3    H147378   0.280   6.362   3.917  3.0258  0.8428  2.2448
 8629TIP3    H247379   0.326   6.476   3.828 -0.1503 -0.0935 -0.8449
 8630TIP3   OH247380   2.689   6.590   3.355 -0.2527 -0.2994  0.0791
 8630TIP3    H147381   2.624   6.539   3.306  1.3802  0.1463 -2.8281
 8630TIP3    H247382   2.650   6.676   3.364 -1.2054 -0.8069  0.9741
 8631TIP3   OH247383   2.381   3.785   5.942  0.2665 -0.3709  0.2246
 8631TIP3    H147384   2.418   3.835   5.869 -0.9364 -0.2692 -0.3490
 8631TIP3    H247385   2.447   3.789   6.010  0.8977  0.5911 -0.4173
 8632TIP3   OH247386   4.567   5.315  15.835  0.6507 -0.0805  0.2853
 8632TIP3    H147387   4.477   5.343  15.850  0.8610 -0.2351  1.9981
 8632TIP3    H247388   4.588   5.348  15.747 -0.3265  1.8934  0.7347
 8633TIP3   OH247389   4.269   2.081   6.664  0.3182 -0.0055 -0.2801
 8633TIP3    H147390   4.242   2.171   6.643 -2.0114 -0.5025  0.3102
 8633TIP3    H247391   4.266   2.035   6.580  1.5293  0.4363 -0.5866
 8634TIP3   OH247392   2.996   1.449  14.152 -0.4260  0.2538 -0.2933
 8634TIP3    H147393   2.968   1.521  14.095 -1.2430 -0.5314 -0.9094
 8634TIP3    H247394   2.915   1.407  14.181  0.0303 -0.2919  0.2288
 8635TIP3   OH247395   4.192   2.726  11.423  0.3192 -0.5088  0.2321
 8635TIP3    H147396   4.284   2.744  11.440  0.3029 -0.7065  0.5440
 8635TIP3    H247397   4.176   2.760  11.335  0.5250  0.1145  0.4352
 8636TIP3   OH247398   2.235   1.989   0.718 -0.4426  0.3903  0.4244
 8636TIP3    H147399   2.295   1.918   0.740  1.9941  2.3461  0.5903
 8636TIP3    H247400   2.232   2.043   0.797 -1.1887  1.1503 -0.1032
 8637TIP3   OH247401   6.298   6.569   5.220  0.2394 -0.0940  0.1703
 8637TIP3    H147402   6.286   6.663   5.213  0.1718 -0.0848  0.4060
 8637TIP3    H247403   6.380   6.558   5.269  0.0070 -0.1542  0.5523
 8638TIP3   OH247404   6.788   2.416  12.042  0.7613 -0.4014  0.7107
 8638TIP3    H147405   6.806   2.401  11.949 -0.6626 -1.6707  0.5968
 8638TIP3    H247406   6.810   2.333  12.084 -1.7120 -1.0096  0.9798
 8639TIP3   OH247407   2.043   4.779   0.931 -0.3426  0.5774 -0.4033
 8639TIP3    H147408   2.108   4.802   0.997 -0.8802  2.9595 -0.6138
 8639TIP3    H247409   1.969   4.747   0.982 -0.0944  0.6966  0.0417
 8640TIP3   OH247410   1.679   6.654  12.582 -0.1945 -0.1953 -0.1584
 8640TIP3    H147411   1.631   6.737  12.587  1.7642  0.9954 -0.1184
 8640TIP3    H247412   1.648   6.604  12.658  0.2440  1.4587  1.1862
 8641TIP3   OH247413   3.306   4.697   2.069  0.1528  0.5097  0.8305
 8641TIP3    H147414   3.256   4.622   2.037  1.2452  1.3255 -3.3862
 8641TIP3    H247415   3.361   4.662   2.138 -0.3215 -2.2841 -0.0936
 8642TIP3   OH247416   4.813   5.867  17.029 -0.5962  0.6851 -0.5313
 8642TIP3    H147417   4.730   5.824  17.011 -0.6726 -0.2869  1.8710
 8642TIP3    H247418   4.790   5.953  17.065 -0.6306 -0.0503  1.2690
 8643TIP3   OH247419   4.820   1.288  12.401 -0.0962 -0.2697  0.4992
 8643TIP3    H147420   4.794   1.273  12.310  0.6831  0.4403  0.1422
 8643TIP3    H247421   4.876   1.213  12.423  0.2083 -0.1338  0.1889
 8644TIP3   OH247422   5.266   0.581  13.564  0.0797  0.0067 -0.0375
 8644TIP3    H147423   5.198   0.513  13.564  0.6879 -0.6100 -0.0316
 8644TIP3    H247424   5.222   0.658  13.598 -0.8402 -0.1589 -0.8037
 8645TIP3   OH247425   6.187   5.428  11.689  0.4063  0.3765  0.0210
 8645TIP3    H147426   6.180   5.419  11.784 -1.7594 -0.0425 -0.1212
 8645TIP3    H247427   6.280   5.443  11.673  0.8841  0.0527  2.1652
 8646TIP3   OH247428   1.727   4.026   3.748  0.2981 -0.3860 -0.4675
 8646TIP3    H147429   1.704   3.991   3.662 -1.6654  0.5692 -0.3754
 8646TIP3    H247430   1.728   3.949   3.805 -0.2315 -0.7880 -0.9883
 8647TIP3   OH247431   5.823   5.683   4.190 -0.4689 -0.5274 -0.2024
 8647TIP3    H147432   5.841   5.772   4.159  0.9702 -0.5292  0.5446
 8647TIP3    H247433   5.765   5.695   4.266  1.8258  0.0147  1.5608
 8648TIP3   OH247434   5.725   2.981   3.021 -0.1653  0.4893  0.8286
 8648TIP3    H147435   5.657   2.953   2.960 -0.7910  2.1653  0.7054
 8648TIP3    H247436   5.793   3.019   2.965  0.7671 -0.8691  0.9769
 8649TIP3   OH247437   2.713   6.733  15.060 -0.8074 -0.0568 -0.3459
 8649TIP3    H147438   2.742   6.818  15.092 -0.7453 -0.0528 -0.4129
 8649TIP3    H247439   2.651   6.702  15.126  1.6525 -1.4687  1.4943
 8650TIP3   OH247440   6.491   4.286   4.397 -0.1543  0.0219 -0.2773
 8650TIP3    H147441   6.527   4.321   4.315  0.2921 -0.5322 -0.3222
 8650TIP3    H247442   6.551   4.318   4.464  0.2751 -0.6726 -0.3220
 8651TIP3   OH247443   3.990   0.309   5.212 -0.1052 -0.7190  0.4990
 8651TIP3    H147444   4.023   0.244   5.274  0.0242  0.3719  1.6102
 8651TIP3    H247445   3.960   0.381   5.267  1.8928  1.1793 -0.7698
 8652TIP3   OH247446   3.527   6.749   3.603  0.2503  0.2196 -0.4990
 8652TIP3    H147447   3.464   6.685   3.568  1.3746 -0.2345 -1.7818
 8652TIP3    H247448   3.495   6.833   3.571 -1.0317  0.3054  0.8845
 8653TIP3   OH247449   0.629   5.579  15.533  0.4337 -0.2033 -0.3292
 8653TIP3    H147450   0.564   5.511  15.514 -0.5847  0.5640  0.3167
 8653TIP3    H247451   0.689   5.538  15.596 -1.1745  0.0136  1.4158
 8654TIP3   OH247452   3.631   3.118   4.668  0.0748  0.2402 -0.4377
 8654TIP3    H147453   3.706   3.060   4.683  0.2707  0.6801  0.3792
 8654TIP3    H247454   3.558   3.075   4.713 -0.2222 -0.2867 -1.3993
 8655TIP3   OH247455   4.534   2.801   1.149  0.0254  0.4940 -0.2555
 8655TIP3    H147456   4.606   2.738   1.141 -0.8672 -0.4045 -1.5979
 8655TIP3    H247457   4.545   2.838   1.236  1.0662 -0.9375  0.2682
 8656TIP3   OH247458   3.216   4.981  15.844 -0.2905 -0.2299  0.2998
 8656TIP3    H147459   3.156   4.924  15.795  1.1961 -0.2091 -1.6602
 8656TIP3    H247460   3.246   5.045  15.780  0.3592  0.9337  1.7215
 8657TIP3   OH247461   5.274   3.693   2.790 -0.5073  0.0716  0.2110
 8657TIP3    H147462   5.210   3.692   2.719 -0.3159 -1.0484  0.0288
 8657TIP3    H247463   5.232   3.743   2.859 -0.8081  0.9511 -0.5883
 8658TIP3   OH247464   5.197   3.418  15.116  0.4644 -0.5298 -0.1707
 8658TIP3    H147465   5.213   3.504  15.153 -1.1484 -0.1570 -0.2536
 8658TIP3    H247466   5.168   3.365  15.190 -0.2316 -0.5090 -0.4231
 8659TIP3   OH247467   6.227   0.061   3.895 -0.8564  0.1591  0.9193
 8659TIP3    H147468   6.173   0.130   3.933 -1.0079 -0.7841  2.5062
 8659TIP3    H247469   6.292   0.042   3.963 -0.4342 -0.8112  0.2564
 8660TIP3   OH247470   5.107   4.323   1.993 -0.7209 -0.0248 -0.2799
 8660TIP3    H147471   5.071   4.393   1.939 -1.0264 -0.7302 -1.0113
 8660TIP3    H247472   5.032   4.266   2.011 -0.1074 -1.2456 -1.4017
 8661TIP3   OH247473   0.450   6.203  13.210  0.1671  0.3281  0.2777
 8661TIP3    H147474   0.383   6.264  13.242 -0.3232 -0.1643  0.2083
 8661TIP3    H247475   0.426   6.186  13.119  1.7389  1.9670 -0.4943
 8662TIP3   OH247476   3.673   4.478   6.085 -0.5681 -0.0833  0.0122
 8662TIP3    H147477   3.668   4.468   6.180 -1.2550 -0.0502 -0.0180
 8662TIP3    H247478   3.586   4.510   6.059  0.1320  1.5908 -0.4156
 8663TIP3   OH247479   4.178   2.276   2.842  0.1512 -0.2181  0.0339
 8663TIP3    H147480   4.196   2.348   2.903  0.8012 -0.2435 -0.1245
 8663TIP3    H247481   4.206   2.310   2.757 -0.9023 -0.1207 -0.2944
 8664TIP3   OH247482   0.676   5.480   0.628  0.5463  0.8430 -0.3855
 8664TIP3    H147483   0.666   5.550   0.563 -2.0974  0.0910 -0.9387
 8664TIP3    H247484   0.713   5.407   0.578  0.3541  0.8835 -0.5923
 8665TIP3   OH247485   5.122   1.704  12.237  0.2232 -0.3361  0.3615
 8665TIP3    H147486   5.034   1.698  12.202 -0.3730 -1.6681  1.9332
 8665TIP3    H247487   5.116   1.770  12.306  1.2421  1.8332 -1.4914
 8666TIP3   OH247488   3.060   0.483  13.318 -0.4208  0.2464  0.6257
 8666TIP3    H147489   3.011   0.479  13.236  1.3583  0.9380 -0.5387
 8666TIP3    H247490   3.042   0.571  13.352 -0.0906  0.4710  0.2401
 8667TIP3   OH247491   5.234   2.955   4.582 -0.8231  0.8045 -0.3843
 8667TIP3    H147492   5.224   2.896   4.657  1.2131  1.1582  0.2260
 8667TIP3    H247493   5.252   3.041   4.621  0.6110  0.9269 -1.2499
 8668TIP3   OH247494   5.168   6.796   1.372  0.0941  0.0517  0.0542
 8668TIP3    H147495   5.234   6.841   1.319  1.0597 -2.9906 -1.6122
 8668TIP3    H247496   5.217   6.763   1.448  0.3121 -1.1317 -0.5568
 8669TIP3   OH247497   3.370   1.897   0.594  0.3044 -0.0934 -0.2387
 8669TIP3    H147498   3.460   1.868   0.581 -0.0211 -0.3308 -2.5863
 8669TIP3    H247499   3.366   1.982   0.551 -1.1257 -1.2276 -2.5901
 8670TIP3   OH247500   5.892   1.297  11.578 -0.2726  0.6939 -0.1544
 8670TIP3    H147501   5.865   1.376  11.626  0.1458  0.3544  0.6633
 8670TIP3    H247502   5.986   1.307  11.568  0.3240 -1.0457  2.6092
 8671TIP3   OH247503   0.041   4.492  12.350 -0.1068 -0.2434 -0.1272
 8671TIP3    H147504  -0.047   4.526  12.366  0.1296  0.2114  0.2237
 8671TIP3    H247505   0.097   4.541  12.410  0.4046 -0.4427 -0.4371
 8672TIP3   OH247506   5.523   4.349   3.902 -0.4357  0.9640  0.3431
 8672TIP3    H147507   5.559   4.292   3.971 -0.3759  0.1615 -0.3342
 8672TIP3    H247508   5.430   4.355   3.923 -0.3676  0.9690  0.6584
 8673TIP3   OH247509   4.692   1.514   1.020  0.1427 -0.2140 -0.9102
 8673TIP3    H147510   4.630   1.489   1.088  1.0708 -1.8298 -0.5971
 8673TIP3    H247511   4.698   1.609   1.026 -0.6871 -0.2292  0.4570
 8674TIP3   OH247512   0.287   4.557   3.210  0.1439 -0.0697  0.4313
 8674TIP3    H147513   0.241   4.572   3.128 -1.1174  1.5988  1.3879
 8674TIP3    H247514   0.357   4.623   3.210 -0.8924  1.0805  1.3930
 8675TIP3   OH247515   6.207   3.891   5.803  0.2736  0.9025 -0.3490
 8675TIP3    H147516   6.122   3.858   5.773  0.3699 -0.3606  0.6561
 8675TIP3    H247517   6.186   3.945   5.879  0.3607  0.5773 -0.0913
 8676TIP3   OH247518   2.379   3.225  12.087  0.4084 -0.1862 -0.6475
 8676TIP3    H147519   2.454   3.261  12.134  0.5543  0.1106 -1.1087
 8676TIP3    H247520   2.333   3.301  12.052 -0.2125 -0.3535 -0.2185
 8677TIP3   OH247521   5.321   4.617  13.815  0.4233 -0.0728  0.2373
 8677TIP3    H147522   5.364   4.546  13.768  2.2931  0.2268  1.3700
 8677TIP3    H247523   5.263   4.573  13.877 -1.2508 -0.4805 -1.5212
 8678TIP3   OH247524   3.570   1.421   5.440 -0.4721  0.0865  0.1934
 8678TIP3    H147525   3.520   1.340   5.433  0.0897 -0.2106 -0.5015
 8678TIP3    H247526   3.515   1.478   5.494 -0.7378 -0.8477  0.9331
 8679TIP3   OH247527   6.396   4.950  15.599 -0.0154 -0.0437 -0.0513
 8679TIP3    H147528   6.392   4.981  15.689 -0.7279 -0.3272  0.0146
 8679TIP3    H247529   6.305   4.946  15.570  0.1123 -1.3224 -0.3131
 8680TIP3   OH247530   5.365   3.630  13.335  0.4334  0.1258 -0.9891
 8680TIP3    H147531   5.342   3.694  13.402  0.3567 -0.3378 -0.5719
 8680TIP3    H247532   5.347   3.545  13.375 -0.1886 -0.1429 -1.8014
 8681TIP3   OH247533   3.522   5.138   4.255  0.2457 -0.3407 -0.0925
 8681TIP3    H147534   3.481   5.120   4.170  2.3433 -1.9519 -0.8526
 8681TIP3    H247535   3.581   5.064   4.269  1.6132  1.0065  1.7179
 8682TIP3   OH247536   1.524   4.516   4.518  0.1546  0.7355 -0.0043
 8682TIP3    H147537   1.528   4.566   4.599 -0.3022 -1.5329  1.5256
 8682TIP3    H247538   1.613   4.482   4.507 -0.5104 -1.8424  1.6148
 8683TIP3   OH247539   0.194   1.791  13.228 -0.3482 -0.6413 -0.5384
 8683TIP3    H147540   0.181   1.705  13.187  0.2960 -1.0752  0.1499
 8683TIP3    H247541   0.201   1.851  13.154 -1.2282 -1.1069 -1.0211
 8684TIP3   OH247542   4.895   4.642   3.433  0.1401 -0.3377  0.5968
 8684TIP3    H147543   4.917   4.578   3.501 -0.5406  1.3273  2.4492
 8684TIP3    H247544   4.954   4.715   3.450  2.3352 -1.1211 -2.7274
 8685TIP3   OH247545   4.305   4.442   2.120  0.3729  0.3899  0.1053
 8685TIP3    H147546   4.355   4.367   2.090 -0.0986  0.5023 -1.0256
 8685TIP3    H247547   4.343   4.517   2.073 -1.1557  0.4030 -1.2160
 8686TIP3   OH247548   3.350   0.612   1.870 -0.1556  0.9206  0.0005
 8686TIP3    H147549   3.382   0.650   1.951  1.0642  0.6495 -0.3318
 8686TIP3    H247550   3.302   0.534   1.897 -0.0515  1.0182  0.4755
 8687TIP3   OH247551   4.102   6.260   5.784  0.3176  0.4076  0.3353
 8687TIP3    H147552   4.111   6.165   5.789  1.0416  0.4832  0.6084
 8687TIP3    H247553   4.148   6.284   5.704 -1.4661  0.3555 -0.7522
 8688TIP3   OH247554   5.729   6.490   2.015 -0.3174  0.4304  0.4957
 8688TIP3    H147555   5.820   6.464   2.002 -0.0169  1.5197  0.3360
 8688TIP3    H247556   5.718   6.568   1.960 -1.7048 -0.4134 -0.4956
 8689TIP3   OH247557   3.812   1.527  16.599 -0.3302 -0.2258 -0.1542
 8689TIP3    H147558   3.725   1.490  16.614 -1.1670  1.1253 -1.4784
 8689TIP3    H247559   3.855   1.464  16.541 -0.5418 -0.7221  0.2227
 8690TIP3   OH247560   5.616   2.228  16.081 -0.1924 -0.7709  0.2237
 8690TIP3    H147561   5.649   2.168  16.014 -0.2450 -0.4806 -0.0631
 8690TIP3    H247562   5.694   2.259  16.126 -0.0130  0.3499 -0.8190
 8691TIP3   OH247563   6.512   0.584   5.292 -0.4195 -0.4415  0.1286
 8691TIP3    H147564   6.422   0.616   5.290  0.1609  1.2757 -0.2314
 8691TIP3    H247565   6.557   0.632   5.223  1.3555  0.5910  1.8886
 8692TIP3   OH247566   3.172   3.554  17.073 -0.4655 -0.5299  0.2484
 8692TIP3    H147567   3.119   3.503  17.012  0.1302  0.0360 -0.7828
 8692TIP3    H247568   3.256   3.508  17.077 -0.4445 -0.4718  0.5017
 8693TIP3   OH247569   2.420   0.374   2.162 -0.0596 -0.2928  0.3877
 8693TIP3    H147570   2.331   0.352   2.190  0.3825  0.2247  2.3842
 8693TIP3    H247571   2.447   0.300   2.108 -1.3245 -0.9781  0.6572
 8694TIP3   OH247572   5.192   5.366  15.814  0.7037  0.2524  0.3476
 8694TIP3    H147573   5.100   5.389  15.803  0.9554  0.1133 -3.7622
 8694TIP3    H247574   5.194   5.271  15.804  1.3003  0.2855  0.1132
 8695TIP3   OH247575   4.114   4.494  17.003 -0.4051 -0.6721  0.6067
 8695TIP3    H147576   4.201   4.526  17.024 -0.8753  0.7336  0.5106
 8695TIP3    H247577   4.125   4.399  16.994  1.4687 -0.3531 -1.1844
 8696TIP3   OH247578   3.264   6.644   6.391 -0.0913 -0.5476  0.7627
 8696TIP3    H147579   3.180   6.607   6.420 -0.0916 -0.4839  0.8430
 8696TIP3    H247580   3.278   6.719   6.448 -0.0249 -0.5027  0.6873
 8697TIP3   OH247581   0.976   0.787  14.925  0.3360 -0.6160  0.1043
 8697TIP3    H147582   0.905   0.847  14.902  0.7731 -0.4058 -0.7299
 8697TIP3    H247583   1.021   0.829  14.998  1.4600  0.7712 -1.3213
 8698TIP3   OH247584   4.507   5.996   2.526 -0.2201  0.1023 -0.8425
 8698TIP3    H147585   4.460   5.962   2.601  0.3905 -0.5336 -0.7474
 8698TIP3    H247586   4.466   5.954   2.450 -0.5481  0.4174 -0.8463
 8699TIP3   OH247587   3.708   4.655   4.307  0.1899  0.2165  0.7322
 8699TIP3    H147588   3.768   4.588   4.274  1.0000  0.8443  0.9011
 8699TIP3    H247589   3.622   4.614   4.303  0.2554  0.1595 -1.9465
 8700TIP3   OH247590   4.632   2.213  13.927 -0.4174  0.2234  0.3282
 8700TIP3    H147591   4.539   2.188  13.925  0.2035 -2.5353  1.6680
 8700TIP3    H247592   4.678   2.133  13.953  2.5781  0.9686 -2.0895
 8701TIP3   OH247593   5.195   4.293  16.581 -0.6180 -0.1800 -0.1195
 8701TIP3    H147594   5.262   4.359  16.562  0.4342 -1.6750 -1.9794
 8701TIP3    H247595   5.193   4.238  16.502 -1.6116 -2.2238  1.2438
 8702TIP3   OH247596   5.273   2.102  12.153  0.2966  0.3819 -0.2136
 8702TIP3    H147597   5.366   2.098  12.175  0.2520  1.3414  0.2009
 8702TIP3    H247598   5.259   2.027  12.095  0.7516 -1.3478  1.7882
 8703TIP3   OH247599   5.374   0.109   0.475  0.0548  0.4295 -0.1370
 8703TIP3    H147600   5.280   0.127   0.478 -0.3172 -0.7579 -2.4621
 8703TIP3    H247601   5.387   0.068   0.390  3.0295  2.4411 -0.7921
 8704TIP3   OH247602   5.980   6.055   1.096  0.6815  0.2409 -0.2839
 8704TIP3    H147603   5.915   5.987   1.078 -1.2285  1.7811  0.4313
 8704TIP3    H247604   6.038   6.015   1.161 -1.5228 -0.1397  1.5780
 8705TIP3   OH247605   1.013   5.008   0.841  0.0550  0.7947 -0.6379
 8705TIP3    H147606   1.101   5.008   0.804 -0.5105 -1.0476 -2.1604
 8705TIP3    H247607   0.957   5.036   0.769 -0.8379 -0.3788 -0.4204
 8706TIP3   OH247608   0.747   1.860  16.193 -0.2621  0.0270 -0.3202
 8706TIP3    H147609   0.784   1.884  16.278  1.5951  0.2926 -1.1609
 8706TIP3    H247610   0.756   1.764  16.189 -1.0937 -0.0760  0.0959
 8707TIP3   OH247611   3.764   3.624  17.153 -0.2063 -0.0129  0.4102
 8707TIP3    H147612   3.703   3.657  17.087  2.1993 -3.2491 -3.9903
 8707TIP3    H247613   3.803   3.702  17.191 -2.1939  2.0990 -1.5945
 8708TIP3   OH247614   1.403   0.590  14.859 -0.6679 -0.5665 -0.1190
 8708TIP3    H147615   1.343   0.653  14.820 -0.7543 -0.2904  0.4591
 8708TIP3    H247616   1.404   0.517  14.797  1.6653  1.1386 -2.3470
 8709TIP3   OH247617   5.447   5.600   4.312  0.3546 -0.2689  0.1485
 8709TIP3    H147618   5.512   5.532   4.333  2.2936  1.0818 -1.1656
 8709TIP3    H247619   5.495   5.682   4.317 -1.2140  0.7909 -1.0607
 8710TIP3   OH247620   2.956   6.273  14.672  0.2078  0.0513  0.1662
 8710TIP3    H147621   3.043   6.311  14.663 -0.6319  1.9383 -0.5058
 8710TIP3    H247622   2.971   6.178  14.680  2.2826  0.3336  0.0259
 8711TIP3   OH247623   2.884   3.931  16.655  0.1494  0.5578 -0.5108
 8711TIP3    H147624   2.950   3.969  16.596 -0.5413  0.6171 -1.2557
 8711TIP3    H247625   2.863   3.846  16.616  1.7799 -0.7345  1.2070
 8712TIP3   OH247626   0.373   2.111   5.556 -0.3759 -0.5063 -0.0657
 8712TIP3    H147627   0.426   2.184   5.522 -0.6873 -0.5340 -0.6224
 8712TIP3    H247628   0.422   2.079   5.631 -1.3095  1.6805  1.5586
 8713TIP3   OH247629   3.995   4.848  10.984 -0.4571 -0.3504 -0.2757
 8713TIP3    H147630   4.089   4.835  10.974 -0.4343  0.1575 -0.7829
 8713TIP3    H247631   3.967   4.777  11.042  0.2895 -0.3144  0.1485
 8714TIP3   OH247632   2.712   3.533   4.759 -0.2100  0.2935 -0.3648
 8714TIP3    H147633   2.653   3.533   4.683 -2.6652 -2.1065  1.3513
 8714TIP3    H247634   2.667   3.586   4.825  1.2048  1.1669 -0.0480
 8715TIP3   OH247635   6.560   4.099   4.999  0.1672  0.5348 -0.8062
 8715TIP3    H147636   6.649   4.094   5.033  0.2123  2.0091 -0.6153
 8715TIP3    H247637   6.512   4.032   5.047  1.2720 -0.6509 -1.3087
 8716TIP3   OH247638   3.193   1.567   1.184  0.8132 -0.5217  0.4473
 8716TIP3    H147639   3.187   1.645   1.239  3.1338  0.1980 -0.1684
 8716TIP3    H247640   3.165   1.495   1.240  2.0048  0.3236  2.2179
 8717TIP3   OH247641   0.526   4.410  15.909  0.1661 -0.0334  0.0035
 8717TIP3    H147642   0.597   4.348  15.925  0.5329  0.3594 -0.0962
 8717TIP3    H247643   0.566   4.480  15.857  0.0063  0.7826  0.9546
 8718TIP3   OH247644   0.648   2.070   2.466  0.3891  0.4297  0.4185
 8718TIP3    H147645   0.701   2.012   2.412 -0.2645  1.7099 -1.7211
 8718TIP3    H247646   0.697   2.152   2.467  0.0910  0.6056  1.3227
 8719TIP3   OH247647   2.343   1.229  14.241  0.0057  0.0981 -0.8546
 8719TIP3    H147648   2.338   1.281  14.321 -0.9684  1.3751 -1.6887
 8719TIP3    H247649   2.384   1.147  14.267 -1.5730 -0.0937  1.2276
 8720TIP3   OH247650   0.913   4.694   3.462  0.4969  0.4864  0.7493
 8720TIP3    H147651   0.819   4.675   3.464  0.8101 -1.9704 -1.7287
 8720TIP3    H247652   0.921   4.764   3.397  0.4522 -0.3211 -0.1543
 8721TIP3   OH247653   6.540   5.730  17.050 -0.0323 -0.5586 -0.0361
 8721TIP3    H147654   6.580   5.782  16.980  0.3686  0.3931  0.8695
 8721TIP3    H247655   6.450   5.717  17.022 -0.8706  2.6698  0.7319
 8722TIP3   OH247656   4.499   5.809   4.637  0.1826 -0.0628  0.7959
 8722TIP3    H147657   4.484   5.903   4.628 -1.0417 -0.3397 -0.2795
 8722TIP3    H247658   4.468   5.771   4.555  1.8594 -1.2956  0.6669
 8723TIP3   OH247659   3.514   3.847   5.892  0.1964  0.2393  0.0357
 8723TIP3    H147660   3.596   3.870   5.848 -0.1877  2.3330  0.3303
 8723TIP3    H247661   3.531   3.760   5.929  1.6454 -0.1524 -1.4202
 8724TIP3   OH247662   1.595   3.390   1.659  0.0920  0.2394  0.7960
 8724TIP3    H147663   1.610   3.298   1.677  4.4110  0.2424 -1.5232
 8724TIP3    H247664   1.552   3.391   1.574 -1.2658  0.4430  1.4519
 8725TIP3   OH247665   6.764   2.451   4.773  0.0855 -0.2070 -0.3463
 8725TIP3    H147666   6.847   2.494   4.752  0.0427  0.0504  0.0022
 8725TIP3    H247667   6.790   2.369   4.814  0.1675 -0.3342 -0.6510
 8726TIP3   OH247668   5.633   5.737  14.021  0.3047  0.4212 -0.0281
 8726TIP3    H147669   5.728   5.734  14.012  0.2175  1.2887 -1.6161
 8726TIP3    H247670   5.608   5.646  14.035  1.1820 -0.2659 -2.3772
 8727TIP3   OH247671   2.616   1.112  13.327 -0.3094 -0.1181 -0.6143
 8727TIP3    H147672   2.593   1.133  13.418 -2.1900 -0.5481 -0.9707
 8727TIP3    H247673   2.575   1.181  13.275 -0.8947 -0.9640 -1.2870
 8728TIP3   OH247674   2.062   3.551  16.387  0.2283  0.7336 -0.5524
 8728TIP3    H147675   2.016   3.628  16.421 -1.9715  0.0261 -1.7734
 8728TIP3    H247676   2.052   3.485  16.456  0.5999  0.9854 -0.2519
 8729TIP3   OH247677   4.619   0.380   1.392 -0.6292  0.0390 -0.0464
 8729TIP3    H147678   4.692   0.335   1.436  1.4771  3.1968 -0.0191
 8729TIP3    H247679   4.573   0.425   1.463 -1.2859 -0.1636 -0.3397
 8730TIP3   OH247680   2.399   6.060   3.507  0.6834 -0.4382  0.2681
 8730TIP3    H147681   2.353   6.103   3.580  0.2270 -0.6051  0.0804
 8730TIP3    H247682   2.380   5.967   3.518  1.2539 -0.5448  0.3795
 8731TIP3   OH247683   1.705   4.616  14.063 -0.0835 -0.0152  0.4511
 8731TIP3    H147684   1.758   4.614  14.143  1.8587  1.7092 -0.6589
 8731TIP3    H247685   1.632   4.674  14.084  0.7544  0.9368  0.8462
 8732TIP3   OH247686   3.761   3.116   6.510  0.1344  0.0507  0.3181
 8732TIP3    H147687   3.837   3.139   6.457  0.9902 -1.5867  0.7861
 8732TIP3    H247688   3.735   3.198   6.552  0.9216  0.8623 -0.7221
 8733TIP3   OH247689   1.781   4.929  11.379  0.3116  0.0367  0.1174
 8733TIP3    H147690   1.779   4.939  11.474 -0.4797 -1.6832  0.3283
 8733TIP3    H247691   1.758   5.015  11.345 -0.6535  0.3699  1.5278
 8734TIP3   OH247692   0.879   4.632   2.121  0.1619  0.2096  0.5021
 8734TIP3    H147693   0.816   4.616   2.051  0.8012  0.6964 -0.2057
 8734TIP3    H247694   0.922   4.714   2.096  0.6537  0.1950  1.2739
 8735TIP3   OH247695   6.721   2.788  15.172  0.1610  0.0934 -0.5844
 8735TIP3    H147696   6.669   2.785  15.092 -1.3950  0.9858  0.3357
 8735TIP3    H247697   6.767   2.872  15.168  1.0996 -0.4301 -1.1169
 8736TIP3   OH247698   0.115   2.680   6.058  0.0189  0.1198  0.4515
 8736TIP3    H147699   0.062   2.716   6.128 -0.9599  1.0069 -0.6987
 8736TIP3    H247700   0.062   2.691   5.979  1.0774 -0.8410 -0.4404
 8737TIP3   OH247701   5.100   3.102   0.942 -0.6433  0.3946  0.4286
 8737TIP3    H147702   5.060   3.175   0.988 -1.5022  1.3398 -1.6743
 8737TIP3    H247703   5.092   3.028   1.002 -0.4554  1.8442  2.2964
 8738TIP3   OH247704   2.064   5.734   4.940 -0.2599  0.2944 -0.0576
 8738TIP3    H147705   2.083   5.755   5.031  0.1413  2.5008 -0.5786
 8738TIP3    H247706   2.059   5.639   4.937 -2.1097  0.2091  2.5868
 8739TIP3   OH247707   4.021   6.299  10.898 -0.3888  0.2628  0.0458
 8739TIP3    H147708   4.065   6.226  10.941 -1.3131  0.3598  1.2150
 8739TIP3    H247709   4.002   6.267  10.809  3.4884  0.8184 -1.1728
 8740TIP3   OH247710   6.600   2.670  17.022 -0.3140  0.0856  0.0176
 8740TIP3    H147711   6.659   2.599  17.047  1.2936  0.6298 -1.8910
 8740TIP3    H247712   6.618   2.740  17.084 -1.0502 -0.7269  1.1797
 8741TIP3   OH247713   6.038   1.222  15.151 -0.1817 -0.3304 -0.2325
 8741TIP3    H147714   5.997   1.136  15.144 -1.2630  0.3033 -2.9171
 8741TIP3    H247715   5.975   1.274  15.201  0.0169 -0.8197  0.5408
 8742TIP3   OH247716   6.323   3.126   1.348 -0.1738 -0.2836  0.2593
 8742TIP3    H147717   6.309   3.036   1.318 -1.6064 -0.1397  0.4331
 8742TIP3    H247718   6.418   3.133   1.361 -0.1177 -1.9956  0.9880
 8743TIP3   OH247719   2.349   4.259   4.920 -0.0839 -0.3196 -0.0674
 8743TIP3    H147720   2.377   4.255   5.011 -0.5979 -0.5449  0.0837
 8743TIP3    H247721   2.310   4.346   4.910 -0.2439 -0.3850 -0.0092
 8744TIP3   OH247722   1.654   6.561  12.855 -0.1448  1.0093 -0.4392
 8744TIP3    H147723   1.581   6.617  12.882 -0.8889 -0.0940 -0.1371
 8744TIP3    H247724   1.706   6.549  12.934 -3.2214 -3.6172  1.2830
 8745TIP3   OH247725   4.293   5.535  16.623 -0.5115  0.0643  0.3715
 8745TIP3    H147726   4.298   5.506  16.532 -2.6968 -0.4385  0.3696
 8745TIP3    H247727   4.207   5.575  16.632 -0.4033 -0.0161  2.2436
 8746TIP3   OH247728   3.541   5.448   3.013 -0.4247 -0.4442 -0.0203
 8746TIP3    H147729   3.601   5.411   3.078  0.2867 -1.8718 -1.4241
 8746TIP3    H247730   3.518   5.374   2.957 -0.7491  0.8013 -1.5990
 8747TIP3   OH247731   6.099   3.735   5.543 -0.3775  1.0224  0.2645
 8747TIP3    H147732   6.020   3.783   5.519 -1.0062  0.7698  1.7487
 8747TIP3    H247733   6.070   3.670   5.606  1.1336  1.5676  1.5985
 8748TIP3   OH247734   2.543   2.564  13.841  0.1895  0.0371 -0.0428
 8748TIP3    H147735   2.451   2.573  13.818  0.8256  3.3848 -1.9412
 8748TIP3    H247736   2.567   2.648  13.879  2.1097 -1.3779  2.1061
 8749TIP3   OH247737   3.490   5.412  14.599  0.5500  0.6427  0.7166
 8749TIP3    H147738   3.545   5.482  14.563 -2.3196  2.1248 -1.2217
 8749TIP3    H247739   3.538   5.331  14.580  2.7977  1.9231  0.7078
 8750TIP3   OH247740   6.120   0.050  12.955  0.1379 -0.2362 -0.2177
 8750TIP3    H147741   6.065   0.097  13.017  0.8485 -0.8837  0.9454
 8750TIP3    H247742   6.107  -0.042  12.976  1.5310 -0.4115 -0.0092
 8751TIP3   OH247743   1.092   6.671  12.709  0.3846  0.0194 -0.1321
 8751TIP3    H147744   1.019   6.677  12.647 -0.6441 -0.0439  1.0360
 8751TIP3    H247745   1.057   6.621  12.782  1.4309  0.4769  0.6993
 8752TIP3   OH247746   3.875   4.173  12.446 -0.9214  0.2578  0.3072
 8752TIP3    H147747   3.934   4.097  12.440 -1.1340  0.1571 -0.6153
 8752TIP3    H247748   3.853   4.179  12.539 -1.2607 -1.0969  0.3342
 8753TIP3   OH247749   2.274   2.517   2.846  0.2661  0.6116  0.2955
 8753TIP3    H147750   2.238   2.438   2.806  2.6025 -0.0261 -0.7259
 8753TIP3    H247751   2.220   2.589   2.812 -1.1942 -0.4236  0.3604
 8754TIP3   OH247752   2.845   1.236  14.274  0.1911 -0.8465 -0.2554
 8754TIP3    H147753   2.784   1.266  14.341 -0.2774 -1.4814 -0.3888
 8754TIP3    H247754   2.922   1.206  14.322 -0.7589 -2.7979  0.1426
 8755TIP3   OH247755   1.457   4.774   3.614  0.3016 -0.5824  0.3332
 8755TIP3    H147756   1.480   4.867   3.618  2.6559 -1.1473  2.4513
 8755TIP3    H247757   1.517   4.737   3.550 -0.6142 -0.6968 -0.4847
 8756TIP3   OH247758   5.276   4.609   4.390  0.3611 -0.2254 -0.1566
 8756TIP3    H147759   5.306   4.518   4.393  0.7805 -0.0686  1.5930
 8756TIP3    H247760   5.271   4.630   4.297 -2.6810 -2.9684 -0.7939
 8757TIP3   OH247761   5.050   5.094   6.419  0.1809 -0.4538 -0.2289
 8757TIP3    H147762   5.130   5.110   6.368  0.6324  0.3791  0.7052
 8757TIP3    H247763   5.043   5.169   6.478 -1.6327 -0.2169 -0.6858
 8758TIP3   OH247764   6.638   0.662  12.668 -0.1704 -0.5498  0.1533
 8758TIP3    H147765   6.622   0.749  12.705 -0.0773 -0.4832  0.0399
 8758TIP3    H247766   6.573   0.605  12.709 -1.2625 -0.1173 -0.9266
 8759TIP3   OH247767   3.713   5.553   0.512  0.2505 -0.5520  0.2192
 8759TIP3    H147768   3.789   5.517   0.466  0.5486  0.2693  0.0492
 8759TIP3    H247769   3.668   5.477   0.547  0.3100 -1.1688 -0.9844
 8760TIP3   OH247770   2.549   2.403   0.120  0.2669 -0.4996 -0.5820
 8760TIP3    H147771   2.454   2.395   0.110  0.3149 -0.0031 -1.4771
 8760TIP3    H247772   2.567   2.497   0.114  0.8936 -0.6486 -1.2597
 8761TIP3   OH247773   1.487   4.257  16.551  0.0679  0.8920  0.1316
 8761TIP3    H147774   1.401   4.219  16.570  0.0287  0.2202 -1.2333
 8761TIP3    H247775   1.534   4.256  16.634 -0.8390  0.2004  0.6467
 8762TIP3   OH247776   4.010   5.608  11.786  0.0093  0.1350 -0.2794
 8762TIP3    H147777   4.011   5.559  11.869 -0.1259 -0.9192 -0.8779
 8762TIP3    H247778   3.927   5.654  11.786 -1.3866 -2.2125 -1.1202
 8763TIP3   OH247779   2.252   0.977  17.198  0.0734  0.1734  0.4470
 8763TIP3    H147780   2.221   0.893  17.166 -2.5345  1.7348 -1.5361
 8763TIP3    H247781   2.334   0.992  17.150 -1.2626  0.2719 -1.9313
 8764TIP3   OH247782   6.097   0.134   1.081  0.1484  0.1800 -0.4423
 8764TIP3    H147783   6.063   0.133   1.170  0.1624 -1.6597 -0.4089
 8764TIP3    H247784   6.188   0.105   1.090  0.0071 -0.4892 -1.0880
 8765TIP3   OH247785   4.196   2.190  14.085  0.4511  0.0869  0.3756
 8765TIP3    H147786   4.230   2.222  14.168 -1.1822  0.1741  1.0611
 8765TIP3    H247787   4.154   2.266  14.045 -0.8899 -0.4620  0.6480
 8766TIP3   OH247788   0.325   4.989  13.520 -0.3969 -0.1406  0.4548
 8766TIP3    H147789   0.357   5.055  13.583  0.0804  0.3032 -0.2378
 8766TIP3    H247790   0.401   4.970  13.465 -0.6003 -1.0982  0.4815
 8767TIP3   OH247791   3.994   5.132  16.017  0.0143  0.0661 -0.1025
 8767TIP3    H147792   3.950   5.053  16.050 -0.1353 -0.6022 -1.7976
 8767TIP3    H247793   4.087   5.115  16.030  0.1655 -1.4823 -2.5367
 8768TIP3   OH247794   0.162   1.377   5.733  0.1719  0.1168 -0.0347
 8768TIP3    H147795   0.238   1.425   5.766  0.1453  0.6214 -0.6853
 8768TIP3    H247796   0.193   1.337   5.651 -0.2690  0.3389 -0.3110
 8769TIP3   OH247797   3.216   4.005  12.974  0.5886  0.0882 -0.1311
 8769TIP3    H147798   3.195   4.031  13.064  0.7817 -0.2433  0.0124
 8769TIP3    H247799   3.155   3.933  12.955  0.4985  0.2061 -0.2933
 8770TIP3   OH247800   2.042   6.769  14.547 -0.9562  0.6769 -0.5098
 8770TIP3    H147801   2.084   6.820  14.617 -0.9931  0.1917 -0.1232
 8770TIP3    H247802   2.110   6.709  14.518 -1.9953 -1.8192  1.8009
 8771TIP3   OH247803   1.095   6.788   6.837  0.1553 -0.0031 -0.0389
 8771TIP3    H147804   1.101   6.725   6.765 -0.5915 -0.8369  0.6084
 8771TIP3    H247805   1.073   6.871   6.794 -0.0249 -0.4333 -0.7951
 8772TIP3   OH247806   6.621   3.379   3.046 -0.1816  0.3545  0.3739
 8772TIP3    H147807   6.609   3.322   3.122  1.1733 -0.4970 -0.0048
 8772TIP3    H247808   6.549   3.441   3.051 -2.1005 -1.7341  0.4992
 8773TIP3   OH247809   1.283   4.203   6.469 -0.4779  0.2041 -0.3272
 8773TIP3    H147810   1.322   4.271   6.524  0.3931 -0.6502  0.1492
 8773TIP3    H247811   1.349   4.187   6.401 -1.1297  0.5664 -1.0535
 8774TIP3   OH247812   2.951   2.289  13.828 -0.0928  0.3713 -0.1918
 8774TIP3    H147813   3.025   2.231  13.809 -0.6899  0.1890 -2.1297
 8774TIP3    H247814   2.974   2.372  13.785 -1.6648 -0.1683 -2.1835
 8775TIP3   OH247815   1.405   4.731   2.873  0.0657 -0.5351 -0.4507
 8775TIP3    H147816   1.319   4.764   2.846 -0.2533 -2.5375 -2.2005
 8775TIP3    H247817   1.451   4.716   2.791  2.1322  0.4440  0.4591
 8776TIP3   OH247818   4.029   3.092   0.407  0.0812  0.6162  0.2644
 8776TIP3    H147819   4.104   3.113   0.351 -0.1133 -1.5139 -0.9068
 8776TIP3    H247820   3.999   3.007   0.375 -1.0494  0.0635  2.6082
 8777TIP3   OH247821   0.534   2.671   4.333 -0.1178 -0.1520 -0.2945
 8777TIP3    H147822   0.612   2.724   4.349 -0.4362 -0.0671  1.0558
 8777TIP3    H247823   0.567   2.581   4.326  0.1517 -0.0608 -0.2231
 8778TIP3   OH247824   1.050   5.922   0.467  0.7116 -0.1486 -0.1087
 8778TIP3    H147825   1.002   6.003   0.485 -0.8254 -0.1743 -3.4249
 8778TIP3    H247826   1.129   5.951   0.422  0.4378 -0.4149 -0.7810
 8779TIP3   OH247827   4.135   3.343   1.894  0.2310 -0.3094  0.5231
 8779TIP3    H147828   4.079   3.307   1.962  0.5100 -0.7864  0.4996
 8779TIP3    H247829   4.109   3.298   1.814  1.1989 -1.1320  0.6553
 8780TIP3   OH247830   2.275   4.512   6.421 -0.1761  0.1012  0.1603
 8780TIP3    H147831   2.214   4.565   6.472 -0.4497  0.1100 -0.1703
 8780TIP3    H247832   2.259   4.422   6.451  1.1288  0.3033  1.5908
 8781TIP3   OH247833   6.195   6.188  16.450 -0.1810 -0.1416 -0.0976
 8781TIP3    H147834   6.236   6.274  16.459  0.8424 -0.4629 -1.3634
 8781TIP3    H247835   6.179   6.179  16.356  0.1258 -1.5027 -0.0406
 8782TIP3   OH247836   2.561   5.842  11.692  0.3589 -0.4474 -0.2177
 8782TIP3    H147837   2.467   5.844  11.713  0.4851 -1.6061  0.5185
 8782TIP3    H247838   2.592   5.759  11.728  1.1599 -1.2712 -2.6247
 8783TIP3   OH247839   3.440   3.329  15.024 -0.0938 -0.5338 -0.0812
 8783TIP3    H147840   3.517   3.350  15.077 -0.6495 -0.2429  0.6269
 8783TIP3    H247841   3.383   3.279  15.083 -1.2152  0.7618 -0.0226
 8784TIP3   OH247842   4.961   3.592   5.410  0.0710 -0.4478  0.7751
 8784TIP3    H147843   5.029   3.613   5.474 -0.2328  0.9269  0.6723
 8784TIP3    H247844   5.006   3.597   5.325 -0.1785  0.6727  0.6917
 8785TIP3   OH247845   6.042   1.253   5.435  0.3438 -0.3313  0.4365
 8785TIP3    H147846   6.087   1.291   5.359  0.8771 -0.1829  0.8171
 8785TIP3    H247847   5.951   1.244   5.407  0.1311  1.4886  0.4197
 8786TIP3   OH247848   5.762   6.467  17.133 -0.0943  0.1147  0.0679
 8786TIP3    H147849   5.714   6.493  17.212 -0.3426  2.0392 -0.6614
 8786TIP3    H247850   5.699   6.415  17.083 -0.2806 -0.2359  0.6643
 8787TIP3   OH247851   2.594   4.490   1.126  0.5950  0.0300  0.2465
 8787TIP3    H147852   2.666   4.466   1.069 -1.3652  0.9126 -2.8473
 8787TIP3    H247853   2.595   4.424   1.195  1.8636 -2.4183 -1.9363
 8788TIP3   OH247854   0.686   1.043   4.373 -0.3338 -0.4942 -0.7165
 8788TIP3    H147855   0.736   0.974   4.417 -0.5831 -0.1846  0.0663
 8788TIP3    H247856   0.747   1.080   4.309 -0.0673 -1.1564 -0.8567
 8789TIP3   OH247857   6.057   3.751   0.968  0.1240 -0.4152  0.1011
 8789TIP3    H147858   6.129   3.714   0.916  0.9207  0.0650  0.8321
 8789TIP3    H247859   6.004   3.676   0.993 -0.0286 -0.7058 -1.0207
 8790TIP3   OH247860   4.461   0.665   6.098 -0.1435  0.3823  0.1819
 8790TIP3    H147861   4.398   0.707   6.156 -2.7594 -0.4417 -1.8861
 8790TIP3    H247862   4.446   0.571   6.109 -1.2011  0.2019 -2.2178
 8791TIP3   OH247863   2.019   1.474  15.753 -0.3553 -0.9386 -0.0865
 8791TIP3    H147864   1.929   1.505  15.763 -0.1282 -0.6563  1.4084
 8791TIP3    H247865   2.035   1.420  15.830  1.1983  0.1905  0.4380
 8792TIP3   OH247866   5.755   4.875  12.396 -0.7923 -0.3104 -0.2760
 8792TIP3    H147867   5.739   4.838  12.309  1.8088 -0.6338 -0.7232
 8792TIP3    H247868   5.754   4.799  12.455 -0.0104 -0.4707 -0.4584
 8793TIP3   OH247869   5.171   1.659  16.918  0.4073  0.8296  0.0022
 8793TIP3    H147870   5.205   1.748  16.912  1.8855  0.3647  0.8513
 8793TIP3    H247871   5.190   1.633  17.009  1.2861 -0.8143 -0.6045
 8794TIP3   OH247872   0.982   0.898   5.886  0.0113  0.1864  0.2104
 8794TIP3    H147873   1.001   0.918   5.978  1.9337  1.9189 -0.4917
 8794TIP3    H247874   0.976   0.984   5.844  3.0973 -0.5140 -1.9681
 8795TIP3   OH247875   1.156   4.671   3.087  0.3780 -0.1171  0.7925
 8795TIP3    H147876   1.135   4.735   3.019 -0.2148  0.4462  1.4890
 8795TIP3    H247877   1.072   4.633   3.112  0.6641 -0.7734  0.7702
 8796TIP3   OH247878   1.983   3.811   3.372  0.2573 -0.0266  0.1677
 8796TIP3    H147879   1.941   3.897   3.366 -0.7366 -0.4624  0.6131
 8796TIP3    H247880   1.947   3.773   3.452  0.8012 -0.7988  0.0507
 8797TIP3   OH247881   4.755   4.866  16.328 -0.5052 -0.7086  0.8649
 8797TIP3    H147882   4.695   4.934  16.296  0.3076  0.0429  0.9056
 8797TIP3    H247883   4.835   4.913  16.350 -0.1332 -1.5997  1.4853
 8798TIP3   OH247884   4.632   4.518  10.392  0.0734  0.0914  0.1683
 8798TIP3    H147885   4.612   4.427  10.372 -0.0148 -0.0691  0.9438
 8798TIP3    H247886   4.547   4.563  10.387  0.0893  0.0957 -0.0465
 8799TIP3   OH247887   0.280   0.466   6.793  0.6099  0.0846 -0.2976
 8799TIP3    H147888   0.273   0.498   6.703  1.4458 -1.4385 -0.9423
 8799TIP3    H247889   0.199   0.497   6.835 -1.0100 -1.1975 -2.2424
 8800TIP3   OH247890   1.191   3.011   2.279  0.6009 -0.4136 -0.0654
 8800TIP3    H147891   1.184   3.093   2.230  0.6397 -1.0465 -1.1651
 8800TIP3    H247892   1.284   3.004   2.300  0.2865  0.9274  2.0426
 8801TIP3   OH247893   3.492   2.551   4.470 -0.0740 -0.3536 -0.2744
 8801TIP3    H147894   3.543   2.486   4.422  0.7157  0.6347 -0.8169
 8801TIP3    H247895   3.415   2.567   4.416  0.3100  0.0047 -0.7285
 8802TIP3   OH247896   5.076   2.337   0.740  0.4864  0.2650 -0.1800
 8802TIP3    H147897   5.114   2.292   0.816  2.6335  0.4747 -1.0517
 8802TIP3    H247898   5.005   2.389   0.776  0.6644 -0.5770  1.4902
 8803TIP3   OH247899   1.952   6.768  13.763  0.6463  0.9185  0.0382
 8803TIP3    H147900   1.941   6.690  13.817 -0.5193 -0.4095 -2.0033
 8803TIP3    H247901   1.919   6.743  13.677 -0.6240  3.9390 -0.4841
 8804TIP3   OH247902   3.578   5.374  16.824 -0.2205  0.0635 -0.3550
 8804TIP3    H147903   3.486   5.348  16.822 -0.6176  1.3802 -0.6731
 8804TIP3    H247904   3.618   5.318  16.890 -1.1676 -0.7783 -0.4775
 8805TIP3   OH247905   4.454   3.431  15.020  0.5184  0.4835  0.6485
 8805TIP3    H147906   4.528   3.402  15.073  0.5145  0.2424  0.5235
 8805TIP3    H247907   4.490   3.503  14.968 -0.1957  2.6914  3.0006
 8806TIP3   OH247908   5.732   2.134   0.145 -0.1232  0.1146  1.0681
 8806TIP3    H147909   5.672   2.124   0.219 -1.2426  0.7485  0.2773
 8806TIP3    H247910   5.748   2.044   0.115 -1.6800 -0.0113  0.5288
 8807TIP3   OH247911   2.208   4.296   0.120 -0.3524 -0.4639  0.3334
 8807TIP3    H147912   2.126   4.308   0.169  0.2589  0.2106  1.2151
 8807TIP3    H247913   2.258   4.376   0.137  1.1213 -1.5031  1.0290
 8808TIP3   OH247914   3.853   0.380  15.061 -0.2609  0.0069  0.2984
 8808TIP3    H147915   3.762   0.351  15.067 -1.0191  1.8390 -1.2243
 8808TIP3    H247916   3.849   0.462  15.013  2.2670 -0.1162 -0.2855
 8809TIP3   OH247917   0.171   4.337  11.541  0.3271  0.3503 -0.8154
 8809TIP3    H147918   0.123   4.258  11.514 -0.2417  0.7485 -0.9796
 8809TIP3    H247919   0.199   4.377  11.459  0.2441  0.5497 -0.7470
 8810TIP3   OH247920   4.872   6.457  15.120  0.2068  0.8217  0.0645
 8810TIP3    H147921   4.807   6.387  15.111  0.4614  0.4770  0.7913
 8810TIP3    H247922   4.837   6.529  15.068 -0.4217  0.4036 -0.1062
 8811TIP3   OH247923   4.346   6.161   3.954  0.0382 -0.0121  0.0280
 8811TIP3    H147924   4.430   6.202   3.974  1.3396 -1.2565 -2.4448
 8811TIP3    H247925   4.288   6.234   3.932  0.2811  0.8866  2.1178
 8812TIP3   OH247926   1.508   1.665   5.130  0.0903 -0.8037  0.2745
 8812TIP3    H147927   1.468   1.586   5.166 -0.2288 -0.8554 -0.1798
 8812TIP3    H247928   1.469   1.674   5.043 -1.4554  0.9927  1.0742
 8813TIP3   OH247929   4.389   4.796   0.801 -0.6755  0.1198  0.0385
 8813TIP3    H147930   4.350   4.713   0.774  0.1791 -1.2319  2.6761
 8813TIP3    H247931   4.333   4.828   0.871  0.2915  0.5599  0.6413
 8814TIP3   OH247932   6.295   0.552  16.617 -0.0312 -0.3155  0.1862
 8814TIP3    H147933   6.229   0.512  16.673 -1.2988  0.5980 -0.5830
 8814TIP3    H247934   6.370   0.566  16.674 -1.4371  1.0185  1.8239
 8815TIP3   OH247935   5.316   2.823   0.737  0.4518 -0.2906 -0.0553
 8815TIP3    H147936   5.334   2.777   0.819  0.7277  0.2906  0.2151
 8815TIP3    H247937   5.247   2.771   0.696  0.0994 -0.4302  0.6836
 8816TIP3   OH247938   1.511   4.780  14.130  0.3288 -0.4013  0.4185
 8816TIP3    H147939   1.431   4.809  14.174 -0.2317  2.0882 -2.0267
 8816TIP3    H247940   1.579   4.837  14.164  0.6351 -0.9438  0.7374
 8817TIP3   OH247941   1.858   3.229   5.276 -0.3335  0.3269  0.0503
 8817TIP3    H147942   1.853   3.306   5.220 -0.1156 -0.0847 -0.5491
 8817TIP3    H247943   1.780   3.234   5.331 -1.3446  0.0008 -1.2825
 8818TIP3   OH247944   2.237   2.280  12.108  0.4291  0.1082 -0.1831
 8818TIP3    H147945   2.199   2.352  12.058  1.7306  1.5505  0.8581
 8818TIP3    H247946   2.269   2.319  12.189 -0.0246 -1.8708  1.0376
 8819TIP3   OH247947   1.043   1.121  11.298 -0.4714 -0.0625 -0.1475
 8819TIP3    H147948   1.074   1.066  11.226  0.3406 -0.7753  0.7032
 8819TIP3    H247949   1.021   1.205  11.258 -1.1191 -0.8001 -1.3868
 8820TIP3   OH247950   2.449   0.543  16.520 -0.1228 -0.0594 -0.0158
 8820TIP3    H147951   2.530   0.544  16.468 -0.2361  0.3277 -0.1879
 8820TIP3    H247952   2.472   0.493  16.598  0.3590  0.2577  0.0522
 8821TIP3   OH247953   0.940   5.707  12.823 -0.7897 -0.0683 -0.0785
 8821TIP3    H147954   0.874   5.652  12.864 -0.8665  0.1859  0.1460
 8821TIP3    H247955   1.020   5.655  12.825 -1.2240 -0.8238 -1.3685
 8822TIP3   OH247956   0.220   1.781  15.975 -0.8444  0.1381  0.7379
 8822TIP3    H147957   0.132   1.794  15.939 -0.5539  0.4883  0.1374
 8822TIP3    H247958   0.207   1.780  16.070 -1.2888  1.9082  0.7335
 8823TIP3   OH247959   5.996   4.391   1.973 -0.0692  0.0816 -0.5414
 8823TIP3    H147960   5.970   4.460   2.035 -0.9487  2.3229 -3.1917
 8823TIP3    H247961   6.090   4.381   1.986  0.0342  1.6197  0.1463
 8824TIP3   OH247962   5.729   5.617  14.933 -0.2814  0.1540 -0.3843
 8824TIP3    H147963   5.775   5.627  14.850 -2.0171 -0.5201 -1.4874
 8824TIP3    H247964   5.727   5.705  14.970  0.0944  0.5563 -1.2872
 8825TIP3   OH247965   1.093   4.456  13.347  0.2792 -0.5300  0.0298
 8825TIP3    H147966   1.075   4.457  13.441 -0.6533 -0.0496 -0.1447
 8825TIP3    H247967   1.031   4.391  13.311 -2.1958  2.0533 -0.7513
 8826TIP3   OH247968   0.922   0.265  11.820 -0.0026 -0.2042 -0.4097
 8826TIP3    H147969   0.964   0.273  11.735 -0.3327  1.9092 -0.4301
 8826TIP3    H247970   0.842   0.317  11.812  0.4312  0.8396  1.4491
 8827TIP3   OH247971   1.979   0.436  16.067  0.3117 -0.0355  0.0772
 8827TIP3    H147972   2.044   0.500  16.038  1.9891 -1.5274  0.3782
 8827TIP3    H247973   1.930   0.481  16.136  0.9436  1.1788 -0.2380
 8828TIP3   OH247974   4.481   3.755  16.625 -0.6845  0.2325  0.1041
 8828TIP3    H147975   4.444   3.775  16.540  0.0671  0.3123 -0.2133
 8828TIP3    H247976   4.559   3.702  16.606  0.6515  1.9096  0.5942
 8829TIP3   OH247977   6.483   2.563   3.002  0.2512 -0.2571  0.0473
 8829TIP3    H147978   6.433   2.574   3.083  0.1961 -0.7238  0.0791
 8829TIP3    H247979   6.550   2.631   3.005 -0.0003 -0.0204  0.2971
 8830TIP3   OH247980   1.284   5.696   3.015 -0.5482  0.1047 -0.3176
 8830TIP3    H147981   1.291   5.662   3.104 -1.3086 -0.4803 -0.4693
 8830TIP3    H247982   1.191   5.685   2.992 -0.1787 -0.6708 -1.5464
 8831TIP3   OH247983   1.172   0.605   3.651 -0.2414 -0.2600  0.0897
 8831TIP3    H147984   1.184   0.588   3.744 -1.0751  0.6533  0.3703
 8831TIP3    H247985   1.196   0.697   3.639 -1.7566  0.1159 -0.2729
 8832TIP3   OH247986   2.646   2.878   5.244 -0.1320  0.1412  0.3639
 8832TIP3    H147987   2.635   2.854   5.336 -0.6915  0.4494  0.3800
 8832TIP3    H247988   2.702   2.956   5.247 -0.1497  0.1513  0.4441
 8833TIP3   OH247989   4.383   6.281  13.575  0.2147 -0.0283 -0.0222
 8833TIP3    H147990   4.290   6.257  13.575  0.2934 -0.3450  0.4002
 8833TIP3    H247991   4.383   6.376  13.563 -0.1681 -0.0173  0.0491
 8834TIP3   OH247992   0.815   1.064   1.187  0.3104  0.2217  0.0648
 8834TIP3    H147993   0.742   1.080   1.248  0.2266  2.6448 -0.5586
 8834TIP3    H247994   0.772   1.043   1.104  0.2996  1.3636 -0.2312
 8835TIP3   OH247995   2.764   2.048  15.749  0.0360 -0.1072  0.0569
 8835TIP3    H147996   2.759   2.094  15.665 -0.3079 -0.9359 -0.3845
 8835TIP3    H247997   2.707   1.973  15.739 -0.9725  0.4244  1.4668
 8836TIP3   OH247998   0.863   5.982  13.255  0.1133  0.0152  0.1835
 8836TIP3    H147999   0.807   6.048  13.296 -2.8782 -0.9300 -2.0472
 8836TIP3    H248000   0.878   6.014  13.166  1.1233 -0.9230 -0.0084
 8837TIP3   OH248001   3.726   2.892  16.955  0.5402 -0.0281  0.6664
 8837TIP3    H148002   3.672   2.817  16.980  0.8814 -0.7911 -0.8384
 8837TIP3    H248003   3.733   2.887  16.860 -1.4626  3.2801  0.1628
 8838TIP3   OH248004   1.337   0.407  12.571  0.2565  0.1336  0.6999
 8838TIP3    H148005   1.382   0.327  12.598 -0.1282 -1.7468 -3.5230
 8838TIP3    H248006   1.407   0.468  12.549  0.6168 -0.1636  1.0073
 8839TIP3   OH248007   1.989   6.446   0.063  0.0638  0.0378  0.4610
 8839TIP3    H148008   2.072   6.415   0.028 -0.4921  0.4873 -1.3222
 8839TIP3    H248009   1.934   6.461  -0.013 -2.2594 -1.8065  1.6412
 8840TIP3   OH248010   3.700   2.891  11.015 -0.2846  0.0056  0.3778
 8840TIP3    H148011   3.667   2.938  11.092  0.1267 -0.3634  0.7871
 8840TIP3    H248012   3.703   2.800  11.042 -3.4294 -0.6979 -1.1978
 8841TIP3   OH248013   6.394   5.283   4.700 -0.3197  0.3020  0.6929
 8841TIP3    H148014   6.470   5.340   4.697 -0.3907  0.3400 -0.8194
 8841TIP3    H248015   6.369   5.270   4.609 -2.7235  1.0900  1.1695
 8842TIP3   OH248016   0.981   1.335   4.527 -0.0022 -0.2866  0.1171
 8842TIP3    H148017   1.018   1.292   4.603  0.1688 -0.1996  0.0834
 8842TIP3    H248018   0.905   1.382   4.560  0.4391  0.2749  0.3523
 8843TIP3   OH248019   5.444   4.160   5.417 -0.0391 -0.0522 -0.7663
 8843TIP3    H148020   5.381   4.227   5.446  0.8031 -0.0126  1.1350
 8843TIP3    H248021   5.474   4.192   5.332  0.2959  2.0093  0.0510
 8844TIP3   OH248022   5.173   6.414  13.156 -0.4679 -0.1173 -0.1491
 8844TIP3    H148023   5.120   6.407  13.077 -1.6487  0.5740  0.5635
 8844TIP3    H248024   5.114   6.390  13.228 -0.2900  2.0014  0.8018
 8845TIP3   OH248025   0.360   1.055   2.213  0.3313  0.0616  0.1377
 8845TIP3    H148026   0.316   1.039   2.129 -1.5493  0.7169  0.9415
 8845TIP3    H248027   0.344   0.975   2.264 -0.0193  0.3271  0.4551
 8846TIP3   OH248028   3.881   4.647  11.148 -0.4803  0.0513  0.0750
 8846TIP3    H148029   3.942   4.580  11.118 -0.2959  0.3039 -0.1207
 8846TIP3    H248030   3.794   4.606  11.141 -0.4362  0.0748 -0.7289
 8847TIP3   OH248031   1.785   0.361   0.382  0.3591 -0.6833  0.8182
 8847TIP3    H148032   1.839   0.305   0.327  0.2396  0.6759 -0.7734
 8847TIP3    H248033   1.700   0.365   0.337  0.8029  1.8947 -0.0075
 8848TIP3   OH248034   5.689   4.059   6.085 -0.3887  0.2190 -0.2533
 8848TIP3    H148035   5.649   4.061   6.171 -2.0256 -0.3867 -0.9568
 8848TIP3    H248036   5.711   3.967   6.070  1.1717  0.5131  0.0442
 8849TIP3   OH248037   3.489   3.974  15.972  0.7710  0.2896 -0.3816
 8849TIP3    H148038   3.395   3.989  15.984  0.8075  0.3963 -0.2249
 8849TIP3    H248039   3.500   3.879  15.979  1.1499  0.4675  3.1716
 8850TIP3   OH248040   4.344   0.741  14.460  0.1600 -0.0639 -0.1705
 8850TIP3    H148041   4.416   0.717  14.518  0.0016 -0.0267  0.0388
 8850TIP3    H248042   4.360   0.833  14.439  0.3942 -0.1647 -0.4407
 8851TIP3   OH248043   3.582   3.834  14.452 -0.0980  0.1346  0.6851
 8851TIP3    H148044   3.606   3.779  14.526 -1.7252  1.6883  2.4992
 8851TIP3    H248045   3.637   3.803  14.380  3.0909 -0.1275  3.0116
 8852TIP3   OH248046   6.217   2.078  13.107  0.1101  0.5960  0.2097
 8852TIP3    H148047   6.204   1.984  13.120  2.3400 -0.1064 -1.9446
 8852TIP3    H248048   6.279   2.103  13.175  0.4623  0.2227  0.0292
 8853TIP3   OH248049   6.483   2.927   1.463  0.0833  0.3592 -0.2627
 8853TIP3    H148050   6.565   2.879   1.459  0.9092  1.5189  1.4657
 8853TIP3    H248051   6.421   2.874   1.413  0.5701 -3.1574  2.4716
 8854TIP3   OH248052   6.341   4.600  12.319  0.2636  0.6031  0.3205
 8854TIP3    H148053   6.264   4.599  12.375 -0.7366  2.3454 -0.9025
 8854TIP3    H248054   6.315   4.552  12.240  0.4552  1.0800 -0.0413
 8855TIP3   OH248055   0.189   1.520   1.186  0.4267 -0.0714  0.2840
 8855TIP3    H148056   0.229   1.590   1.134 -0.8145 -0.1403 -0.7966
 8855TIP3    H248057   0.228   1.439   1.152  0.2756 -0.0549  0.0734
 8856TIP3   OH248058   0.838   6.462   0.904  0.0019 -0.0055  0.0288
 8856TIP3    H148059   0.780   6.528   0.943  0.5607 -0.0566  0.9838
 8856TIP3    H248060   0.786   6.381   0.906 -0.0397  0.0282  0.5271
 8857TIP3   OH248061   6.122   0.671  16.231 -0.5445 -0.2879  0.4164
 8857TIP3    H148062   6.082   0.603  16.177 -0.0668 -0.9232  0.8479
 8857TIP3    H248063   6.213   0.675  16.201 -0.2328 -0.7662  1.2842
 8858TIP3   OH248064   4.018   4.608  13.728  0.2977  0.1049  1.0772
 8858TIP3    H148065   4.007   4.627  13.635  1.6086  1.7121  1.1987
 8858TIP3    H248066   4.048   4.517  13.731 -0.1805 -0.1048 -0.0249
 8859TIP3   OH248067   0.286   4.136  12.764  0.0015 -0.1305 -0.4076
 8859TIP3    H148068   0.295   4.065  12.701 -1.8299 -0.1084 -0.7469
 8859TIP3    H248069   0.339   4.206  12.729  1.0013 -0.9667 -0.6110
 8860TIP3   OH248070   1.983   1.646  16.970  0.0641  0.2954 -0.2100
 8860TIP3    H148071   2.023   1.716  17.021  0.5957 -0.8691  1.0286
 8860TIP3    H248072   2.047   1.628  16.901  1.1752 -0.6816  1.0006
 8861TIP3   OH248073   3.376   5.794  12.908  0.5127 -0.0284 -0.1817
 8861TIP3    H148074   3.343   5.814  12.995 -1.0357 -0.0354 -0.7377
 8861TIP3    H248075   3.471   5.806  12.915  0.3357  0.7259  1.2899
 8862TIP3   OH248076   0.629   2.174   1.105 -0.8846 -0.0903 -0.0771
 8862TIP3    H148077   0.620   2.265   1.076  0.4425  0.1468  0.1759
 8862TIP3    H248078   0.663   2.182   1.194 -0.3727 -0.8399 -0.2042
 8863TIP3   OH248079   5.010   0.079   4.369 -0.5604  0.4577 -0.5264
 8863TIP3    H148080   4.925   0.060   4.406 -0.7995 -1.1190 -1.8009
 8863TIP3    H248081   4.995   0.154   4.311 -1.4251 -0.6877 -1.8374
 8864TIP3   OH248082   0.799   5.508  15.220  0.2307  0.5727 -0.2256
 8864TIP3    H148083   0.842   5.582  15.178  1.1120  0.2794  0.1444
 8864TIP3    H248084   0.746   5.469  15.150  1.4005  0.3064 -0.9923
 8865TIP3   OH248085   5.297   4.772  11.338 -0.0485  0.6254 -0.4867
 8865TIP3    H148086   5.270   4.832  11.268 -1.1334 -0.0755 -0.6772
 8865TIP3    H248087   5.292   4.685  11.299 -0.0717  0.2700  0.2911
 8866TIP3   OH248088   1.980   3.985  13.967 -0.6300  0.5957 -0.0785
 8866TIP3    H148089   1.961   3.927  13.893 -0.1597  2.0659 -1.4193
 8866TIP3    H248090   1.898   3.989  14.016 -0.9848 -0.3289 -0.5601
 8867TIP3   OH248091   1.369   3.598  12.264 -0.0065 -0.0879 -0.0890
 8867TIP3    H148092   1.278   3.615  12.239 -1.1879 -0.8641  3.2099
 8867TIP3    H248093   1.378   3.503  12.257 -0.4428 -0.3624  2.2762
 8868TIP3   OH248094   4.395   3.253  13.872 -0.1130 -0.7323 -0.2955
 8868TIP3    H148095   4.346   3.253  13.954 -2.2538  1.2551 -1.4690
 8868TIP3    H248096   4.480   3.292  13.895 -0.0044 -1.7670  1.2427
 8869TIP3   OH248097   5.967   4.984   2.480  0.4463  0.1051  0.2293
 8869TIP3    H148098   5.940   5.023   2.563 -0.8349  1.5934 -0.8201
 8869TIP3    H248099   6.005   5.057   2.431  0.7799 -0.6462 -0.6570
 8870TIP3   OH248100   3.191   4.213  17.009 -0.3100 -0.2595 -0.3436
 8870TIP3    H148101   3.130   4.227  16.937 -0.8923  1.8549  0.5189
 8870TIP3    H248102   3.271   4.181  16.966 -1.1665 -0.5885 -1.7428
 8871TIP3   OH248103   1.962   5.727   6.275  0.0501 -0.0928 -0.0926
 8871TIP3    H148104   1.977   5.822   6.281  0.3744 -0.1568  0.1617
 8871TIP3    H248105   1.933   5.702   6.362 -1.9807  0.0858 -0.6797
 8872TIP3   OH248106   0.682   4.704   3.001  0.0993 -0.1157 -0.5344
 8872TIP3    H148107   0.612   4.641   3.016 -0.8752  1.3124  1.2725
 8872TIP3    H248108   0.665   4.738   2.913  0.5133 -2.1287 -1.4498
 8873TIP3   OH248109   3.944   4.875   2.588 -0.0972 -0.7858 -0.2408
 8873TIP3    H148110   3.946   4.845   2.679  0.0521  1.3338  0.5165
 8873TIP3    H248111   3.856   4.855   2.558 -0.2283 -1.2776  0.4538
 8874TIP3   OH248112   5.771   0.842  17.141  0.6376  0.1179  0.2630
 8874TIP3    H148113   5.723   0.842  17.058 -0.2126 -0.3400  0.7378
 8874TIP3    H248114   5.861   0.822  17.117  0.6770  1.3263 -0.6930
 8875TIP3   OH248115   4.508   5.800   0.798 -0.6485  0.3606 -0.1809
 8875TIP3    H148116   4.466   5.731   0.747  0.2206 -1.4241  1.3849
 8875TIP3    H248117   4.437   5.837   0.850 -1.0330  0.3135 -0.6607
 8876TIP3   OH248118   2.235   0.788  13.725 -0.1532 -0.5546 -0.5398
 8876TIP3    H148119   2.158   0.836  13.756  0.2810 -0.2192  0.0237
 8876TIP3    H248120   2.304   0.854  13.718  0.1364 -0.8883 -0.8704
 8877TIP3   OH248121   6.737   3.276   1.709  0.1670 -0.2661 -0.1621
 8877TIP3    H148122   6.689   3.346   1.751  1.4680  0.9341 -0.5890
 8877TIP3    H248123   6.676   3.203   1.706 -0.8880  0.5128  1.2090
 8878TIP3   OH248124   0.689   2.770   0.946  0.2402 -0.4773 -0.3705
 8878TIP3    H148125   0.611   2.802   0.901 -0.7393 -1.7279  0.4096
 8878TIP3    H248126   0.661   2.755   1.036  1.3403 -1.0975 -0.1154
 8879TIP3   OH248127   3.912   2.327  16.088  0.7252  0.6616 -0.0697
 8879TIP3    H148128   3.868   2.399  16.134 -0.0765  0.1663 -0.0367
 8879TIP3    H248129   3.901   2.348  15.995 -0.7619 -0.1167 -0.0981
 8880TIP3   OH248130   2.235   2.862   6.219  0.4252  0.5476  0.2437
 8880TIP3    H148131   2.154   2.865   6.169  1.1527  1.7051 -0.9606
 8880TIP3    H248132   2.221   2.922   6.292 -0.2695 -0.3211  0.8381
 8881TIP3   OH248133   4.730   6.564  13.243  0.8512 -0.3358 -0.5768
 8881TIP3    H148134   4.817   6.599  13.257  0.5412 -0.2117  1.3474
 8881TIP3    H248135   4.683   6.632  13.195  0.3022  1.9973  2.9244
 8882TIP3   OH248136   3.239   2.162  13.715 -0.2390 -0.1440  0.2627
 8882TIP3    H148137   3.278   2.132  13.797 -0.2450 -1.3034 -0.1428
 8882TIP3    H248138   3.270   2.252  13.705  0.0392 -0.1076  1.3621
 8883TIP3   OH248139   2.040   0.564   5.263 -0.0741 -0.3998  0.1026
 8883TIP3    H148140   1.991   0.642   5.288 -1.1302 -1.2768  0.8663
 8883TIP3    H248141   2.095   0.544   5.339  0.4650 -0.2063 -0.2291
 8884TIP3   OH248142   2.111   2.934  12.538 -0.6934  0.2552  0.8175
 8884TIP3    H148143   2.052   2.919  12.611 -1.4098  1.8307  0.6010
 8884TIP3    H248144   2.068   2.892  12.463 -1.6082  1.4530  0.6459
 8885TIP3   OH248145   6.685   5.713   3.085  0.0397  0.0804 -0.0817
 8885TIP3    H148146   6.621   5.641   3.090 -0.6745  0.6881 -0.3477
 8885TIP3    H248147   6.651   5.770   3.017  1.2631  0.0458 -0.7279
 8886TIP3   OH248148   1.312   5.926  12.841 -0.1174  0.0379  0.0044
 8886TIP3    H148149   1.323   6.013  12.803 -0.6924  0.2664  0.3408
 8886TIP3    H248150   1.283   5.942  12.931  1.8385 -0.4888  0.7874
 8887TIP3   OH248151   5.038   2.250   5.525  0.4074  0.0295  0.5210
 8887TIP3    H148152   4.969   2.209   5.577  1.4592 -1.5738  0.6978
 8887TIP3    H248153   5.021   2.220   5.436 -0.2846  1.2814  0.1953
 8888TIP3   OH248154   0.053   5.515  11.781 -0.0644 -0.1538  0.1480
 8888TIP3    H148155   0.147   5.517  11.761 -0.2429 -0.2782 -0.7517
 8888TIP3    H248156   0.020   5.599  11.749 -0.0154  0.5607  1.8482
 8889TIP3   OH248157   5.166   4.922   4.307 -0.1525  0.2776 -0.1682
 8889TIP3    H148158   5.175   5.009   4.268 -0.7520 -0.4743 -2.1214
 8889TIP3    H248159   5.168   4.863   4.232 -0.2428 -1.3674  1.0827
 8890TIP3   OH248160   5.358   5.264  11.501  0.1239  0.2039 -0.1612
 8890TIP3    H148161   5.379   5.297  11.414  1.4300  0.4241  0.2079
 8890TIP3    H248162   5.301   5.188  11.486 -0.2494  0.6704 -1.1590
 8891TIP3   OH248163   5.836   2.383  14.836  0.0710 -0.5040  0.1917
 8891TIP3    H148164   5.897   2.432  14.781  1.5891 -1.5821  0.8393
 8891TIP3    H248165   5.843   2.424  14.923 -1.7051  0.6717 -0.1730
 8892TIP3   OH248166   0.319   4.596   6.032 -0.2626 -0.3133  0.5339
 8892TIP3    H148167   0.351   4.593   6.122 -0.3503 -1.9567  0.5275
 8892TIP3    H248168   0.274   4.681   6.026  0.6085  0.2542  1.7242
 8893TIP3   OH248169   2.737   3.533  15.811  0.4223 -0.1766 -0.4127
 8893TIP3    H148170   2.678   3.458  15.822  2.2253 -1.5905  0.2495
 8893TIP3    H248171   2.692   3.606  15.854 -0.5776 -1.3571  0.6367
 8894TIP3   OH248172   5.435   0.178   4.733  0.0636 -0.4877 -0.2725
 8894TIP3    H148173   5.412   0.263   4.695  1.2228 -0.0583 -0.0366
 8894TIP3    H248174   5.410   0.114   4.667 -1.0507  0.0088 -0.3551
 8895TIP3   OH248175   6.166   6.514   1.222  0.7557  0.1982  0.1377
 8895TIP3    H148176   6.086   6.547   1.182  0.7998 -0.5679 -0.6184
 8895TIP3    H248177   6.147   6.422   1.241  0.8301  0.4681  1.6664
 8896TIP3   OH248178   4.164   5.070   3.831 -0.1120  0.2930  0.2738
 8896TIP3    H148179   4.235   5.006   3.822  0.4757  0.5466  2.5183
 8896TIP3    H248180   4.198   5.149   3.790 -0.2916 -0.3864 -1.2690
 8897TIP3   OH248181   0.171   4.075   0.851  0.0723 -0.3875 -0.0148
 8897TIP3    H148182   0.107   4.139   0.882  0.6243  0.2301 -0.1346
 8897TIP3    H248183   0.184   4.017   0.926  3.0747  2.3698  1.9123
 8898TIP3   OH248184   1.324   0.505   6.480  0.1821 -0.0449 -0.9504
 8898TIP3    H148185   1.271   0.426   6.478 -0.3945  0.3477 -1.2629
 8898TIP3    H248186   1.269   0.570   6.523  0.5096  0.2932 -1.0353
 8899TIP3   OH248187   3.015   2.245   4.182 -0.5447  0.2872 -0.4392
 8899TIP3    H148188   2.937   2.200   4.152  1.8262 -4.1242 -0.8112
 8899TIP3    H248189   3.017   2.229   4.277 -0.6000  1.3485 -0.2447
 8900TIP3   OH248190   1.518   4.682   4.751  0.2350 -0.0460  0.2841
 8900TIP3    H148191   1.430   4.702   4.720 -0.3103 -0.5211  1.4487
 8900TIP3    H248192   1.522   4.723   4.838  1.7490  1.3766 -0.4015
 8901TIP3   OH248193   0.286   2.330  10.574  0.0223  0.7236 -0.8271
 8901TIP3    H148194   0.356   2.284  10.528  0.4460  2.0237 -1.5205
 8901TIP3    H248195   0.227   2.260  10.602  0.8165 -0.2731 -1.5309
 8902TIP3   OH248196   5.368   2.501  14.241  0.1998  0.0046  0.1879
 8902TIP3    H148197   5.350   2.452  14.321  0.3347 -1.3986 -0.6001
 8902TIP3    H248198   5.379   2.433  14.174 -1.6753  1.1746 -1.3959
 8903TIP3   OH248199   4.957   4.468  11.881  0.5175 -0.3888  0.0551
 8903TIP3    H148200   5.006   4.456  11.800  0.3243  0.4274 -0.1905
 8903TIP3    H248201   4.955   4.380  11.921 -2.0385 -1.5384 -2.2952
 8904TIP3   OH248202   4.445   1.740   1.015  0.3250  0.2260  0.4800
 8904TIP3    H148203   4.378   1.676   1.037  1.7514 -2.1621 -1.5624
 8904TIP3    H248204   4.402   1.801   0.955  0.0006 -1.5470 -1.1924
 8905TIP3   OH248205   4.330   1.807   3.962  0.5464 -0.2359 -0.7586
 8905TIP3    H148206   4.337   1.874   3.894  0.3319  2.2623  1.5205
 8905TIP3    H248207   4.243   1.769   3.950  0.2821  0.5833 -1.4951
 8906TIP3   OH248208   5.305   5.075  17.176  0.2527 -0.6107 -0.4910
 8906TIP3    H148209   5.376   5.139  17.172 -0.9069  0.7452 -0.4332
 8906TIP3    H248210   5.232   5.124  17.214 -0.3901 -2.2824  0.5215
 8907TIP3   OH248211   6.749   6.771   0.081 -0.4410 -0.0381  0.2099
 8907TIP3    H148212   6.825   6.713   0.082  0.2457  0.8363  1.0953
 8907TIP3    H248213   6.698   6.743   0.005  1.7993  0.7098 -1.6653
 8908TIP3   OH248214   4.784   6.725  13.838 -0.1976 -0.5935  0.3173
 8908TIP3    H148215   4.734   6.778  13.899  0.3375  1.0676 -0.6314
 8908TIP3    H248216   4.719   6.667  13.798 -0.5564 -1.6816  2.3709
 8909TIP3   OH248217   3.758   4.952   1.945  0.6292  0.0505  0.3016
 8909TIP3    H148218   3.681   5.004   1.923 -0.5605 -1.0707  1.6435
 8909TIP3    H248219   3.788   4.917   1.861 -1.1521 -0.5918 -0.1049
 8910TIP3   OH248220   4.169   0.113   3.142  0.5015 -0.1687 -0.1504
 8910TIP3    H148221   4.242   0.050   3.134  1.1164  0.7483 -2.5901
 8910TIP3    H248222   4.091   0.061   3.122  0.4668 -1.0212  1.8919
 8911TIP3   OH248223   3.302   3.291  12.445  0.0950  0.4474  0.2894
 8911TIP3    H148224   3.207   3.285  12.447  0.0852 -0.0828 -0.9163
 8911TIP3    H248225   3.330   3.273  12.535 -1.0372  2.8684  1.1999
 8912TIP3   OH248226   5.371   1.082   5.718  0.0956 -0.0402 -0.5285
 8912TIP3    H148227   5.292   1.122   5.681 -0.2941  2.1344  2.3048
 8912TIP3    H248228   5.338   1.006   5.766 -0.0710 -0.0818 -0.7084
 8913TIP3   OH248229   2.694   6.326  15.216 -0.0084  0.0637 -0.3101
 8913TIP3    H148230   2.741   6.274  15.281  1.4013  0.4761 -0.9534
 8913TIP3    H248231   2.763   6.372  15.168 -1.0245  0.0936 -1.8182
 8914TIP3   OH248232   5.592   6.535   5.783  0.7950 -0.2096  0.0933
 8914TIP3    H148233   5.597   6.485   5.702  2.6732  0.0080  0.0356
 8914TIP3    H248234   5.568   6.624   5.755  2.5305  0.1471 -0.4064
 8915TIP3   OH248235   2.568   3.404  12.204  0.0144 -0.2326  0.0607
 8915TIP3    H148236   2.646   3.411  12.259 -0.0794 -0.3677  0.2124
 8915TIP3    H248237   2.529   3.491  12.207 -0.1240 -0.3048  0.4085
 8916TIP3   OH248238   4.421   4.616  16.257 -0.4967 -0.5257  0.4777
 8916TIP3    H148239   4.355   4.631  16.190  0.1741 -1.2663 -0.3768
 8916TIP3    H248240   4.424   4.698  16.308  0.8893  1.1464 -2.0862
 8917TIP3   OH248241   5.066   0.356  14.313  0.0323  0.1909 -0.4932
 8917TIP3    H148242   5.137   0.311  14.359 -1.7231 -2.4140 -0.0761
 8917TIP3    H248243   5.079   0.335  14.221  0.0088 -0.0031 -0.4528
 8918TIP3   OH248244   4.334   3.263   4.783  0.5133 -0.2783  0.7509
 8918TIP3    H148245   4.354   3.235   4.694  0.2515 -0.9403  0.8911
 8918TIP3    H248246   4.391   3.338   4.798 -1.7340  1.9795 -1.1263
 8919TIP3   OH248247   3.285   1.162   0.194  0.2556 -0.1349  0.1907
 8919TIP3    H148248   3.339   1.106   0.250 -1.0049 -1.4473  0.1460
 8919TIP3    H248249   3.255   1.105   0.124 -2.4292  0.1111  1.0338
 8920TIP3   OH248250   0.066   0.218  12.671 -0.0726  0.0038  0.5269
 8920TIP3    H148251   0.099   0.299  12.632  0.9801 -0.6194  0.0546
 8920TIP3    H248252   0.108   0.213  12.757  0.0253 -0.1343  0.4721
 8921TIP3   OH248253   5.538   0.106  15.938  0.0614 -0.4179  0.1850
 8921TIP3    H148254   5.593   0.160  15.995 -1.3794 -1.4389  2.7163
 8921TIP3    H248255   5.450   0.140  15.949 -0.4231 -1.3713 -0.5545
 8922TIP3   OH248256   1.240   3.380  15.636 -0.7809  0.2905  0.2242
 8922TIP3    H148257   1.165   3.325  15.613  1.2433 -2.2511 -0.8785
 8922TIP3    H248258   1.313   3.318  15.647  1.1055  2.5789  1.6076
 8923TIP3   OH248259   1.732   5.563   5.070 -0.2682  0.0099  0.1101
 8923TIP3    H148260   1.797   5.541   5.137 -0.0121  1.6745  0.4628
 8923TIP3    H248261   1.768   5.641   5.027 -1.9301  0.8694  0.2063
 8924TIP3   OH248262   1.954   3.326  12.104  0.0496  0.5042  0.6585
 8924TIP3    H148263   1.977   3.288  12.188 -1.5969 -2.9355 -0.2848
 8924TIP3    H248264   2.005   3.276  12.040  0.5911  2.4464 -0.5416
 8925TIP3   OH248265   0.958   2.431   6.146  0.0594  0.1847 -0.0574
 8925TIP3    H148266   0.893   2.396   6.206 -0.3759  1.2173  0.0783
 8925TIP3    H248267   0.928   2.404   6.059  0.9116 -1.6742  0.1648
 8926TIP3   OH248268   3.560   3.732  16.992  0.9655 -0.4898 -0.1713
 8926TIP3    H148269   3.505   3.665  16.952 -0.1275  0.4700 -0.3243
 8926TIP3    H248270   3.573   3.798  16.923  1.8345 -0.4177  0.0429
 8927TIP3   OH248271   0.386   2.927  14.626 -0.0809  0.2313 -0.3538
 8927TIP3    H148272   0.316   2.876  14.668 -0.0127 -0.9534 -1.6080
 8927TIP3    H248273   0.436   2.862  14.577  0.6513  1.3779 -1.1699
 8928TIP3   OH248274   3.123   6.673  15.612  0.2910 -0.3882  0.3775
 8928TIP3    H148275   3.110   6.698  15.704  0.4672  1.2122 -0.0035
 8928TIP3    H248276   3.200   6.616  15.614  0.6731  0.1363  1.1570
 8929TIP3   OH248277   3.887   6.319   3.664  0.1149  0.7038 -0.4899
 8929TIP3    H148278   3.809   6.346   3.615  1.0763 -0.1706 -2.6651
 8929TIP3    H248279   3.900   6.228   3.639  0.4719  0.0636  1.7942
 8930TIP3   OH248280   0.518   4.314   3.278 -0.1299 -0.7285  0.1537
 8930TIP3    H148281   0.612   4.330   3.269 -0.4497  0.2636 -2.1470
 8930TIP3    H248282   0.486   4.388   3.330  0.2723 -0.7007  0.3631
 8931TIP3   OH248283   5.251   3.248   4.535  0.4457  0.0118  0.1722
 8931TIP3    H148284   5.280   3.267   4.445 -1.2406 -0.1199 -0.4292
 8931TIP3    H248285   5.163   3.212   4.525  0.7668 -1.3491  1.7983
 8932TIP3   OH248286   6.780   1.356  11.988  0.1816 -0.3129 -0.0442
 8932TIP3    H148287   6.769   1.367  11.894 -0.5581  1.4055  0.2013
 8932TIP3    H248288   6.692   1.342  12.021  0.4114 -0.6738  0.4281
 8933TIP3   OH248289   3.020   5.518   4.504  0.2317 -0.2369 -0.0535
 8933TIP3    H148290   2.959   5.444   4.515 -0.2893 -0.0321 -1.4515
 8933TIP3    H248291   3.089   5.502   4.569 -0.6928 -1.1086  0.7407
 8934TIP3   OH248292   4.454   2.468  11.770 -0.4111  0.3211  0.2822
 8934TIP3    H148293   4.387   2.524  11.729 -0.4806 -0.1627 -0.2801
 8934TIP3    H248294   4.521   2.529  11.799  0.0688  0.6327 -1.3649
 8935TIP3   OH248295   5.535   4.046  17.160  0.3890 -0.6468  0.4497
 8935TIP3    H148296   5.594   4.016  17.091 -0.4869 -2.5466  0.4691
 8935TIP3    H248297   5.569   4.131  17.185  1.2741 -0.3160 -1.6792
 8936TIP3   OH248298   6.079   4.315  11.587 -0.4612  0.1551 -0.0538
 8936TIP3    H148299   6.170   4.310  11.616 -0.3844  1.0043 -0.1186
 8936TIP3    H248300   6.027   4.307  11.667 -0.3503 -0.7007 -0.0571
 8937TIP3   OH248301   0.174   2.363   2.969 -0.3508  0.2450 -0.4160
 8937TIP3    H148302   0.209   2.356   3.058 -0.5690  0.9623 -0.2645
 8937TIP3    H248303   0.134   2.450   2.966  0.0032  0.3881 -1.3462
 8938TIP3   OH248304   4.497   2.366   5.655 -0.2407 -0.2186 -0.0427
 8938TIP3    H148305   4.465   2.304   5.721  2.1186 -2.4631 -0.8565
 8938TIP3    H248306   4.430   2.364   5.587  0.4846 -3.2737 -0.8168
 8939TIP3   OH248307   3.018   5.270   5.435  0.3114  0.4127  0.3993
 8939TIP3    H148308   3.057   5.256   5.521  1.8233  1.9604  0.0062
 8939TIP3    H248309   2.923   5.271   5.451  0.5693  0.6023  2.0242
 8940TIP3   OH248310   0.788   1.517   4.625  0.3267 -0.4415 -0.1737
 8940TIP3    H148311   0.711   1.569   4.603  0.1403 -0.2663  0.8736
 8940TIP3    H248312   0.845   1.577   4.673 -0.2138 -1.3769  1.7020
 8941TIP3   OH248313   0.132   6.501  11.178  0.6262 -0.1015 -0.4598
 8941TIP3    H148314   0.046   6.459  11.167  0.2038 -0.1188  2.1700
 8941TIP3    H248315   0.184   6.436  11.226  1.2350  0.9034  0.2766
 8942TIP3   OH248316   5.307   3.699   4.872 -0.0515 -0.1053  0.7470
 8942TIP3    H148317   5.216   3.705   4.845  0.3745  0.3873 -0.6684
 8942TIP3    H248318   5.304   3.656   4.958 -1.5539 -0.6813  0.4340
 8943TIP3   OH248319   1.353   2.741  12.081  0.6378 -0.1156  0.2094
 8943TIP3    H148320   1.417   2.673  12.105  0.1426 -1.0291 -0.9370
 8943TIP3    H248321   1.369   2.812  12.143  3.2002 -0.0412 -0.4150
 8944TIP3   OH248322   0.984   5.361  16.804 -0.9327  0.1094 -0.4451
 8944TIP3    H148323   1.020   5.308  16.733  0.0587  1.4975 -1.0058
 8944TIP3    H248324   0.937   5.432  16.760  1.1764  2.0089  0.1790
 8945TIP3   OH248325   2.309   2.106   4.882 -0.0439 -0.0767 -0.4792
 8945TIP3    H148326   2.324   2.094   4.976 -1.5130 -1.6477 -0.4031
 8945TIP3    H248327   2.294   2.017   4.849  1.0097  0.3841 -2.3261
 8946TIP3   OH248328   4.028   3.162  12.792  0.3187 -0.0657  0.3694
 8946TIP3    H148329   4.015   3.199  12.879  1.3088 -1.6053  1.2333
 8946TIP3    H248330   4.119   3.131  12.793  0.2744 -0.3110 -1.1375
 8947TIP3   OH248331   3.271   2.000   3.948 -0.1066  0.2908 -0.1231
 8947TIP3    H148332   3.288   1.939   3.875 -0.3134  1.0679 -0.8368
 8947TIP3    H248333   3.208   2.062   3.912  0.3092  1.0845  0.5115
 8948TIP3   OH248334   6.666   1.132  16.899  0.1858  0.2265 -0.2986
 8948TIP3    H148335   6.759   1.112  16.895 -0.1298 -1.3556 -0.5970
 8948TIP3    H248336   6.628   1.082  16.826 -0.8795  0.9777 -0.2856
 8949TIP3   OH248337   6.101   1.848  13.270  0.8770  0.3003 -0.1169
 8949TIP3    H148338   6.098   1.813  13.359  2.6596  1.9254  0.6664
 8949TIP3    H248339   6.020   1.899  13.261  0.2480 -0.6275  0.2244
 8950TIP3   OH248340   5.716   2.233  16.561  0.4237 -0.2632 -0.0774
 8950TIP3    H148341   5.798   2.184  16.570  0.6377  0.1524  0.2768
 8950TIP3    H248342   5.684   2.244  16.650  0.8661  1.0393 -0.0550
 8951TIP3   OH248343   4.875   2.488   5.330 -0.2611  0.2648 -0.0272
 8951TIP3    H148344   4.856   2.559   5.391 -1.0391 -0.5820  0.7372
 8951TIP3    H248345   4.794   2.438   5.325  0.1829 -0.4027 -0.7976
 8952TIP3   OH248346   5.502   5.017  13.439 -0.5860  0.0477 -0.2786
 8952TIP3    H148347   5.481   5.090  13.497  3.0426  0.0997  1.2399
 8952TIP3    H248348   5.474   4.939  13.487  1.3079  0.1640  1.1184
 8953TIP3   OH248349   1.596   0.787   1.295  0.3020 -0.1103 -0.0953
 8953TIP3    H148350   1.659   0.829   1.237  0.7476  1.5365  1.5081
 8953TIP3    H248351   1.517   0.840   1.287 -0.6026 -1.5299 -1.2639
 8954TIP3   OH248352   1.457   1.964  15.016  0.5720 -0.4111 -0.0867
 8954TIP3    H148353   1.377   2.010  14.987  1.9840  0.8519 -2.2653
 8954TIP3    H248354   1.497   2.024  15.079  0.5362 -0.3775 -0.0955
 8955TIP3   OH248355   0.637   3.224  14.559 -0.4853 -0.3779  0.2142
 8955TIP3    H148356   0.686   3.224  14.641 -0.3378  1.2185  0.1413
 8955TIP3    H248357   0.696   3.263  14.495 -0.2434 -2.4366 -0.9230
 8956TIP3   OH248358   5.543   3.386   4.926 -0.1512 -0.5516 -0.0448
 8956TIP3    H148359   5.531   3.299   4.964  0.8785 -0.1276  1.3543
 8956TIP3    H248360   5.524   3.446   4.998 -1.3940  0.4283 -1.1450
 8957TIP3   OH248361   3.011   0.771   4.339 -0.0634 -0.0755 -0.1431
 8957TIP3    H148362   3.060   0.848   4.370 -1.4620  1.6287 -1.8832
 8957TIP3    H248363   2.925   0.779   4.382 -0.6403  0.0752 -1.2866
 8958TIP3   OH248364   0.568   3.255   3.246  0.1252  0.3095 -0.3712
 8958TIP3    H148365   0.502   3.195   3.212  0.3196  0.6895 -1.4815
 8958TIP3    H248366   0.524   3.340   3.246  0.1092  0.3004  0.4074
 8959TIP3   OH248367   3.698   5.463   3.262  0.0351  0.6141 -0.3079
 8959TIP3    H148368   3.784   5.471   3.222 -0.1022  0.1791 -0.7078
 8959TIP3    H248369   3.715   5.443   3.353  0.3554  0.9734 -0.2881
 8960TIP3   OH248370   6.783   3.619   1.718 -0.0925  0.7400  0.3080
 8960TIP3    H148371   6.729   3.687   1.758 -0.1964  0.1148  1.2766
 8960TIP3    H248372   6.821   3.572   1.793 -0.2302 -0.4264 -0.3347
 8961TIP3   OH248373   1.192   3.942  14.594 -0.3238 -0.1676 -0.1935
 8961TIP3    H148374   1.241   3.916  14.671  0.3274 -1.5708 -1.0531
 8961TIP3    H248375   1.236   3.898  14.521  0.2101  2.5319 -1.6337
 8962TIP3   OH248376   0.370   0.897  16.346 -0.7339 -0.0922 -0.3314
 8962TIP3    H148377   0.434   0.853  16.290 -0.2175 -1.3391  1.1807
 8962TIP3    H248378   0.413   0.979  16.372  1.1062 -1.6689  2.0787
 8963TIP3   OH248379   0.624   6.607   0.288  0.0216  0.0420 -0.0565
 8963TIP3    H148380   0.699   6.572   0.337  0.0632  0.5284  0.2338
 8963TIP3    H248381   0.659   6.683   0.241  0.0603 -0.6242 -1.1176
 8964TIP3   OH248382   1.065   1.282   3.010 -0.5839 -0.4978  0.8600
 8964TIP3    H148383   1.028   1.202   3.047 -0.1822 -1.4253 -0.6564
 8964TIP3    H248384   1.002   1.350   3.034 -2.9409 -1.8733 -0.9473
 8965TIP3   OH248385   5.783   0.177  12.549 -0.3273 -0.9363 -0.1028
 8965TIP3    H148386   5.740   0.096  12.574 -0.1818 -0.7190  0.9152
 8965TIP3    H248387   5.862   0.180  12.603 -1.3200  0.8070  1.3724
 8966TIP3   OH248388   2.615   6.030  14.625 -0.0441 -0.9563  0.4587
 8966TIP3    H148389   2.618   6.114  14.671  0.8574  0.1982 -1.5707
 8966TIP3    H248390   2.696   5.986  14.649  0.7811 -0.0327 -0.5515
 8967TIP3   OH248391   3.486   4.285   3.431  0.0413  0.3423  0.3296
 8967TIP3    H148392   3.434   4.336   3.368  0.1270 -0.5594 -0.4935
 8967TIP3    H248393   3.423   4.225   3.471  0.0616  0.6544  0.8389
 8968TIP3   OH248394   5.086   0.003   5.889  0.2371  0.4435 -0.3056
 8968TIP3    H148395   5.110  -0.064   5.952 -1.9001 -1.1598 -1.0780
 8968TIP3    H248396   5.160   0.008   5.830  1.7382  1.0648  1.5395
 8969TIP3   OH248397   6.223   3.837   3.999 -0.4285 -0.0750 -0.1753
 8969TIP3    H148398   6.216   3.930   4.019 -0.0595  0.4705 -2.3649
 8969TIP3    H248399   6.286   3.832   3.926 -0.4079 -2.0361 -0.0838
 8970TIP3   OH248400   4.832   3.638  13.432  0.0110 -0.2440  0.0938
 8970TIP3    H148401   4.757   3.680  13.389  0.3089 -1.1002 -1.3370
 8970TIP3    H248402   4.872   3.707  13.484 -0.3348  0.8873 -1.0813
 8971TIP3   OH248403   4.650   1.033   6.523 -0.1481 -0.1618  0.3029
 8971TIP3    H148404   4.574   1.065   6.475 -0.3110  0.0053  0.6662
 8971TIP3    H248405   4.618   0.954   6.568  0.0423 -0.4013  0.0224
 8972TIP3   OH248406   2.690   0.037  15.418 -0.4801  0.1941  0.4801
 8972TIP3    H148407   2.701   0.073  15.506  3.0894 -1.3488  0.8546
 8972TIP3    H248408   2.721  -0.053  15.425 -1.1219 -0.3185 -2.1413
 8973TIP3   OH248409   3.833   4.680   5.927 -0.0914 -0.1420 -0.4319
 8973TIP3    H148410   3.775   4.707   5.856  0.2662 -0.3664 -0.8141
 8973TIP3    H248411   3.782   4.617   5.977 -0.6360  0.6140 -0.0123
 8974TIP3   OH248412   2.182   1.998  12.042  0.5137  0.0017  0.0403
 8974TIP3    H148413   2.166   1.942  12.118 -0.2161 -0.3946 -0.3958
 8974TIP3    H248414   2.148   2.084  12.066 -0.9609 -0.4560 -0.3209
 8975TIP3   OH248415   5.584   6.803  12.513  0.2090 -0.0297  0.2517
 8975TIP3    H148416   5.657   6.778  12.456  0.0745 -0.7788  0.4040
 8975TIP3    H248417   5.512   6.746  12.487 -0.7535  1.5960 -0.8080
 8976TIP3   OH248418   0.454   6.218  14.929  0.4136 -0.1984  0.0387
 8976TIP3    H148419   0.409   6.141  14.894  1.3857  0.0007 -1.7558
 8976TIP3    H248420   0.450   6.283  14.859  0.8630  0.8970  0.9878
 8977TIP3   OH248421   3.406   5.304   0.536  0.3973  0.2411 -0.1477
 8977TIP3    H148422   3.360   5.370   0.484  0.0541 -0.1015 -0.2832
 8977TIP3    H248423   3.473   5.353   0.584 -2.5397  1.5132  3.1535
 8978TIP3   OH248424   2.792   2.570   6.100  0.0883  0.0356  0.1148
 8978TIP3    H148425   2.772   2.653   6.145 -0.6272 -0.6469  1.1160
 8978TIP3    H248426   2.723   2.561   6.035 -0.6290 -0.4177  0.9233
 8979TIP3   OH248427   2.230   6.730   4.241  0.2856 -0.2949  0.0164
 8979TIP3    H148428   2.321   6.756   4.257 -0.0666  1.7904 -0.9384
 8979TIP3    H248429   2.233   6.685   4.156  0.1863  1.9426 -1.2690
 8980TIP3   OH248430   3.299   1.793   3.768 -0.9087 -0.9907  0.1438
 8980TIP3    H148431   3.377   1.757   3.725 -1.1221 -0.7306 -0.4788
 8980TIP3    H248432   3.236   1.803   3.696 -0.8535  0.6417  0.2996
 8981TIP3   OH248433   4.006   3.770   6.417  0.1599 -0.5301  0.2235
 8981TIP3    H148434   3.982   3.800   6.505  0.8178 -0.0707  0.2566
 8981TIP3    H248435   3.926   3.779   6.366  0.2326  1.0360  0.3159
 8982TIP3   OH248436   2.961   4.971   3.202 -0.3334  0.9830  0.6440
 8982TIP3    H148437   2.925   5.058   3.185 -0.2113  1.0212  0.5785
 8982TIP3    H248438   3.028   4.960   3.134 -0.3894  0.8142  0.6163
 8983TIP3   OH248439   6.451   4.225  16.394 -0.3774  0.1267 -0.6915
 8983TIP3    H148440   6.415   4.297  16.447 -1.0908  0.3520 -1.4686
 8983TIP3    H248441   6.511   4.180  16.454 -0.4466  0.9429  0.0235
 8984TIP3   OH248442   3.862   0.620   0.721 -0.3241  0.2081  0.4383
 8984TIP3    H148443   3.895   0.665   0.643 -0.7564  0.0006  0.1310
 8984TIP3    H248444   3.923   0.645   0.791 -1.1356  2.0881  0.5122
 8985TIP3   OH248445   2.847   5.002  11.683 -0.5413  0.5704 -0.3598
 8985TIP3    H148446   2.761   5.040  11.704 -0.7646  0.0897 -0.3835
 8985TIP3    H248447   2.828   4.938  11.614 -0.3726 -0.4618  0.5103
 8986TIP3   OH248448   0.812   6.172   2.508  0.7892 -0.2125  0.0114
 8986TIP3    H148449   0.821   6.173   2.603 -1.8739  1.3684  0.3355
 8986TIP3    H248450   0.725   6.133   2.492 -0.1518  2.2859 -1.5421
 8987TIP3   OH248451   2.739   6.278  14.843 -0.1873  0.2838  0.0047
 8987TIP3    H148452   2.712   6.370  14.838  0.5313  0.4617 -0.6378
 8987TIP3    H248453   2.812   6.270  14.783 -0.6389 -0.8651 -0.4286
 8988TIP3   OH248454   1.478   6.716  12.986 -0.4855 -0.3484  0.0590
 8988TIP3    H148455   1.493   6.803  13.024  0.3554 -0.5202  0.1357
 8988TIP3    H248456   1.407   6.679  13.038  0.1194 -0.2681  0.9668
 8989TIP3   OH248457   6.515   4.686  16.459 -0.3181 -0.2216 -0.6095
 8989TIP3    H148458   6.573   4.741  16.407 -1.9780  2.7302  0.4297
 8989TIP3    H248459   6.444   4.663  16.399  0.7967 -2.1605 -1.3013
 8990TIP3   OH248460   0.295   3.749   5.825  0.0561 -0.1396  0.3531
 8990TIP3    H148461   0.202   3.728   5.838  0.0094 -0.0759  0.1272
 8990TIP3    H248462   0.299   3.782   5.735  0.2097  0.3438  0.5332
 8991TIP3   OH248463   0.212   6.152  16.962  0.0745  0.4717  0.0672
 8991TIP3    H148464   0.194   6.240  16.929 -0.3362 -0.5630 -2.8495
 8991TIP3    H248465   0.154   6.142  17.037  0.9077  2.9866  1.1801
 8992TIP3   OH248466   0.432   6.405  13.699 -0.0211 -0.2867 -0.3096
 8992TIP3    H148467   0.526   6.406  13.719 -0.1275  0.9887  0.2783
 8992TIP3    H248468   0.412   6.314  13.678  0.9415 -0.9634  1.5125
 8993TIP3   OH248469   3.709   5.838   0.576  0.1261  0.1859 -0.3782
 8993TIP3    H148470   3.718   5.761   0.519  0.5056 -0.5026  0.5812
 8993TIP3    H248471   3.796   5.847   0.616 -0.3821  0.1253  0.7502
 8994TIP3   OH248472   0.046   5.709  10.793 -0.3430  0.6583 -0.3938
 8994TIP3    H148473   0.062   5.802  10.812 -0.0894  0.3144  1.1393
 8994TIP3    H248474   0.111   5.687  10.726  0.4229  1.2716  0.1286
 8995TIP3   OH248475   5.393   2.018  14.754  0.1597 -0.1722 -0.1114
 8995TIP3    H148476   5.454   1.946  14.770  0.8966  0.5480  0.3597
 8995TIP3    H248477   5.437   2.073  14.690 -0.9814 -0.8214 -1.5208
 8996TIP3   OH248478   4.786   6.046  12.396  0.1158  0.1062  0.0307
 8996TIP3    H148479   4.840   5.980  12.351  0.1958  1.0577 -1.3460
 8996TIP3    H248480   4.793   6.024  12.489 -0.6934 -2.4544 -0.4395
 8997TIP3   OH248481   3.673   6.041  14.551 -0.4923 -0.4129  0.0693
 8997TIP3    H148482   3.647   5.966  14.605  0.5086 -0.5309  0.4099
 8997TIP3    H248483   3.630   6.116  14.592 -0.2428 -0.5888  0.6701
 8998TIP3   OH248484   1.200   2.803   2.082 -0.1502  0.0280 -0.2552
 8998TIP3    H148485   1.179   2.882   2.131 -0.7018  0.9521 -1.9020
 8998TIP3    H248486   1.273   2.828   2.025 -0.4686 -0.5772 -0.9441
 8999TIP3   OH248487   1.425   4.355   1.502 -0.5823 -0.0927 -0.0292
 8999TIP3    H148488   1.432   4.382   1.411  0.8417  0.2693  0.1741
 8999TIP3    H248489   1.402   4.262   1.498  1.3007 -0.5708 -0.8073
 9000TIP3   OH248490   2.441   0.066  15.242 -0.7480 -0.4343 -0.0151
 9000TIP3    H148491   2.512   0.042  15.301 -0.9044  0.6784  0.6514
 9000TIP3    H248492   2.479   0.133  15.185 -1.5132  1.0042  1.0710
 9001TIP3   OH248493   6.267   3.154   2.669 -0.4752 -0.3419 -0.6917
 9001TIP3    H148494   6.362   3.158   2.671 -0.5059  1.6176  1.4441
 9001TIP3    H248495   6.246   3.062   2.655  1.6825 -0.5904 -2.7521
 9002TIP3   OH248496   1.556   1.915   5.834 -0.1947 -0.8198  0.3580
 9002TIP3    H148497   1.524   1.839   5.883  0.7363 -1.0327  0.6511
 9002TIP3    H248498   1.619   1.878   5.772  2.3912 -0.0380  2.3481
 9003TIP3   OH248499   0.994   3.268  12.708 -0.4440  0.1348 -0.1770
 9003TIP3    H148500   1.053   3.227  12.771 -1.0578 -0.2152  0.1785
 9003TIP3    H248501   0.962   3.347  12.752 -1.1727 -0.3131  0.1112
 9004TIP3   OH248502   0.335   5.791   3.807  0.7788  0.5212 -0.6038
 9004TIP3    H148503   0.375   5.875   3.787  0.7301  0.6167 -0.3055
 9004TIP3    H248504   0.298   5.761   3.724  0.4745  0.9666 -0.6304
 9005TIP3   OH248505   3.101   0.603   5.432 -0.4672 -0.1269 -0.3219
 9005TIP3    H148506   3.095   0.613   5.337 -0.6788  0.6582 -0.2350
 9005TIP3    H248507   3.127   0.512   5.445  0.2661 -0.0475 -1.1561
 9006TIP3   OH248508   5.527   3.204  14.744 -0.3665  0.2058  0.1776
 9006TIP3    H148509   5.453   3.245  14.788  1.2008  3.7866 -0.2060
 9006TIP3    H248510   5.582   3.171  14.815 -0.6868  0.5981  0.6104
 9007TIP3   OH248511   2.189   5.739   3.101  0.2148 -0.4239 -0.1895
 9007TIP3    H148512   2.105   5.733   3.147 -0.2595 -0.4173 -1.0489
 9007TIP3    H248513   2.251   5.694   3.159 -0.1173  0.6847  1.0608
 9008TIP3   OH248514   3.278   5.799  14.476  0.4167 -0.0495  0.5687
 9008TIP3    H148515   3.200   5.794  14.532 -0.3350  2.4312 -0.1304
 9008TIP3    H248516   3.263   5.734  14.408 -0.3090 -0.6690  1.3028
 9009TIP3   OH248517   5.779   1.982  12.253 -0.3605 -0.3907  0.6368
 9009TIP3    H148518   5.860   1.967  12.206 -0.5694  0.7069 -0.1149
 9009TIP3    H248519   5.788   1.932  12.334  1.2544  0.0994  0.7820
 9010TIP3   OH248520   2.115   4.646  11.783  0.2584  0.2818  0.2985
 9010TIP3    H148521   2.106   4.560  11.823 -1.6625  0.7913  1.0600
 9010TIP3    H248522   2.114   4.630  11.689 -0.9638 -0.4718  0.4245
 9011TIP3   OH248523   2.599   3.139  15.232 -0.3591  0.6809 -0.5979
 9011TIP3    H148524   2.667   3.111  15.293 -0.9783 -0.1363 -0.2721
 9011TIP3    H248525   2.566   3.221  15.269 -0.7353  0.1890  0.1850
 9012TIP3   OH248526   2.293   6.807   5.495  0.2082 -0.4004 -0.0429
 9012TIP3    H148527   2.267   6.827   5.585 -0.3205  0.1799 -0.3175
 9012TIP3    H248528   2.366   6.747   5.504 -1.4864 -2.4459  0.7501
 9013TIP3   OH248529   5.906   4.285  12.307  0.1081 -0.3395  0.5643
 9013TIP3    H148530   5.899   4.199  12.268 -0.2956 -1.3554  2.7308
 9013TIP3    H248531   5.998   4.310  12.294 -0.1709 -0.2437 -1.6323
 9014TIP3   OH248532   0.692   3.806  15.355  0.3856  0.2212  0.1364
 9014TIP3    H148533   0.716   3.730  15.302  0.4104  0.4081 -0.1233
 9014TIP3    H248534   0.598   3.797  15.368  0.3314  0.3175 -0.1712
 9015TIP3   OH248535   4.248   6.236   2.622 -0.3261  0.4426 -0.1924
 9015TIP3    H148536   4.224   6.147   2.597 -0.7460  0.5034 -0.0107
 9015TIP3    H248537   4.253   6.284   2.539 -1.0920  0.4918 -0.2108
 9016TIP3   OH248538   4.599   3.500  11.583  0.3796 -0.1033 -0.4363
 9016TIP3    H148539   4.657   3.553  11.527  0.5594 -0.4810 -0.6104
 9016TIP3    H248540   4.589   3.418  11.536  2.3171 -1.3123  1.0663
 9017TIP3   OH248541   1.265   6.068  16.096 -0.3569  0.6765  0.0067
 9017TIP3    H148542   1.327   6.108  16.158 -0.6436 -0.5548  1.1381
 9017TIP3    H248543   1.181   6.072  16.141 -0.5137 -0.5295 -0.1433
 9018TIP3   OH248544   5.254   0.883  13.892  0.0000 -0.0020  0.2974
 9018TIP3    H148545   5.213   0.804  13.926 -1.5721  0.1560 -1.1209
 9018TIP3    H248546   5.333   0.893  13.945 -0.9981 -1.1592  2.1288
 9019TIP3   OH248547   6.246   0.127   0.736  0.0248 -0.1655  0.2121
 9019TIP3    H148548   6.284   0.141   0.649 -1.3097 -1.8199 -0.6925
 9019TIP3    H248549   6.322   0.122   0.795  0.9475  1.0440 -0.8189
 9020TIP3   OH248550   1.047   5.833  16.032  0.6255 -0.5188  0.3914
 9020TIP3    H148551   0.981   5.902  16.043  0.6865  0.1829 -2.5745
 9020TIP3    H248552   1.000   5.752  16.051 -1.0971 -0.0093 -1.3125
 9021TIP3   OH248553   3.513   0.387  14.577 -0.1702  0.0475  0.4416
 9021TIP3    H148554   3.538   0.430  14.495  1.3390 -0.2867  0.7123
 9021TIP3    H248555   3.592   0.344  14.607 -0.8016 -0.1409  1.9083
 9022TIP3   OH248556   2.914   2.652  14.156  0.3327  0.5700 -0.2929
 9022TIP3    H148557   2.909   2.745  14.137 -0.3421  0.2583 -1.7792
 9022TIP3    H248558   2.843   2.613  14.106  0.4938 -0.7376  0.4351
 9023TIP3   OH248559   6.767   2.764   6.252 -0.2725  0.0214 -0.1872
 9023TIP3    H148560   6.750   2.803   6.338 -0.3387  0.0780 -0.2258
 9023TIP3    H248561   6.684   2.772   6.205  0.3965  2.2640 -1.1665
 9024TIP3   OH248562   2.099   1.567   4.984 -0.1582  0.0539  0.5370
 9024TIP3    H148563   2.097   1.473   4.970 -0.0150  0.1500 -0.1712
 9024TIP3    H248564   2.033   1.602   4.924  0.6980  0.5129 -0.1590
 9025TIP3   OH248565   4.694   4.043   1.072 -0.2501  0.2120 -1.2290
 9025TIP3    H148566   4.787   4.066   1.081  0.0910 -1.7239  1.9314
 9025TIP3    H248567   4.651   4.088   1.145 -0.9395 -2.3159  0.0313
 9026TIP3   OH248568   3.031   1.697  14.641  0.3600  0.6956 -0.2190
 9026TIP3    H148569   3.040   1.658  14.554  0.9090  0.1491  0.0800
 9026TIP3    H248570   3.104   1.661  14.691  0.2253  1.2498  0.3813
 9027TIP3   OH248571   6.190   2.849  11.604 -0.9390  0.2390 -0.2655
 9027TIP3    H148572   6.189   2.854  11.700 -2.7458  0.4872 -0.2720
 9027TIP3    H248573   6.282   2.837  11.582 -0.5246 -0.1562  1.5215
 9028TIP3   OH248574   4.305   6.391   5.613 -0.8256  0.2755 -0.7452
 9028TIP3    H148575   4.312   6.483   5.637 -0.3650  0.1982 -0.5779
 9028TIP3    H248576   4.314   6.389   5.518 -0.8964  0.4085 -0.7543
 9029TIP3   OH248577   2.404   5.096   2.319 -0.1146 -0.1810 -0.3230
 9029TIP3    H148578   2.437   5.164   2.379 -0.4107 -0.0146 -0.3483
 9029TIP3    H248579   2.472   5.089   2.252  1.4076 -2.0817  1.3019
 9030TIP3   OH248580   1.926   5.789  12.973 -0.2245  0.2127 -0.3097
 9030TIP3    H148581   1.894   5.714  13.022 -1.1953  0.1350 -1.0300
 9030TIP3    H248582   2.009   5.760  12.935  0.7711  0.4252  1.5961
 9031TIP3   OH248583   2.029   2.578   6.890  0.6788  0.4748 -0.6287
 9031TIP3    H148584   1.965   2.642   6.921  0.9848  1.4896 -1.9989
 9031TIP3    H248585   2.113   2.611   6.922  0.8137  0.6395 -1.1469
 9032TIP3   OH248586   4.888   0.585   0.596  0.1447  0.3623 -0.0840
 9032TIP3    H148587   4.933   0.641   0.533  2.9651 -0.8921  0.6559
 9032TIP3    H248588   4.918   0.616   0.681  0.0939 -0.9111  0.4193
 9033TIP3   OH248589   3.415   4.452   1.178 -0.0935 -0.1725  0.7103
 9033TIP3    H148590   3.495   4.435   1.127 -1.3346 -2.5401 -0.6491
 9033TIP3    H248591   3.375   4.527   1.135  1.0349  0.6225  0.9950
 9034TIP3   OH248592   6.060   5.430  16.647 -0.3696 -0.6278 -0.1665
 9034TIP3    H148593   6.074   5.525  16.647  1.3540 -0.8521 -0.5683
 9034TIP3    H248594   6.068   5.405  16.555  3.4075 -1.6477  0.2594
 9035TIP3   OH248595   6.732   0.137   3.226 -0.2110 -0.1496  0.1233
 9035TIP3    H148596   6.814   0.141   3.275 -0.0845 -1.2848  0.0344
 9035TIP3    H248597   6.756   0.156   3.136 -0.3199  1.1569  0.3515
 9036TIP3   OH248598   2.027   1.062  12.557 -0.1315  0.0545  0.1789
 9036TIP3    H148599   2.091   1.105  12.613  0.9056  0.0400 -0.9454
 9036TIP3    H248600   2.071   1.055  12.472 -1.9496  0.8947 -0.9049
 9037TIP3   OH248601   0.424   5.746  15.396  0.0481 -0.2762  0.0562
 9037TIP3    H148602   0.476   5.703  15.463 -0.1853  1.5536  1.4827
 9037TIP3    H248603   0.421   5.838  15.422 -0.1574  0.4966 -2.4034
 9038TIP3   OH248604   3.125   0.415  17.225  0.1103 -0.0529 -0.3307
 9038TIP3    H148605   3.046   0.395  17.174  0.8346 -0.3045 -1.3818
 9038TIP3    H248606   3.195   0.419  17.160  0.9604  0.2253  0.5827
 9039TIP3   OH248607   1.556   3.643  13.592 -0.2791  0.4361 -0.0983
 9039TIP3    H148608   1.512   3.659  13.675  2.7842  1.9700  1.4107
 9039TIP3    H248609   1.529   3.555  13.567 -3.0410  0.7708  1.3084
 9040TIP3   OH248610   1.998   6.335  16.146 -0.2312 -0.4219  0.4766
 9040TIP3    H148611   1.965   6.409  16.198 -0.0634  0.0214 -0.0408
 9040TIP3    H248612   1.982   6.361  16.055 -1.4347 -1.6192  0.3177
 9041TIP3   OH248613   5.738   2.398  13.759  0.1505 -0.1444  0.0960
 9041TIP3    H148614   5.729   2.481  13.806 -0.6894 -0.4625  0.5172
 9041TIP3    H248615   5.830   2.373  13.773  0.0907  0.1022  0.9972
 9042TIP3   OH248616   3.650   6.750   0.409 -0.4507 -0.2148 -0.2478
 9042TIP3    H148617   3.728   6.711   0.448  0.0424  0.2700 -0.7095
 9042TIP3    H248618   3.619   6.813   0.474 -0.0162  0.1219 -0.3622
 9043TIP3   OH248619   6.083   3.939  11.241  0.3527 -0.0420  0.1211
 9043TIP3    H148620   6.089   4.034  11.255  2.9132 -0.0666 -0.2168
 9043TIP3    H248621   6.169   3.906  11.270 -0.4881 -2.2687  0.2279
 9044TIP3   OH248622   4.724   2.530  13.111 -0.2431 -0.2435  0.0169
 9044TIP3    H148623   4.813   2.559  13.091 -0.4902 -0.2061 -1.0658
 9044TIP3    H248624   4.676   2.611  13.128 -0.5029 -0.1182 -1.2362
 9045TIP3   OH248625   1.107   3.852   5.979 -0.2433  0.8087 -0.1210
 9045TIP3    H148626   1.113   3.803   5.897  1.4152 -1.7343  1.3957
 9045TIP3    H248627   1.198   3.868   6.004 -0.6873  0.7626  1.6185
 9046TIP3   OH248628   3.274   2.545  14.996  0.8695 -0.0393 -0.7010
 9046TIP3    H148629   3.328   2.525  15.072  0.9162 -3.2869 -1.4192
 9046TIP3    H248630   3.185   2.554  15.031  0.7020 -2.6377 -0.2788
 9047TIP3   OH248631   6.424   0.865  16.530  0.5146 -0.5635  0.5175
 9047TIP3    H148632   6.443   0.790  16.473  0.2397  0.4894 -1.0057
 9047TIP3    H248633   6.329   0.867  16.536  0.5080 -0.0443  0.1782
 9048TIP3   OH248634   6.100   6.486   3.590 -0.0391  0.2256  0.6232
 9048TIP3    H148635   6.013   6.506   3.624 -0.9905  0.1134 -1.6115
 9048TIP3    H248636   6.084   6.435   3.511  2.0081  1.3142 -0.5755
 9049TIP3   OH248637   5.136   5.059  14.960 -0.0352  0.3075  0.4195
 9049TIP3    H148638   5.191   5.006  14.901 -1.6307  0.8091 -1.6486
 9049TIP3    H248639   5.160   5.149  14.939 -0.7893  0.4977  0.3673
 9050TIP3   OH248640   5.510   5.960  12.406 -0.1673 -0.1889  0.2663
 9050TIP3    H148641   5.459   5.991  12.481  0.7846  1.2664  0.3626
 9050TIP3    H248642   5.594   6.006  12.415 -0.2538  0.5132 -2.0333
 9051TIP3   OH248643   3.300   2.270   1.952 -1.2776  0.2825  0.5430
 9051TIP3    H148644   3.315   2.314   2.035 -0.6562 -0.5201  0.8641
 9051TIP3    H248645   3.251   2.192   1.975  0.6459 -1.0099  0.4375
 9052TIP3   OH248646   0.245   0.532   2.636 -0.2908  0.3267 -0.0054
 9052TIP3    H148647   0.190   0.603   2.605 -2.2246 -1.2210 -0.3522
 9052TIP3    H248648   0.327   0.541   2.586 -0.3249  2.4732  0.2478
 9053TIP3   OH248649   5.969   2.241  15.843  0.1387 -0.1167 -0.2553
 9053TIP3    H148650   6.051   2.246  15.794 -0.3710  5.0705 -1.1666
 9053TIP3    H248651   5.992   2.272  15.931 -0.6949  0.8822 -0.3708
 9054TIP3   OH248652   5.696   3.182   5.318 -0.1659 -0.4926 -0.2385
 9054TIP3    H148653   5.776   3.211   5.362 -0.2129 -1.8299  0.7943
 9054TIP3    H248654   5.726   3.151   5.232  0.3156 -0.2744 -0.1515
 9055TIP3   OH248655   4.711   6.481   5.547 -0.9275  0.0780  0.5023
 9055TIP3    H148656   4.628   6.447   5.515 -0.8629 -1.1654  1.5877
 9055TIP3    H248657   4.688   6.531   5.625 -0.7895  0.8779  0.0441
 9056TIP3   OH248658   3.633   4.195   0.398 -0.6398 -0.0616  0.0750
 9056TIP3    H148659   3.618   4.146   0.479 -2.3984 -0.1483 -0.2543
 9056TIP3    H248660   3.728   4.198   0.388 -0.4053 -3.6218  0.0082
 9057TIP3   OH248661   3.780   4.689   3.977  0.1787  0.5205 -0.5217
 9057TIP3    H148662   3.785   4.702   4.072 -0.4909 -0.8982 -0.2785
 9057TIP3    H248663   3.869   4.705   3.946  0.7805 -0.5876  0.5621
 9058TIP3   OH248664   1.540   2.543  13.154 -0.3482  0.1574  0.6103
 9058TIP3    H148665   1.459   2.583  13.186 -0.4705  0.5237 -0.1304
 9058TIP3    H248666   1.607   2.570  13.217 -0.4780  1.3223  0.2591
 9059TIP3   OH248667   2.044   5.610  11.191  0.6617  0.6985 -0.3798
 9059TIP3    H148668   2.060   5.571  11.105  0.4090 -1.5000  0.5118
 9059TIP3    H248669   2.108   5.568  11.249 -0.2840  0.8669  0.8212
 9060TIP3   OH248670   2.379   6.374   1.400 -0.2632 -0.3726  0.2710
 9060TIP3    H148671   2.334   6.289   1.402  0.3727 -0.6989  1.4160
 9060TIP3    H248672   2.356   6.411   1.315  1.1073 -2.6109 -1.1839
 9061TIP3   OH248673   1.882   4.747  11.950  0.3311  0.2083  0.0770
 9061TIP3    H148674   1.828   4.675  11.916  0.2505  0.3527 -0.1006
 9061TIP3    H248675   1.926   4.783  11.873 -0.9562  1.4692 -0.1026
 9062TIP3   OH248676   4.663   5.599  10.323  0.5423 -0.1733 -0.7407
 9062TIP3    H148677   4.569   5.599  10.337  0.6305  1.3761 -0.0146
 9062TIP3    H248678   4.685   5.689  10.300  1.7551 -0.6612 -1.6432
 9063TIP3   OH248679   4.268   4.740   1.486 -0.0772 -0.1849  0.1524
 9063TIP3    H148680   4.301   4.725   1.397 -0.9836 -0.8362 -0.0956
 9063TIP3    H248681   4.180   4.775   1.473 -0.4629 -0.8916  0.7825
 9064TIP3   OH248682   2.745   2.499   4.575  0.2754 -0.3747 -0.1308
 9064TIP3    H148683   2.674   2.453   4.530 -0.7781 -0.2344  1.3017
 9064TIP3    H248684   2.736   2.590   4.546  0.9099 -0.6329 -1.1895
 9065TIP3   OH248685   4.367   0.750  16.339 -0.4549 -0.4609  0.1369
 9065TIP3    H148686   4.352   0.760  16.245  0.3321 -0.7486 -0.0263
 9065TIP3    H248687   4.373   0.655  16.352 -1.6028 -0.4806  0.6527
 9066TIP3   OH248688   1.259   3.774  11.564 -0.0378 -0.1993  0.1395
 9066TIP3    H148689   1.173   3.772  11.522  0.3554  1.5796 -0.8562
 9066TIP3    H248690   1.302   3.852  11.528  0.7850  0.7993  2.9493
 9067TIP3   OH248691   1.738   0.964   0.731  0.0010  0.0274 -0.2580
 9067TIP3    H148692   1.727   0.952   0.637  0.0195  0.0166 -0.2589
 9067TIP3    H248693   1.805   0.900   0.755  0.0631  0.0940 -0.2542
 9068TIP3   OH248694   4.781   5.984   4.723 -0.0380  0.4569  0.0796
 9068TIP3    H148695   4.727   6.062   4.737 -0.9601 -0.0966 -0.3214
 9068TIP3    H248696   4.798   5.983   4.629  0.8088  0.7060  0.2222
 9069TIP3   OH248697   4.168   4.965  11.720 -0.3700  0.4379 -0.4544
 9069TIP3    H148698   4.241   4.976  11.781 -0.7502 -0.1443  0.1138
 9069TIP3    H248699   4.115   5.044  11.732 -1.1003 -0.2099  0.8915
 9070TIP3   OH248700   6.673   5.849  11.878 -0.1981  0.0758  0.5898
 9070TIP3    H148701   6.679   5.861  11.973 -2.3517  2.6023  0.5362
 9070TIP3    H248702   6.580   5.863  11.858  0.2789  0.0463 -1.9413
 9071TIP3   OH248703   4.121   2.640   3.209  0.0723 -0.4741  0.1729
 9071TIP3    H148704   4.073   2.695   3.271 -1.3704 -0.2041 -1.1299
 9071TIP3    H248705   4.204   2.622   3.253  1.4131  4.1566  0.0021
 9072TIP3   OH248706   5.523   3.315  12.486  0.1371 -0.2610 -0.0251
 9072TIP3    H148707   5.463   3.288  12.555 -1.2719 -0.5534 -1.2953
 9072TIP3    H248708   5.528   3.239  12.428  0.6735  0.2346 -0.6392
 9073TIP3   OH248709   3.725   3.713  16.701  0.0894 -0.1525  0.1343
 9073TIP3    H148710   3.703   3.778  16.635 -0.4244  0.8602  1.2589
 9073TIP3    H248711   3.803   3.748  16.744 -1.0062  0.4832  1.6970
 9074TIP3   OH248712   0.962   0.951   3.788 -0.1141  0.2255 -0.3581
 9074TIP3    H148713   0.918   1.036   3.785 -1.6108 -0.3778  1.7725
 9074TIP3    H248714   0.910   0.895   3.730 -1.3974 -0.1319  1.0897
 9075TIP3   OH248715   2.387   4.114  14.467 -0.0298 -0.7912  0.4747
 9075TIP3    H148716   2.362   4.172  14.539 -1.5846  0.0894 -0.7009
 9075TIP3    H248717   2.320   4.046  14.466 -0.8467 -0.0217 -0.9447
 9076TIP3   OH248718   4.982   2.671  16.385  0.1087  0.3589  0.7528
 9076TIP3    H148719   4.989   2.766  16.371 -2.2902  0.7072  1.4844
 9076TIP3    H248720   4.967   2.662  16.479 -0.4910 -0.6862  0.5726
 9077TIP3   OH248721   0.365   1.312  12.678  0.2366  0.0529  0.3536
 9077TIP3    H148722   0.445   1.270  12.710 -0.0212 -0.0604  0.8638
 9077TIP3    H248723   0.300   1.295  12.747 -0.2487  0.0640 -0.0988
 9078TIP3   OH248724   2.378   6.737  14.840  0.0761  0.0117  0.1886
 9078TIP3    H148725   2.327   6.659  14.862 -0.6780  0.1594 -0.9949
 9078TIP3    H248726   2.351   6.760  14.751  0.7571  1.2573  0.2801
 9079TIP3   OH248727   3.592   5.886   4.767 -0.0886 -0.6368  0.4272
 9079TIP3    H148728   3.559   5.971   4.738 -1.9308 -1.7587 -1.1308
 9079TIP3    H248729   3.518   5.847   4.814 -0.4464 -2.5047 -1.5162
 9080TIP3   OH248730   2.178   6.325  16.735  0.2070 -0.4313 -0.1152
 9080TIP3    H148731   2.097   6.276  16.723  0.7478 -1.6001  0.7916
 9080TIP3    H248732   2.152   6.417  16.734 -0.9878 -0.7565 -0.7375
 9081TIP3   OH248733   4.247   1.651  13.036  0.7118  0.1560  0.0423
 9081TIP3    H148734   4.305   1.706  12.983  0.4173  0.6188  0.1911
 9081TIP3    H248735   4.166   1.645  12.985  0.4504  0.5496  0.4022
 9082TIP3   OH248736   1.407   6.779   0.830  0.0121  0.6459  0.0248
 9082TIP3    H148737   1.488   6.763   0.782  0.2641 -0.2830  0.7294
 9082TIP3    H248738   1.409   6.716   0.902 -2.0246 -0.4330 -0.7638
 9083TIP3   OH248739   2.279   5.828  17.029 -0.3607 -0.1334  0.1997
 9083TIP3    H148740   2.230   5.858  16.953 -1.1175 -0.1181  0.6890
 9083TIP3    H248741   2.356   5.885  17.032 -1.0722  0.8316  0.3043
 9084TIP3   OH248742   1.231   0.785  14.775  0.0694 -0.3099  0.2056
 9084TIP3    H148743   1.226   0.861  14.717 -0.6915 -1.8446 -1.8529
 9084TIP3    H248744   1.149   0.789  14.825  1.6676  2.2421  2.9848
 9085TIP3   OH248745   6.019   1.236  15.632 -0.0920 -0.1197 -0.0990
 9085TIP3    H148746   5.937   1.213  15.676 -0.2784 -0.3926 -0.5878
 9085TIP3    H248747   6.056   1.152  15.606  0.0167  0.0400 -0.4631
 9086TIP3   OH248748   4.131   4.678   5.183 -0.2625  0.0591 -0.6634
 9086TIP3    H148749   4.073   4.603   5.172 -1.5784  0.9703 -0.1294
 9086TIP3    H248750   4.217   4.645   5.157 -0.6721 -1.8269  0.2261
 9087TIP3   OH248751   6.309   4.954   4.801  0.0777  0.6689  0.1048
 9087TIP3    H148752   6.341   5.033   4.845  1.6587  0.1775 -0.0938
 9087TIP3    H248753   6.216   4.951   4.821  0.3974  1.4592  1.8541
 9088TIP3   OH248754   0.837   0.100   6.084  0.1355  0.4894 -0.0722
 9088TIP3    H148755   0.804   0.010   6.085  0.7961  0.2028 -1.4948
 9088TIP3    H248756   0.824   0.131   6.174 -1.5717 -0.4762  0.0512
 9089TIP3   OH248757   5.184   0.858   1.170 -0.2802  0.1753 -0.4422
 9089TIP3    H148758   5.274   0.867   1.139 -0.3177 -1.5693 -1.2086
 9089TIP3    H248759   5.181   0.769   1.207 -1.3028  0.7469  0.9362
 9090TIP3   OH248760   1.410   6.201  15.462  0.5289  0.5491 -0.3511
 9090TIP3    H148761   1.417   6.288  15.500 -0.4165  2.0890 -3.4447
 9090TIP3    H248762   1.324   6.199  15.421  0.3281 -2.0660  0.0100
 9091TIP3   OH248763   4.620   4.991  14.617  0.4375  0.2335 -0.1601
 9091TIP3    H148764   4.616   5.067  14.675  0.8336 -0.9450  1.4737
 9091TIP3    H248765   4.569   5.017  14.540 -0.9321  1.5081  1.1146
 9092TIP3   OH248766   3.580   3.494  15.801 -0.7261 -0.3122  0.2469
 9092TIP3    H148767   3.527   3.573  15.796  0.9369  0.7927 -0.5479
 9092TIP3    H248768   3.516   3.423  15.811 -2.2518  1.0948  0.7994
 9093TIP3   OH248769   5.465   4.536   4.655  0.1946  0.2582  0.0964
 9093TIP3    H148770   5.447   4.579   4.572 -1.2902  0.7012  0.5996
 9093TIP3    H248771   5.545   4.577   4.687  0.3992  0.5675 -0.7909
 9094TIP3   OH248772   4.763   6.095  14.220 -0.3460  0.5476 -0.5131
 9094TIP3    H148773   4.838   6.121  14.167  0.9232  0.2024  1.0249
 9094TIP3    H248774   4.799   6.082  14.308 -2.1844  0.1960  0.2419
 9095TIP3   OH248775   6.727   2.600   4.472 -0.3070 -0.1585  0.6912
 9095TIP3    H148776   6.636   2.583   4.497  0.3673 -1.2535  2.6315
 9095TIP3    H248777   6.758   2.662   4.538  0.6006 -0.4730  0.5674
 9096TIP3   OH248778   4.678   1.751   4.528 -0.4603  0.7139 -0.1981
 9096TIP3    H148779   4.675   1.697   4.607 -3.2268 -0.6028 -1.0711
 9096TIP3    H248780   4.600   1.806   4.533 -0.1596  1.3032 -1.5423
 9097TIP3   OH248781   4.232   2.634   2.476 -0.1897  0.2294  0.4928
 9097TIP3    H148782   4.278   2.671   2.401 -1.8013 -0.0615 -0.6992
 9097TIP3    H248783   4.241   2.700   2.545  0.1358  1.1477 -0.4068
 9098TIP3   OH248784   0.481   2.918  10.692 -0.0465  0.8285  0.4704
 9098TIP3    H148785   0.396   2.878  10.711  0.3572 -1.6225 -2.2519
 9098TIP3    H248786   0.542   2.876  10.753 -0.0416 -1.1403 -0.8011
 9099TIP3   OH248787   0.633   5.302   5.235  0.3206 -0.8801 -0.2924
 9099TIP3    H148788   0.650   5.352   5.315 -0.3453  0.7577 -1.1406
 9099TIP3    H248789   0.702   5.329   5.174  0.8172 -2.1079 -0.3115
 9100TIP3   OH248790   5.179   0.679   4.009 -0.2084  0.2056  0.6054
 9100TIP3    H148791   5.103   0.704   3.957 -0.0805 -0.0085  0.3125
 9100TIP3    H248792   5.193   0.752   4.069 -0.0073  0.7036 -0.0453
 9101TIP3   OH248793   5.789   0.679   6.149 -0.1781  0.2619  0.3823
 9101TIP3    H148794   5.762   0.744   6.084 -0.3121 -1.4506 -1.3471
 9101TIP3    H248795   5.726   0.689   6.220 -1.0536  1.0705 -0.4794
 9102TIP3   OH248796   6.168   2.846  16.721  0.4434  0.1062  0.5907
 9102TIP3    H148797   6.251   2.871  16.761 -0.8379  2.9687  1.7181
 9102TIP3    H248798   6.157   2.908  16.648  0.1600 -1.5151 -0.8216
 9103TIP3   OH248799   3.692   5.215   4.494  0.7236  0.6988 -0.3432
 9103TIP3    H148800   3.783   5.187   4.479  0.4216  1.0184 -3.5391
 9103TIP3    H248801   3.674   5.275   4.422 -3.0508 -1.8943 -1.8243
 9104TIP3   OH248802   2.545   2.486  15.224  0.4260 -0.1487 -0.5778
 9104TIP3    H148803   2.543   2.546  15.150  0.4544 -1.2269 -1.4749
 9104TIP3    H248804   2.638   2.478  15.246  0.4096  0.2465 -0.3447
 9105TIP3   OH248805   5.495   6.370  15.956  0.5050  0.5300  0.1411
 9105TIP3    H148806   5.523   6.406  15.872  1.0832  0.1750  0.1767
 9105TIP3    H248807   5.419   6.316  15.935  0.7508  0.3032 -0.1868
 9106TIP3   OH248808   4.322   5.110   6.330  0.3225 -0.2065  0.0720
 9106TIP3    H148809   4.378   5.151   6.264  0.1871  1.0895  0.7448
 9106TIP3    H248810   4.369   5.122   6.412  0.5563 -1.9290  0.2341
 9107TIP3   OH248811   0.746   1.282   2.744 -0.1150 -0.0754 -0.5793
 9107TIP3    H148812   0.683   1.339   2.700 -0.0897  2.1395  1.9533
 9107TIP3    H248813   0.821   1.278   2.685 -2.2065 -2.2157 -3.3573
 9108TIP3   OH248814   1.540   1.548  14.712  0.4213 -0.1403 -0.3569
 9108TIP3    H148815   1.610   1.613  14.708  1.2444 -0.8617  1.3658
 9108TIP3    H248816   1.491   1.570  14.791 -0.0966 -0.8235 -0.4796
 9109TIP3   OH248817   3.067   0.065   1.137 -0.0242  0.0491  0.1812
 9109TIP3    H148818   3.138   0.118   1.101  0.0312  0.1134  0.3835
 9109TIP3    H248819   3.040   0.008   1.064 -1.0390  1.3198 -0.4899
 9110TIP3   OH248820   6.659   0.189  11.924  0.5476 -0.0978 -0.7458
 9110TIP3    H148821   6.691   0.227  12.006 -1.0881  0.5603 -0.3834
 9110TIP3    H248822   6.731   0.201  11.863  1.8151 -0.6041  0.5703
 9111TIP3   OH248823   0.911   1.299   4.099 -0.3426 -0.6090 -0.7111
 9111TIP3    H148824   0.906   1.260   4.185 -3.3853  1.2735  0.1205
 9111TIP3    H248825   0.842   1.256   4.048 -0.3271  0.0912 -1.3542
 9112TIP3   OH248826   1.238   2.186  12.781  0.0532  0.9090  0.4179
 9112TIP3    H148827   1.277   2.252  12.723  0.4573 -0.8961 -1.4761
 9112TIP3    H248828   1.144   2.195  12.767  0.1492  0.4488 -0.6088
 9113TIP3   OH248829   6.786   0.804   2.284  0.0568 -0.9572  0.3502
 9113TIP3    H148830   6.804   0.889   2.246 -0.2296 -1.6424 -1.4367
 9113TIP3    H248831   6.692   0.805   2.302  0.1929 -0.6287  1.0465
 9114TIP3   OH248832   1.532   4.630  17.099  0.0746  0.0861  0.1130
 9114TIP3    H148833   1.551   4.720  17.125  0.6326  0.1363 -0.4422
 9114TIP3    H248834   1.479   4.595  17.171 -0.4499  0.9601  0.1745
 9115TIP3   OH248835   2.206   0.408   1.197 -0.0008 -0.1869 -0.2149
 9115TIP3    H148836   2.144   0.473   1.163  1.5552 -0.3436 -3.6593
 9115TIP3    H248837   2.263   0.458   1.255 -1.7853  0.4325  1.1091
 9116TIP3   OH248838   2.202   3.801  16.621 -0.4300 -0.7231 -0.0433
 9116TIP3    H148839   2.195   3.715  16.663 -0.0783 -1.4266 -1.3693
 9116TIP3    H248840   2.230   3.859  16.691 -1.3906 -1.5228  1.0586
 9117TIP3   OH248841   1.194   5.647  10.632  0.1766  0.7049  0.2254
 9117TIP3    H148842   1.104   5.675  10.642  0.7350  1.8964  2.6138
 9117TIP3    H248843   1.235   5.666  10.716  2.4289 -0.7101 -0.4482
 9118TIP3   OH248844   3.374   5.394  12.187  0.0516  0.0724  0.2788
 9118TIP3    H148845   3.350   5.393  12.095  2.0155 -0.4972 -0.2946
 9118TIP3    H248846   3.303   5.441  12.231 -0.4684  1.1854 -1.6474
 9119TIP3   OH248847   3.981   3.089   4.579 -0.0420 -0.4811  0.1705
 9119TIP3    H148848   3.999   3.023   4.512  0.9081 -1.6234  1.4687
 9119TIP3    H248849   3.944   3.039   4.652 -1.4652  0.7900  0.3519
 9120TIP3   OH248850   1.888   1.689   5.386  0.4143 -0.3285  0.3601
 9120TIP3    H148851   1.944   1.764   5.367 -0.6173  0.5072  0.5936
 9120TIP3    H248852   1.941   1.634   5.444  1.1657  0.2112  0.1966
 9121TIP3   OH248853   1.570   6.774   1.837 -0.3853  0.1794 -0.3326
 9121TIP3    H148854   1.520   6.840   1.790  1.3789  0.4555 -1.9173
 9121TIP3    H248855   1.622   6.731   1.770 -0.1458 -1.6074  0.9422
 9122TIP3   OH248856   6.003   1.335  16.850 -0.2845  0.3883 -0.0128
 9122TIP3    H148857   6.078   1.388  16.876  0.0205  0.7720 -1.5894
 9122TIP3    H248858   5.965   1.305  16.933  0.4063  1.8473  0.8670
 9123TIP3   OH248859   0.098   0.122  13.015 -0.0039 -0.2645  0.6492
 9123TIP3    H148860   0.028   0.151  13.073  0.5481  1.4269  0.5285
 9123TIP3    H248861   0.174   0.175  13.041  0.7382 -0.7746 -0.4125
 9124TIP3   OH248862   3.360   1.032  15.897  0.2435  0.3823  0.5787
 9124TIP3    H148863   3.384   1.108  15.844 -2.2546  1.0378  0.2752
 9124TIP3    H248864   3.317   1.069  15.974 -2.5169 -0.6696 -0.3467
 9125TIP3   OH248865   5.186   2.310  15.418 -0.0517  0.3217  0.2597
 9125TIP3    H148866   5.194   2.378  15.350  0.3230 -0.1667 -0.1927
 9125TIP3    H248867   5.119   2.344  15.478 -0.1123  0.9355 -0.1438
 9126TIP3   OH248868   6.630   4.000  12.540  0.4762 -0.5506  0.2419
 9126TIP3    H148869   6.549   4.040  12.507  0.5306 -0.1953  0.5272
 9126TIP3    H248870   6.680   3.977  12.462  0.6247  0.3188  0.0742
 9127TIP3   OH248871   4.483   2.454   2.709  0.2067 -0.0462 -0.4366
 9127TIP3    H148872   4.455   2.488   2.794 -0.5397 -0.4472 -0.5163
 9127TIP3    H248873   4.539   2.523   2.673  1.2783 -0.2706  0.7699
 9128TIP3   OH248874   1.853   0.597  16.249  0.8444  0.6397  0.0093
 9128TIP3    H148875   1.887   0.684  16.226 -1.3731  1.6221  0.2355
 9128TIP3    H248876   1.773   0.614  16.299 -0.1518 -1.5520 -0.7025
 9129TIP3   OH248877   5.976   6.156   0.127  0.2764  0.3688  0.2228
 9129TIP3    H148878   5.888   6.139   0.091  0.5478  1.4538 -1.0336
 9129TIP3    H248879   6.036   6.117   0.063  0.8002  3.1717 -1.1718
 9130TIP3   OH248880   1.588   4.841  11.925 -0.0578  0.2490  0.0937
 9130TIP3    H148881   1.517   4.788  11.959 -0.9630  1.8009  0.7409
 9130TIP3    H248882   1.654   4.841  11.996  0.3415 -0.6964 -0.2638
 9131TIP3   OH248883   3.330   0.629  13.060  0.2147 -0.0068  0.0382
 9131TIP3    H148884   3.256   0.686  13.080  1.0375  0.2855  2.6324
 9131TIP3    H248885   3.311   0.548  13.107 -0.2068 -1.3990 -2.3564
 9132TIP3   OH248886   6.160   0.925   4.573 -0.2037 -0.0067 -0.7279
 9132TIP3    H148887   6.093   0.884   4.628  0.2949  0.4769  0.2575
 9132TIP3    H248888   6.111   0.964   4.500 -0.8677 -0.6863 -0.6527
 9133TIP3   OH248889   2.096   1.513   4.169  0.4554  0.1770 -0.0904
 9133TIP3    H148890   2.044   1.453   4.114  1.5528  0.2697 -1.2744
 9133TIP3    H248891   2.077   1.485   4.258 -0.4717 -0.7590 -0.5502
 9134TIP3   OH248892   5.728   4.434   1.595 -0.0363 -0.1635 -0.0853
 9134TIP3    H148893   5.666   4.496   1.555  0.8698  0.9104  0.1096
 9134TIP3    H248894   5.737   4.465   1.686 -0.6588 -1.4658  0.4431
 9135TIP3   OH248895   1.657   4.987   3.998 -0.2450 -0.2423  0.4250
 9135TIP3    H148896   1.693   4.956   3.915 -1.9582  1.3496 -1.0006
 9135TIP3    H248897   1.588   4.923   4.018  0.2016 -0.6554  0.6788
 9136TIP3   OH248898   3.492   6.322  15.257  0.2099 -0.1658  0.0656
 9136TIP3    H148899   3.561   6.371  15.301  0.4365  0.3950 -0.8862
 9136TIP3    H248900   3.492   6.355  15.167 -2.5556  1.2578  0.4469
 9137TIP3   OH248901   0.103   6.673  13.003  0.2315  0.1342  1.0177
 9137TIP3    H148902   0.172   6.666  13.069 -1.2783 -1.3751  2.5199
 9137TIP3    H248903   0.083   6.767  12.999  2.2218  0.6036  0.6143
 9138TIP3   OH248904   3.351   6.333   5.731  0.5989  0.3883 -0.1310
 9138TIP3    H148905   3.268   6.378   5.717 -1.1885 -1.6860  2.7172
 9138TIP3    H248906   3.391   6.379   5.805  1.5748  0.8217 -0.9163
 9139TIP3   OH248907   0.462   3.516   1.405  0.3409  0.2559 -0.0372
 9139TIP3    H148908   0.532   3.485   1.347 -0.0353 -0.3465 -0.1711
 9139TIP3    H248909   0.394   3.449   1.400  0.5146 -0.0706  1.5151
 9140TIP3   OH248910   2.903   2.830  16.024  0.0724  0.0268  0.4421
 9140TIP3    H148911   2.972   2.812  16.088 -1.1677 -1.2852  1.4960
 9140TIP3    H248912   2.833   2.768  16.047 -1.2716  0.9899 -0.8684
 9141TIP3   OH248913   4.907   0.423   5.644  0.2456  0.3345 -0.4364
 9141TIP3    H148914   4.999   0.449   5.644  0.5176 -0.5838 -0.1647
 9141TIP3    H248915   4.898   0.369   5.565 -0.0111  0.2541 -0.3515
 9142TIP3   OH248916   2.573   4.878  17.042 -0.3013  0.1217  0.3615
 9142TIP3    H148917   2.523   4.798  17.061 -1.6657  0.3666 -1.9253
 9142TIP3    H248918   2.537   4.943  17.102 -0.3917 -0.5248  1.0283
 9143TIP3   OH248919   0.724   0.947  14.871  0.4142  0.0583 -0.1649
 9143TIP3    H148920   0.713   0.915  14.960 -0.4655  1.1057  0.1327
 9143TIP3    H248921   0.644   0.920  14.826  0.4365  0.3363 -0.3741
 9144TIP3   OH248922   3.359   3.443   5.882 -0.2055  0.3249  0.0112
 9144TIP3    H148923   3.350   3.454   5.977 -0.1092  2.6014 -0.1969
 9144TIP3    H248924   3.340   3.529   5.846 -0.3582 -0.5329 -2.0711
 9145TIP3   OH248925   3.634   2.467   1.035 -0.0331 -0.2169 -0.1688
 9145TIP3    H148926   3.569   2.421   0.983 -1.0028 -2.0340  2.4101
 9145TIP3    H248927   3.592   2.549   1.061 -0.7989 -0.7557  0.3357
 9146TIP3   OH248928   4.121   5.977   5.763  0.2505  0.7185  0.5868
 9146TIP3    H148929   4.105   5.893   5.807  1.1205  0.2523  0.0358
 9146TIP3    H248930   4.216   5.986   5.762  0.1952  1.3136 -0.1119
 9147TIP3   OH248931   5.195   4.644   4.643  0.2567 -0.8821  0.7160
 9147TIP3    H148932   5.228   4.640   4.553  0.0429  2.4493  0.3610
 9147TIP3    H248933   5.269   4.617   4.697  1.9701  1.3363 -0.3327
 9148TIP3   OH248934   0.394   6.172   0.245 -0.3840 -0.1364 -0.3703
 9148TIP3    H148935   0.455   6.191   0.175 -1.6292  0.1119 -1.4242
 9148TIP3    H248936   0.442   6.192   0.326 -0.0479  2.9808 -1.2237
 9149TIP3   OH248937   4.043   0.079   3.432  0.1684  0.3021 -0.3674
 9149TIP3    H148938   4.120   0.119   3.391 -0.0597 -1.1487 -2.3383
 9149TIP3    H248939   4.026  -0.000   3.381 -1.0241 -0.8808  1.7109
 9150TIP3   OH248940   2.891   1.556   5.904  0.8447 -0.3625 -0.2891
 9150TIP3    H148941   2.974   1.518   5.935  1.7032  1.9613  0.4561
 9150TIP3    H248942   2.852   1.597   5.981  0.6547  1.4004 -1.2608
 9151TIP3   OH248943   2.412   6.336  12.901  0.2950  0.0084 -0.0929
 9151TIP3    H148944   2.336   6.317  12.846 -1.1755 -0.6688  2.0522
 9151TIP3    H248945   2.446   6.419  12.866 -1.5343  0.4208 -1.0316
 9152TIP3   OH248946   3.209   1.149  15.299 -0.2350 -0.3860  0.0312
 9152TIP3    H148947   3.289   1.151  15.352  1.8323  0.1592 -2.8883
 9152TIP3    H248948   3.227   1.084  15.231 -2.5202 -0.6102 -0.4382
 9153TIP3   OH248949   5.367   6.143  14.160  0.3728  0.5872  0.1717
 9153TIP3    H148950   5.446   6.197  14.151  1.6130 -1.0853  0.4452
 9153TIP3    H248951   5.343   6.121  14.070  0.9704  0.1096  0.1170
 9154TIP3   OH248952   6.529   2.576   4.785 -0.5518 -0.2932 -0.1744
 9154TIP3    H148953   6.477   2.501   4.813  0.1847  0.2222  3.0788
 9154TIP3    H248954   6.619   2.543   4.781 -0.3119  0.2205  0.6370
 9155TIP3   OH248955   6.441   4.202   4.055 -0.2460  0.3723 -0.1033
 9155TIP3    H148956   6.526   4.245   4.064 -0.0999  0.1081 -0.2197
 9155TIP3    H248957   6.431   4.188   3.961  0.3606 -1.1411  0.0184
 9156TIP3   OH248958   3.852   5.122  11.956  0.1806 -0.1728 -0.2840
 9156TIP3    H148959   3.759   5.101  11.954 -0.2687  1.6323 -2.5918
 9156TIP3    H248960   3.895   5.041  11.926 -0.8087 -0.4610 -0.9851
 9157TIP3   OH248961   6.172   0.916   0.490 -0.5385  0.4397 -0.8635
 9157TIP3    H148962   6.103   0.969   0.449 -0.0772  0.2787 -1.8916
 9157TIP3    H248963   6.247   0.975   0.496 -0.5583  0.4182 -0.3673
 9158TIP3   OH248964   6.718   4.303   2.532  0.6740 -0.1567 -0.3281
 9158TIP3    H148965   6.802   4.281   2.491 -0.4448 -2.0535 -1.7579
 9158TIP3    H248966   6.672   4.355   2.467  0.2055 -0.3157 -0.1328
 9159TIP3   OH248967   2.757   1.272   2.744 -0.2474  0.1391  0.4047
 9159TIP3    H148968   2.731   1.206   2.808 -0.6731 -0.6570 -0.5616
 9159TIP3    H248969   2.852   1.278   2.753 -0.0143 -1.6741 -0.4613
 9160TIP3   OH248970   3.130   6.011   2.574 -0.0356  0.4516  0.1813
 9160TIP3    H148971   3.074   5.989   2.648 -1.5691  0.9520 -0.7860
 9160TIP3    H248972   3.087   6.086   2.533  0.0030 -0.6468 -2.0263
 9161TIP3   OH248973   2.923   6.702   0.190  0.4887  0.2210  0.0012
 9161TIP3    H148974   2.866   6.774   0.163  0.4913  0.5799  0.9243
 9161TIP3    H248975   2.987   6.743   0.248 -0.2812 -0.7087  1.5870
 9162TIP3   OH248976   4.691   1.808  13.143 -0.5754  0.6294  0.3606
 9162TIP3    H148977   4.666   1.809  13.050  1.2300 -0.1531 -0.1880
 9162TIP3    H248978   4.751   1.882  13.153  2.4112 -1.5185 -0.1700
 9163TIP3   OH248979   2.739   5.209   6.755  0.4825  0.0515 -0.3492
 9163TIP3    H148980   2.664   5.237   6.703  1.3321  0.9897 -1.1094
 9163TIP3    H248981   2.815   5.242   6.708  1.5604 -2.8483 -0.8437
 9164TIP3   OH248982   1.243   1.884  10.561  0.4099 -0.1195 -0.6075
 9164TIP3    H148983   1.272   1.946  10.628  0.6050 -1.4941  0.6305
 9164TIP3    H248984   1.323   1.857  10.517  0.3097  0.5862 -1.2441
 9165TIP3   OH248985   3.869   6.477   1.862  0.1706  1.0593  0.2063
 9165TIP3    H148986   3.783   6.449   1.890  0.5724  1.6109  2.0979
 9165TIP3    H248987   3.853   6.523   1.779 -0.9698 -1.0892 -0.8405
 9166TIP3   OH248988   5.389   5.494  15.227  0.7611 -0.2659 -0.2765
 9166TIP3    H148989   5.397   5.518  15.320 -0.3428  0.6589 -0.3895
 9166TIP3    H248990   5.370   5.400  15.228 -1.4160  0.1170  0.5946
 9167TIP3   OH248991   4.072   4.585   6.050  0.2792  0.5119 -0.1847
 9167TIP3    H148992   4.026   4.651   5.998  4.2514  1.6211 -2.7055
 9167TIP3    H248993   4.122   4.636   6.114  1.5646 -0.2257 -0.5733
 9168TIP3   OH248994   4.770   2.977  11.398  0.4943  0.0024  0.1132
 9168TIP3    H148995   4.788   2.930  11.479 -0.1703 -1.3295 -0.4857
 9168TIP3    H248996   4.853   2.974  11.350  0.3092 -1.0395 -0.1510
 9169TIP3   OH248997   2.885   2.574   3.412 -0.3878  0.5385 -0.3321
 9169TIP3    H148998   2.947   2.536   3.474  1.5185  1.6323 -1.4572
 9169TIP3    H248999   2.835   2.637   3.463 -0.3215 -0.0834  0.5238
 9170TIP3   OH249000   5.179   4.141   3.624  0.7401  0.0337  0.3130
 9170TIP3    H149001   5.118   4.167   3.555  0.2571 -1.4329  0.1530
 9170TIP3    H249002   5.213   4.057   3.595  1.6226  0.0781  1.1864
 9171TIP3   OH249003   6.346   0.674  12.401  0.1699  0.0137  0.5115
 9171TIP3    H149004   6.431   0.635  12.381 -0.1692 -0.8355  0.7019
 9171TIP3    H249005   6.283   0.622  12.350 -0.2660  0.4865  0.5536
 9172TIP3   OH249006   5.997   0.694   3.477  0.3095 -0.0531  0.2485
 9172TIP3    H149007   5.977   0.782   3.446 -0.7689  0.5047  2.3741
 9172TIP3    H249008   5.986   0.638   3.400 -1.5584  1.3416 -0.5546
 9173TIP3   OH249009   6.503   4.578   0.235  0.4628  0.1282 -0.0764
 9173TIP3    H149010   6.573   4.546   0.292  0.2642  1.3210  0.8847
 9173TIP3    H249011   6.464   4.651   0.284 -0.1455  0.7694 -1.4664
 9174TIP3   OH249012   5.813   6.726  16.075  0.3646  0.3993  0.4056
 9174TIP3    H149013   5.819   6.819  16.055 -1.4045  0.3391 -0.5699
 9174TIP3    H249014   5.723   6.713  16.104  0.4466 -1.0768  0.0971
 9175TIP3   OH249015   4.458   1.948   2.463  0.0280  0.7495  0.4211
 9175TIP3    H149016   4.419   1.900   2.390  0.2075  0.3018  0.6113
 9175TIP3    H249017   4.384   1.973   2.518 -0.2409  2.2740 -0.5929
 9176TIP3   OH249018   0.850   3.448  12.508 -0.0964  0.5212  0.2255
 9176TIP3    H149019   0.862   3.355  12.525 -0.0881  0.1035 -1.7881
 9176TIP3    H249020   0.790   3.478  12.576  0.9625 -0.6288  1.7082
 9177TIP3   OH249021   0.556   4.422   6.100 -0.1071  0.3359 -0.2433
 9177TIP3    H149022   0.504   4.372   6.162  0.6612  0.4988  0.5482
 9177TIP3    H249023   0.557   4.369   6.020 -0.8977  0.0146 -0.0424
 9178TIP3   OH249024   2.586   5.070  13.994  0.5750  0.6234  0.3051
 9178TIP3    H149025   2.661   5.059  13.935  1.2943  1.5965  1.0075
 9178TIP3    H249026   2.601   5.154  14.037 -0.5193  0.4652  1.0388
 9179TIP3   OH249027   4.852   4.692  13.215 -0.4130 -0.1785  0.3223
 9179TIP3    H149028   4.815   4.626  13.156  0.1351  0.3221 -0.6061
 9179TIP3    H249029   4.897   4.753  13.157 -1.6089  1.5018  1.0728
 9180TIP3   OH249030   0.013   0.215  12.171 -0.0436 -0.9127  0.3405
 9180TIP3    H149031   0.082   0.148  12.165  1.2669  0.5362 -1.8900
 9180TIP3    H249032   0.058   0.297  12.153 -2.1088  0.2959  0.4300
 9181TIP3   OH249033   4.730   6.774  15.968 -0.3727 -0.0821  0.0987
 9181TIP3    H149034   4.642   6.808  15.987 -0.9349 -0.9902 -0.8026
 9181TIP3    H249035   4.786   6.852  15.969 -1.2714  0.5793  0.1928
 9182TIP3   OH249036   4.589   3.702  13.890  0.6962  0.2546  0.3440
 9182TIP3    H149037   4.609   3.794  13.871  1.0890  0.6589  2.4232
 9182TIP3    H249038   4.587   3.698  13.986 -1.3101 -1.4879  0.2894
 9183TIP3   OH249039   5.264   0.990  15.739 -0.3277  0.1823 -0.6747
 9183TIP3    H149040   5.299   0.918  15.687 -0.9703 -0.4411 -0.2692
 9183TIP3    H249041   5.296   0.973  15.828 -2.3038 -0.8893 -0.1117
 9184TIP3   OH249042   1.024   5.757  13.269 -0.6719  0.5934 -0.4920
 9184TIP3    H149043   1.101   5.779  13.217  0.5968 -0.8741  0.6529
 9184TIP3    H249044   0.970   5.836  13.268  0.3096  1.2851 -2.2470
 9185TIP3   OH249045   4.144   1.030  15.474  0.4048  0.1282 -0.1757
 9185TIP3    H149046   4.109   1.116  15.497 -0.5239 -0.2418 -0.1583
 9185TIP3    H249047   4.131   0.978  15.553  2.1541  0.3016  0.2718
 9186TIP3   OH249048   0.112   6.361   2.080  0.2370 -0.1425  0.2756
 9186TIP3    H149049   0.125   6.452   2.053  1.1104 -0.6431 -1.1471
 9186TIP3    H249050   0.019   6.345   2.069  0.2800  0.2278 -0.7910
 9187TIP3   OH249051   4.558   2.153   6.572 -0.1347  0.5644 -0.5222
 9187TIP3    H149052   4.475   2.133   6.615  0.1190  0.6242  0.0014
 9187TIP3    H249053   4.563   2.091   6.499 -0.5844  0.4901 -0.4971
 9188TIP3   OH249054   4.851   5.008  14.906  0.4024  0.0492 -0.0113
 9188TIP3    H149055   4.922   5.063  14.938 -0.3017  0.6599  0.5586
 9188TIP3    H249056   4.794   5.069  14.858  0.7756 -0.6125 -1.3571
 9189TIP3   OH249057   2.373   0.868  14.351 -0.3660  0.4723 -0.7629
 9189TIP3    H149058   2.403   0.948  14.394 -0.7979  0.2819 -0.0843
 9189TIP3    H249059   2.344   0.896  14.264 -1.5405  1.2524 -0.1490
 9190TIP3   OH249060   3.862   5.602   5.706  0.5166 -0.3405  0.3071
 9190TIP3    H149061   3.904   5.561   5.631 -1.7606 -1.8039 -0.2750
 9190TIP3    H249062   3.827   5.684   5.672  0.5920 -0.3950  0.1004
 9191TIP3   OH249063   0.612   6.363   3.677  0.0088 -0.0753 -0.0536
 9191TIP3    H149064   0.539   6.425   3.678  1.3099  1.8250 -3.2653
 9191TIP3    H249065   0.680   6.405   3.730  0.8015  1.3276 -2.0277
 9192TIP3   OH249066   6.688   0.318  16.833 -0.0119 -0.2657 -0.3398
 9192TIP3    H149067   6.621   0.380  16.804  1.0360 -0.0904 -2.5881
 9192TIP3    H249068   6.639   0.242  16.863 -1.2400  0.3518 -0.7201
 9193TIP3   OH249069   3.135   5.418   1.331 -0.0015 -0.1643  0.1978
 9193TIP3    H149070   3.229   5.431   1.316 -0.3312  0.5020 -1.5502
 9193TIP3    H249071   3.126   5.416   1.426  1.8736 -0.9861  0.3963
 9194TIP3   OH249072   0.279   0.090  13.571  0.5759 -0.2249 -0.1713
 9194TIP3    H149073   0.211   0.142  13.614  0.7788  0.7662 -1.0177
 9194TIP3    H249074   0.286   0.011  13.625  0.7962  0.9533  1.6017
 9195TIP3   OH249075   2.875   3.137  13.583  0.3854  0.2661 -0.1967
 9195TIP3    H149076   2.875   3.048  13.548 -0.2217  0.6789 -1.3177
 9195TIP3    H249077   2.784   3.152  13.609  0.8081 -0.0100  1.5992
 9196TIP3   OH249078   3.060   2.341   3.644 -0.3357  0.0373 -0.4752
 9196TIP3    H149079   3.009   2.275   3.597 -0.7138 -0.6923  0.9165
 9196TIP3    H249080   3.110   2.385   3.575 -2.1128  0.1529 -1.7716
 9197TIP3   OH249081   1.201   0.825  15.739 -0.4961  0.1648  0.1663
 9197TIP3    H149082   1.227   0.782  15.820 -1.0159  0.2159  0.3655
 9197TIP3    H249083   1.111   0.855  15.755 -0.2564  1.0357 -0.0878
 9198TIP3   OH249084   4.596   4.128  17.256  0.0364  0.2371 -0.0210
 9198TIP3    H149085   4.563   4.180  17.183 -0.7702  0.0326  0.1800
 9198TIP3    H249086   4.520   4.077  17.285  0.3854  0.1930  0.8532
 9199TIP3   OH249087   3.146   2.664  15.857 -0.1179 -0.4612  0.3780
 9199TIP3    H149088   3.200   2.738  15.884  1.2607 -1.1411 -0.3976
 9199TIP3    H249089   3.176   2.592  15.912  1.5651 -1.4548 -1.7040
 9200TIP3   OH249090   3.979   3.148  16.719 -0.4397  0.2435 -0.4606
 9200TIP3    H149091   3.972   3.232  16.765  1.0326  1.3174 -2.0593
 9200TIP3    H249092   3.941   3.084  16.779  0.6385  1.6798  1.8822
 9201TIP3   OH249093   3.539   1.646   3.680  0.2873 -0.2858 -0.0837
 9201TIP3    H149094   3.592   1.661   3.759 -1.2009  1.9791  0.5906
 9201TIP3    H249095   3.582   1.698   3.612 -1.1611  1.9249  0.5742
 9202TIP3   OH249096   6.149   4.711  16.974  0.1039 -0.0377 -0.0189
 9202TIP3    H149097   6.176   4.758  16.894  0.3401  1.6886  1.0245
 9202TIP3    H249098   6.138   4.780  17.039 -2.1882 -1.1795  0.9013
 9203TIP3   OH249099   4.319   3.074  13.650 -0.6730 -0.1063  0.3911
 9203TIP3    H149100   4.390   3.012  13.668  0.5749  1.2890  0.5254
 9203TIP3    H249101   4.324   3.138  13.722 -0.9857  0.9329 -0.4751
 9204TIP3   OH249102   0.727   2.186  16.789 -0.1188 -0.7050 -0.1113
 9204TIP3    H149103   0.669   2.244  16.739 -2.1998 -2.6627 -0.1687
 9204TIP3    H249104   0.688   2.183  16.876 -0.6594 -2.6898 -0.3729
 9205TIP3   OH249105   5.654   5.749  14.686 -0.2913 -0.0151  0.1262
 9205TIP3    H149106   5.658   5.700  14.604  0.8634  0.8987 -0.3847
 9205TIP3    H249107   5.720   5.818  14.677  0.4576 -0.3905  2.1509
 9206TIP3   OH249108   1.492   2.733  12.898  0.6469 -0.0465  1.0165
 9206TIP3    H149109   1.475   2.641  12.919 -1.9439 -0.6510 -2.6312
 9206TIP3    H249110   1.567   2.731  12.839  1.1686  0.2995  1.6657
 9207TIP3   OH249111   5.248   4.167  11.746 -0.0066 -0.2320 -0.4051
 9207TIP3    H149112   5.318   4.199  11.803 -1.1517 -0.6760  1.3560
 9207TIP3    H249113   5.283   4.089  11.704 -0.4308 -2.5423  3.1044
 9208TIP3   OH249114   0.732   2.561  11.486 -0.2899  0.3012  0.2868
 9208TIP3    H149115   0.702   2.639  11.440 -0.2096 -1.0466 -2.2394
 9208TIP3    H249116   0.652   2.516  11.512 -0.3454  0.6416  0.7151
 9209TIP3   OH249117   5.999   0.439   1.018 -0.4199  0.1273  0.1597
 9209TIP3    H149118   5.937   0.491   0.969 -0.1080  0.8915  0.5618
 9209TIP3    H249119   5.949   0.405   1.093 -0.2638  1.0793  0.7087
 9210TIP3   OH249120   1.957   5.998  12.471  0.4173  0.6407  0.0874
 9210TIP3    H149121   1.882   6.010  12.413  0.7649 -2.1428 -1.0682
 9210TIP3    H249122   1.919   5.974  12.555 -0.0513 -0.9499 -0.5423
 9211TIP3   OH249123   5.272   0.135  15.947 -0.0389  0.5191  0.8348
 9211TIP3    H149124   5.206   0.142  16.015 -0.9723 -1.9396  0.3047
 9211TIP3    H249125   5.226   0.158  15.866  0.1725  0.3056  0.6517
 9212TIP3   OH249126   1.005   2.901  11.692  0.4071  0.2974 -0.1416
 9212TIP3    H149127   1.058   2.878  11.615 -1.6187 -1.9376 -0.9857
 9212TIP3    H249128   1.066   2.898  11.765  1.4529 -2.5751 -1.0057
 9213TIP3   OH249129   5.517   0.798  17.226 -0.0987 -0.2572  0.5209
 9213TIP3    H149130   5.514   0.810  17.320 -0.6074  1.5281  0.3116
 9213TIP3    H249131   5.601   0.836  17.199 -0.4742  0.3067  0.1285
 9214TIP3   OH249132   4.516   6.617  14.905 -0.1424  0.0315 -0.9696
 9214TIP3    H149133   4.518   6.553  14.834  0.7423 -2.0838  0.8531
 9214TIP3    H249134   4.489   6.699  14.863  1.6693 -0.7805 -3.9656
 9215TIP3   OH249135   6.277   1.487  15.110 -0.0950 -0.0214 -0.2903
 9215TIP3    H149136   6.303   1.578  15.100  1.2353 -0.1530  1.5802
 9215TIP3    H249137   6.204   1.476  15.048 -0.6765  2.4467 -0.1443
 9216TIP3   OH249138   4.517   0.173  16.916 -0.2044 -0.0671 -0.1507
 9216TIP3    H149139   4.607   0.147  16.935  0.1475  0.2867 -1.2638
 9216TIP3    H249140   4.513   0.266  16.937 -0.2837 -0.0634 -0.1787
 9217TIP3   OH249141   6.320   2.245   0.320  0.3227  0.4379  0.6090
 9217TIP3    H149142   6.272   2.168   0.350 -0.2986  0.7210  0.3477
 9217TIP3    H249143   6.308   2.245   0.225 -3.0108  2.9922  0.8600
 9218TIP3   OH249144   2.520   4.571  17.127  0.3362 -0.1831 -0.0591
 9218TIP3    H149145   2.504   4.516  17.051 -1.3774  0.7610 -0.4245
 9218TIP3    H249146   2.604   4.540  17.161  0.9797 -0.8954 -2.0911
 9219TIP3   OH249147   6.485   5.670   1.097 -0.0773  1.4176  0.4371
 9219TIP3    H149148   6.464   5.699   1.186 -0.7910  2.3533 -0.0155
 9219TIP3    H249149   6.435   5.589   1.086 -0.5479  1.6747  0.6497
 9220TIP3   OH249150   1.894   5.866  13.398 -0.4101  0.1277  0.0872
 9220TIP3    H149151   1.903   5.771  13.409  1.6001  0.2774  0.0956
 9220TIP3    H249152   1.955   5.887  13.328 -1.4810  1.3241 -0.5189
 9221TIP3   OH249153   1.882   3.097  15.849  0.4873  0.1821  0.4442
 9221TIP3    H149154   1.948   3.059  15.789  1.0102  0.2139  0.9885
 9221TIP3    H249155   1.827   3.022  15.874  0.0773  0.2223 -0.3032
 9222TIP3   OH249156   4.832   5.170  11.693  0.0204  0.3367 -0.6640
 9222TIP3    H149157   4.922   5.199  11.676 -0.7195  1.6776 -2.7045
 9222TIP3    H249158   4.827   5.084  11.650 -0.2488  1.2740 -2.6492
 9223TIP3   OH249159   6.092   3.099   4.643 -0.5190  0.2626 -0.3449
 9223TIP3    H149160   6.175   3.113   4.690 -0.2047  1.5307 -1.2317
 9223TIP3    H249161   6.045   3.181   4.652 -2.1478 -0.7408  0.9400
 9224TIP3   OH249162   0.781   1.500  14.510  0.2831  0.0681  0.1021
 9224TIP3    H149163   0.686   1.491  14.504  0.4081 -0.5031 -1.1201
 9224TIP3    H249164   0.808   1.431  14.571 -0.0013 -0.2488 -0.1336
 9225TIP3   OH249165   0.817   5.995  16.627 -0.1434  0.3923 -0.5739
 9225TIP3    H149166   0.909   6.008  16.604 -0.0208 -1.5370 -1.3975
 9225TIP3    H249167   0.817   5.989  16.722  1.6261 -5.2664 -0.5896
 9226TIP3   OH249168   3.902   4.835   4.604  0.1905 -0.2821 -0.2878
 9226TIP3    H149169   3.897   4.758   4.661 -1.7548 -1.1129 -1.5008
 9226TIP3    H249170   3.958   4.808   4.531  1.3469  0.2383  0.3838
 9227TIP3   OH249171   5.821   1.941  13.835  0.1709 -0.3195  0.1604
 9227TIP3    H149172   5.760   1.983  13.895  0.7149  2.1453 -0.9058
 9227TIP3    H249173   5.907   1.952  13.876  0.2473 -1.1649  0.2527
 9228TIP3   OH249174   4.293   5.629  12.314 -0.2600 -0.4161  0.5960
 9228TIP3    H149175   4.359   5.560  12.309 -0.5729 -0.6636 -0.2248
 9228TIP3    H249176   4.255   5.633  12.227 -1.5477 -0.4840  1.1301
 9229TIP3   OH249177   4.214   6.260   0.290  0.0465  0.2320 -0.3838
 9229TIP3    H149178   4.197   6.323   0.220 -0.3365  1.2645  0.6102
 9229TIP3    H249179   4.295   6.216   0.264 -1.6344 -1.6377 -3.0074
 9230TIP3   OH249180   1.340   2.159  16.556 -0.2951  0.5315 -0.1053
 9230TIP3    H149181   1.390   2.183  16.634  0.8796 -1.5324 -0.1407
 9230TIP3    H249182   1.337   2.063  16.559 -1.3439  0.4741 -1.9195
 9231TIP3   OH249183   4.998   2.227   5.261 -0.3754  0.2154  0.0830
 9231TIP3    H149184   4.962   2.315   5.262 -0.6628  0.1007 -0.0969
 9231TIP3    H249185   4.954   2.184   5.188  0.5497  0.2496 -0.5103
 9232TIP3   OH249186   1.272   2.207  12.440 -0.0361  0.2634  0.2420
 9232TIP3    H149187   1.192   2.170  12.401  0.3156  0.6753 -0.8978
 9232TIP3    H249188   1.293   2.147  12.512 -1.0749 -0.1468  0.2281
 9233TIP3   OH249189   6.312   4.398   0.256 -0.8960  0.1583 -0.2336
 9233TIP3    H149190   6.392   4.451   0.259 -1.6232  1.2469  1.1478
 9233TIP3    H249191   6.275   4.415   0.170  0.0888  0.0469 -0.6908
 9234TIP3   OH249192   2.161   5.857  17.269  0.4354  0.8853 -0.0497
 9234TIP3    H149193   2.068   5.835  17.269 -0.5098  4.2957  1.0266
 9234TIP3    H249194   2.193   5.828  17.184 -2.1088  1.3317 -1.2363
 9235TIP3   OH249195   6.375   0.467   0.381  0.7190  0.0075  0.2445
 9235TIP3    H149196   6.314   0.516   0.435  0.9452  1.4652 -0.7394
 9235TIP3    H249197   6.326   0.449   0.300  0.7828 -1.0211  0.4309
 9236TIP3   OH249198   1.573   1.652   1.514  0.2661  0.3496  0.2530
 9236TIP3    H149199   1.660   1.613   1.517 -0.4851 -1.4592 -0.0306
 9236TIP3    H249200   1.547   1.658   1.606 -0.2724 -1.4925  0.2580
 9237TIP3   OH249201   3.654   0.969   1.056 -0.3784  0.3072  0.2988
 9237TIP3    H149202   3.725   0.937   1.001  0.6084  1.6361  0.7466
 9237TIP3    H249203   3.673   1.062   1.070 -1.7660  0.5157  1.1058
 9238TIP3   OH249204   6.287   5.241   4.457 -0.1848  0.0765 -0.0813
 9238TIP3    H149205   6.315   5.232   4.366  0.5455  1.6939 -0.0480
 9238TIP3    H249206   6.234   5.320   4.459  1.1208  0.9645  1.1610
 9239TIP3   OH249207   6.229   3.203  16.767 -0.7142  0.0318 -0.1976
 9239TIP3    H149208   6.136   3.184  16.781 -1.1837  1.9275 -0.4751
 9239TIP3    H249209   6.270   3.187  16.852 -1.4470  0.0449  0.1620
 9240TIP3   OH249210   0.243   3.226   4.211  0.0573  0.2018 -0.0875
 9240TIP3    H149211   0.276   3.308   4.174 -0.1818  0.2761 -0.1353
 9240TIP3    H249212   0.186   3.190   4.143 -0.0664  0.1385  0.0499
 9241TIP3   OH249213   2.150   3.005   3.581  0.7073 -0.2669 -0.4943
 9241TIP3    H149214   2.230   2.956   3.597  0.0891 -0.9596  0.6086
 9241TIP3    H249215   2.107   3.009   3.666 -0.4993 -0.0433 -1.0908
 9242TIP3   OH249216   0.300   3.119  13.670  0.2844 -0.3691  0.3893
 9242TIP3    H149217   0.252   3.154  13.745 -0.1355 -1.0286  0.4452
 9242TIP3    H249218   0.243   3.049  13.637  0.8877 -0.6932  0.0205
 9243TIP3   OH249219   5.330   5.675  10.926 -0.0515 -0.2575  0.0187
 9243TIP3    H149220   5.417   5.714  10.930 -0.3124  0.4774 -0.9349
 9243TIP3    H249221   5.341   5.586  10.959  1.1898 -0.3875 -0.6968
 9244TIP3   OH249222   1.482   5.275  15.740 -0.0800  0.2860  0.2887
 9244TIP3    H149223   1.488   5.192  15.787 -1.3757 -0.6650 -1.1182
 9244TIP3    H249224   1.415   5.259  15.673  0.4139  2.1404 -0.6967
 9245TIP3   OH249225   6.675   3.011   5.750  0.2294 -0.7277  0.3187
 9245TIP3    H149226   6.733   3.039   5.821  0.9948  1.9538 -1.2288
 9245TIP3    H249227   6.735   2.986   5.679 -0.4274  0.7120 -0.8018
 9246TIP3   OH249228   2.232   5.491   5.847 -0.2037 -0.0306  0.0594
 9246TIP3    H149229   2.230   5.497   5.943 -0.8408 -2.8030  0.3087
 9246TIP3    H249230   2.147   5.525   5.819  0.3203  1.6074  0.3681
 9247TIP3   OH249231   1.109   5.510   6.299  0.1989 -0.5387 -0.1037
 9247TIP3    H149232   1.137   5.592   6.339  0.0722 -0.2916 -0.5078
 9247TIP3    H249233   1.018   5.527   6.272  0.2635 -0.7182 -0.4337
 9248TIP3   OH249234   5.618   5.750  13.456 -0.6148 -0.4585 -0.0175
 9248TIP3    H149235   5.534   5.710  13.479 -0.3291 -0.3279  1.3246
 9248TIP3    H249236   5.677   5.675  13.444 -0.3119 -0.5012  1.5679
 9249TIP3   OH249237   6.291   1.091  12.506  0.3853 -0.2081 -0.3945
 9249TIP3    H149238   6.364   1.143  12.540  1.7287 -2.2892  0.1372
 9249TIP3    H249239   6.331   1.034  12.440 -1.0769 -0.3113 -1.2158
 9250TIP3   OH249240   4.363   6.226   3.165  0.6835 -0.0251  0.0163
 9250TIP3    H149241   4.357   6.153   3.103  2.6081  0.2588 -0.5721
 9250TIP3    H249242   4.349   6.186   3.251 -0.8898 -0.6175 -0.4915
 9251TIP3   OH249243   4.816   0.109   5.842  0.0922 -0.1426 -0.0432
 9251TIP3    H149244   4.905   0.087   5.868  0.1015  0.6917  0.6641
 9251TIP3    H249245   4.825   0.145   5.753  0.3238 -0.9723 -0.3645
 9252TIP3   OH249246   0.531   4.901  12.108 -0.1638 -0.1477  0.2675
 9252TIP3    H149247   0.606   4.911  12.165  0.5955 -0.4476 -0.6530
 9252TIP3    H249248   0.456   4.898  12.168  0.5093  0.5044  1.1702
 9253TIP3   OH249249   1.279   2.722   3.579  0.0455 -0.2983 -0.2087
 9253TIP3    H149250   1.367   2.758   3.584 -0.2867  0.6876 -1.0890
 9253TIP3    H249251   1.225   2.793   3.545 -1.2614 -0.6058  1.0809
 9254TIP3   OH249252   3.908   6.458  16.861 -0.2743  0.2658 -0.3464
 9254TIP3    H149253   3.884   6.377  16.905  2.0596 -0.1236  0.3622
 9254TIP3    H249254   3.853   6.525  16.902 -0.1374 -0.5281  1.2101
 9255TIP3   OH249255   6.513   0.522   0.092 -0.3246 -0.2476  0.4829
 9255TIP3    H149256   6.429   0.563   0.116 -0.0165  0.4875  0.3062
 9255TIP3    H249257   6.564   0.524   0.173  0.0037  0.4925  0.2620
 9256TIP3   OH249258   3.088   5.048   0.176  0.1638  0.4360  0.8406
 9256TIP3    H149259   3.066   5.108   0.106 -0.1244 -1.8418 -1.1592
 9256TIP3    H249260   3.184   5.040   0.172  0.1054 -0.0938  0.3074
 9257TIP3   OH249261   2.658   4.365   3.931 -0.3128  0.1476 -0.4145
 9257TIP3    H149262   2.705   4.283   3.917  0.9216  0.8803 -0.7892
 9257TIP3    H249263   2.660   4.378   4.026  0.8377  0.4762 -0.4650
 9258TIP3   OH249264   4.700   5.581   1.819  0.0180  0.3955  0.2271
 9258TIP3    H149265   4.732   5.594   1.909 -0.9405  0.7984  0.5182
 9258TIP3    H249266   4.747   5.646   1.767  1.0200 -0.2263  0.3142
 9259TIP3   OH249267   4.472   4.293   2.898  0.1434 -0.4534 -0.2270
 9259TIP3    H149268   4.560   4.322   2.920  0.0637 -0.4745  0.1247
 9259TIP3    H249269   4.418   4.372   2.905  0.1510 -0.4202 -0.5381
 9260TIP3   OH249270   5.276   1.705   5.647 -0.1894 -0.1859 -0.0311
 9260TIP3    H149271   5.210   1.718   5.579 -0.4342 -2.4612 -0.3137
 9260TIP3    H249272   5.279   1.788   5.694  0.1224  1.5733 -2.8895
 9261TIP3   OH249273   5.659   6.652   2.389  0.2343 -0.3494  0.2287
 9261TIP3    H149274   5.631   6.736   2.426  0.3712  0.7513 -1.9998
 9261TIP3    H249275   5.754   6.655   2.392  0.2652  0.1022 -0.9029
 9262TIP3   OH249276   2.648   5.176  14.625  0.6618  0.8920 -0.5307
 9262TIP3    H149277   2.675   5.199  14.536 -0.3270 -1.5124 -1.5318
 9262TIP3    H249278   2.715   5.114  14.655  0.3104  0.7272 -0.0819
 9263TIP3   OH249279   2.774   1.171  15.394 -0.1970  0.1548  0.3607
 9263TIP3    H149280   2.857   1.206  15.424  0.3277 -0.7644  0.0397
 9263TIP3    H249281   2.729   1.245  15.355  0.2693  0.7631  0.9526
 9264TIP3   OH249282   6.040   1.406  13.538  0.2198  0.4363 -0.4941
 9264TIP3    H149283   5.964   1.376  13.588 -0.9705 -0.4703 -2.7189
 9264TIP3    H249284   6.090   1.459  13.600 -1.4953 -0.0870  1.4375
 9265TIP3   OH249285   3.702   5.246  11.229 -0.3601 -0.1189 -0.1773
 9265TIP3    H149286   3.615   5.248  11.268 -0.1701  1.1314  0.2489
 9265TIP3    H249287   3.727   5.154  11.230 -0.9290 -0.2901  1.3703
 9266TIP3   OH249288   5.239   2.269  13.555  0.3569  0.2593 -0.2814
 9266TIP3    H149289   5.207   2.278  13.466 -0.7211 -0.1790  0.0368
 9266TIP3    H249290   5.220   2.178  13.578  0.3659  0.4446  0.4903
 9267TIP3   OH249291   5.014   3.187  11.340 -0.1403  0.6491  0.3913
 9267TIP3    H149292   5.014   3.184  11.245 -1.0871  0.2959  0.3908
 9267TIP3    H249293   5.036   3.098  11.367  0.8356  0.9152  0.5177
 9268TIP3   OH249294   5.019   5.605  13.215 -0.3421 -0.1171 -0.3168
 9268TIP3    H149295   4.940   5.596  13.269  1.2633  0.3360  2.2977
 9268TIP3    H249296   4.998   5.675  13.153 -1.9877 -0.0289  0.2786
 9269TIP3   OH249297   1.390   0.442  14.013  0.1055 -0.3371 -0.0562
 9269TIP3    H149298   1.349   0.449  14.100  1.0220  0.3045  0.3438
 9269TIP3    H249299   1.325   0.477  13.953 -0.8288 -1.4453  0.2693
 9270TIP3   OH249300   0.630   2.597  11.176  0.1222  0.2764 -0.2560
 9270TIP3    H149301   0.632   2.573  11.084  0.2581 -0.3719 -0.0901
 9270TIP3    H249302   0.546   2.564  11.208 -0.2005  1.0525 -0.2906
 9271TIP3   OH249303   4.090   0.981  12.323 -0.0271  0.1478  0.8434
 9271TIP3    H149304   4.099   0.933  12.240  0.8955 -2.2334  2.2160
 9271TIP3    H249305   4.066   1.070  12.297 -0.6922 -0.7508 -1.9260
 9272TIP3   OH249306   5.717   4.082   3.121  0.0523  0.7870  0.2464
 9272TIP3    H149307   5.767   4.000   3.126  0.9287  1.2957  0.0645
 9272TIP3    H249308   5.626   4.054   3.116  0.4166 -0.2519 -1.6791
 9273TIP3   OH249309   6.068   3.868   5.242  0.3178 -0.2135 -0.1148
 9273TIP3    H149310   6.118   3.941   5.278 -0.5768  0.4057 -0.1000
 9273TIP3    H249311   6.117   3.842   5.163  0.4438  0.6534 -0.3313
 9274TIP3   OH249312   6.587   0.878  12.861  0.2057  0.0010  0.0541
 9274TIP3    H149313   6.571   0.896  12.953 -0.2501 -1.1201  0.2133
 9274TIP3    H249314   6.508   0.908  12.816  1.5575  3.3063 -0.4114
 9275TIP3   OH249315   6.543   3.705  16.840 -0.2029  0.2016  0.2970
 9275TIP3    H149316   6.629   3.713  16.798 -0.3855  0.2817 -0.0654
 9275TIP3    H249317   6.558   3.730  16.931  0.2039  0.0008  0.2893
 9276TIP3   OH249318   4.198   2.092   3.324 -0.0915  0.0785 -0.0120
 9276TIP3    H149319   4.162   2.180   3.315  0.8651  0.6760  1.5941
 9276TIP3    H249320   4.286   2.098   3.287 -0.0756 -0.2533 -0.0329
 9277TIP3   OH249321   5.941   1.323   3.332  0.5211 -0.5064 -0.8383
 9277TIP3    H149322   5.880   1.264   3.287 -1.5952  1.0939 -0.2460
 9277TIP3    H249323   5.954   1.395   3.271  0.5567 -0.0804 -0.3362
 9278TIP3   OH249324   2.036   1.881  14.344  0.0329 -0.2752 -0.5732
 9278TIP3    H149325   2.015   1.886  14.251 -1.7879 -3.9519 -0.5504
 9278TIP3    H249326   2.080   1.797  14.354 -0.4841 -0.3317  1.9841
 9279TIP3   OH249327   3.769   5.557   1.916 -0.1482  0.5764  0.3584
 9279TIP3    H149328   3.728   5.624   1.971 -0.5787  0.7126 -0.1151
 9279TIP3    H249329   3.700   5.532   1.855  0.2572  0.2690  0.0242
 9280TIP3   OH249330   0.975   1.315   2.200  0.0249 -0.6571 -0.0943
 9280TIP3    H149331   0.908   1.378   2.175  0.8386  0.1832 -0.2090
 9280TIP3    H249332   1.054   1.368   2.215  0.4213 -1.5053  0.9880
 9281TIP3   OH249333   1.111   6.249   4.697 -0.9916  0.1899 -0.0793
 9281TIP3    H149334   1.032   6.300   4.682 -1.2242  0.1470  0.8856
 9281TIP3    H249335   1.173   6.312   4.734  0.0435  0.6219 -2.3879
 9282TIP3   OH249336   6.388   3.925  14.209 -0.4485  0.8662 -0.0847
 9282TIP3    H149337   6.413   4.007  14.252  1.4735  0.4427 -0.2928
 9282TIP3    H249338   6.414   3.857  14.271 -0.1880  0.3500 -0.7444
 9283TIP3   OH249339   1.880   3.345   3.675 -0.2265 -0.1199  0.4011
 9283TIP3    H149340   1.937   3.357   3.600  0.4637 -0.9583  0.7764
 9283TIP3    H249341   1.795   3.322   3.637 -0.6173  2.0969 -0.1956
 9284TIP3   OH249342   0.045   2.295   1.477 -0.4046  0.0866 -0.4623
 9284TIP3    H149343   0.115   2.314   1.540 -1.2567 -0.0257  0.5548
 9284TIP3    H249344   0.032   2.201   1.483 -1.3306  0.2319  0.1449
 9285TIP3   OH249345   0.997   1.245  16.794 -0.0587 -0.7712  0.2954
 9285TIP3    H149346   1.025   1.186  16.864  1.9766  0.5897  0.7258
 9285TIP3    H249347   1.065   1.237  16.727  0.3291  1.0820  0.4038
 9286TIP3   OH249348   0.349   5.402   4.251  0.1022 -0.1527  0.0929
 9286TIP3    H149349   0.332   5.311   4.229 -0.1426  0.5092 -2.8284
 9286TIP3    H249350   0.266   5.447   4.238  0.8239  0.8979 -1.1697
 9287TIP3   OH249351   1.547   1.646   4.399 -0.4368 -0.2420  0.1065
 9287TIP3    H149352   1.539   1.554   4.374 -1.4928 -0.1798  0.1847
 9287TIP3    H249353   1.458   1.681   4.391 -0.1929  0.5743  0.8618
 9288TIP3   OH249354   3.007   3.939   1.798 -0.3718 -0.2767 -0.6031
 9288TIP3    H149355   3.073   3.999   1.763 -0.4591 -0.0708 -0.4187
 9288TIP3    H249356   2.930   3.953   1.741 -0.5440  0.1253 -0.2778
 9289TIP3   OH249357   0.115   2.324  14.540 -0.1079  1.1106 -0.6558
 9289TIP3    H149358   0.166   2.358  14.614  0.0314 -0.2274 -0.1071
 9289TIP3    H249359   0.174   2.333  14.465  0.7984  0.0293 -0.1136
 9290TIP3   OH249360   5.856   1.290   3.882 -0.2235 -0.2812 -0.3598
 9290TIP3    H149361   5.784   1.232   3.905  0.2523 -0.7543 -0.0252
 9290TIP3    H249362   5.896   1.312   3.966  0.2062 -0.2786 -0.5635
 9291TIP3   OH249363   2.154   0.413  13.116 -0.5151 -0.0255  0.8864
 9291TIP3    H149364   2.162   0.418  13.211  1.2245 -1.4523  0.8626
 9291TIP3    H249365   2.236   0.451  13.084 -0.8865  0.0049 -0.0424
 9292TIP3   OH249366   6.410   2.593  13.305 -0.0486 -0.6805  0.0422
 9292TIP3    H149367   6.367   2.605  13.390 -0.8280 -1.2461 -0.2590
 9292TIP3    H249368   6.393   2.675  13.259 -1.0601 -0.9850 -0.1663
 9293TIP3   OH249369   4.401   4.159  15.031 -0.5275 -0.0496 -0.2037
 9293TIP3    H149370   4.329   4.106  15.067 -0.0108 -0.4828  0.2124
 9293TIP3    H249371   4.397   4.143  14.936  0.0018 -1.3479 -0.0301
 9294TIP3   OH249372   1.125   2.244   6.263 -0.4075 -0.0444  0.0953
 9294TIP3    H149373   1.070   2.314   6.228  0.6379  0.8757  0.2020
 9294TIP3    H249374   1.211   2.285   6.274  0.4328 -1.5436 -0.5292
 9295TIP3   OH249375   6.680   0.858   0.805 -0.2762  0.1987 -0.0781
 9295TIP3    H149376   6.649   0.768   0.804  0.6231 -0.1297  1.1533
 9295TIP3    H249377   6.751   0.860   0.869  1.7410  1.1208 -2.1834
 9296TIP3   OH249378   3.371   0.600  15.178 -0.7024 -0.3020 -0.1714
 9296TIP3    H149379   3.314   0.634  15.248 -0.8007 -0.1125 -0.3418
 9296TIP3    H249380   3.452   0.577  15.223 -0.2855  1.0585 -0.1942
 9297TIP3   OH249381   5.629   2.564   0.307  0.5199 -0.1597  0.1965
 9297TIP3    H149382   5.607   2.586   0.397 -0.3735 -1.3714  0.3040
 9297TIP3    H249383   5.705   2.506   0.314  1.6383  1.2356  0.0322
 9298TIP3   OH249384   1.885   1.823   2.003  0.3284 -0.7062  0.7152
 9298TIP3    H149385   1.793   1.841   1.985  0.8122  0.2203 -1.0484
 9298TIP3    H249386   1.884   1.741   2.053 -1.5159  0.1388  2.2093
 9299TIP3   OH249387   0.101   1.308  15.714 -0.6003  0.5467 -0.0998
 9299TIP3    H149388   0.034   1.255  15.757  1.3207 -0.1913  2.2152
 9299TIP3    H249389   0.144   1.247  15.653 -0.0306  0.1049  0.7215
 9300TIP3   OH249390   6.430   5.927   0.967  0.1791 -0.4945  0.2659
 9300TIP3    H149391   6.347   5.899   0.930  0.9857 -0.6552 -1.5407
 9300TIP3    H249392   6.474   5.846   0.994  0.1428 -0.4894  0.3405
 9301TIP3   OH249393   0.081   2.921  17.212 -0.2126  0.6479  0.4022
 9301TIP3    H149394   0.106   2.966  17.293 -2.1369  0.2214  1.2865
 9301TIP3    H249395  -0.007   2.954  17.192 -0.4426 -0.4954 -0.5898
 9302TIP3   OH249396   0.101   3.307   5.659 -0.5448  0.2538  0.5703
 9302TIP3    H149397   0.140   3.310   5.746 -1.0509 -2.6713  1.0037
 9302TIP3    H249398   0.007   3.315   5.674 -0.6051  0.1452  0.2639
 9303TIP3   OH249399   3.602   2.710   0.478  0.1167  0.5814 -0.0573
 9303TIP3    H149400   3.698   2.702   0.486  0.0811 -0.1019 -0.1889
 9303TIP3    H249401   3.588   2.796   0.439  0.8776 -0.5103 -2.9961
 9304TIP3   OH249402   1.731   5.093   5.496 -0.0502  0.2350  0.1927
 9304TIP3    H149403   1.794   5.059   5.560 -0.6051  1.5537  1.4927
 9304TIP3    H249404   1.658   5.125   5.548  0.0570  2.5869 -0.9908
 9305TIP3   OH249405   0.208   4.815  12.060 -0.3099 -0.3578 -0.8089
 9305TIP3    H149406   0.183   4.873  12.132  0.7115 -1.4952  0.5416
 9305TIP3    H249407   0.129   4.764  12.042  0.0782 -2.0055  1.5187
 9306TIP3   OH249408   2.556   0.496   0.984  0.2465  0.3755  0.0720
 9306TIP3    H149409   2.568   0.405   1.011  2.8801  1.0369  1.5219
 9306TIP3    H249410   2.512   0.538   1.058  0.5424  0.5858  0.1361
 9307TIP3   OH249411   3.192   0.833   4.587  0.5462  0.5245 -0.1323
 9307TIP3    H149412   3.169   0.920   4.619  2.4264  0.5487  1.2761
 9307TIP3    H249413   3.267   0.846   4.529  1.1925 -0.1899  0.5165
 9308TIP3   OH249414   6.476   4.040  11.312  0.3461  0.1885 -0.3302
 9308TIP3    H149415   6.419   3.966  11.333  1.9264 -1.0329 -0.1729
 9308TIP3    H249416   6.444   4.073  11.228 -0.2348 -0.8238 -0.5119
 9309TIP3   OH249417   2.393   0.322   0.219  0.3934  1.1831  0.1978
 9309TIP3    H149418   2.322   0.385   0.233 -0.9377 -0.1738 -0.1149
 9309TIP3    H249419   2.369   0.278   0.137  1.4559  0.4886  0.2435
 9310TIP3   OH249420   5.604   0.292  10.922  0.2087  0.1527  0.2828
 9310TIP3    H149421   5.626   0.374  10.967 -0.2296  0.3757  0.0990
 9310TIP3    H249422   5.653   0.225  10.969 -0.8102  0.2809  1.5533
 9311TIP3   OH249423   1.303   0.952   5.747  0.4008  0.0325 -0.0550
 9311TIP3    H149424   1.341   0.955   5.834  0.7604 -0.2945 -0.1967
 9311TIP3    H249425   1.227   1.010   5.752 -0.1628 -0.7477  0.7528
 9312TIP3   OH249426   4.652   6.285  16.288 -0.7926 -0.3018  0.0849
 9312TIP3    H149427   4.592   6.329  16.349 -0.1561  1.8602 -0.7658
 9312TIP3    H249428   4.729   6.341  16.285 -0.4083 -0.8606 -1.9780
 9313TIP3   OH249429   0.207   4.944   5.102 -0.5715  0.9828 -0.1348
 9313TIP3    H149430   0.206   5.001   5.025  1.4626 -0.0689 -1.0213
 9313TIP3    H249431   0.290   4.962   5.144 -0.0655 -0.9669 -0.1980
 9314TIP3   OH249432   1.538   2.986   4.734 -0.2849 -0.2393  0.4571
 9314TIP3    H149433   1.521   2.967   4.826  0.0562 -2.8014  0.0879
 9314TIP3    H249434   1.593   2.913   4.705 -1.2736 -0.1050 -2.0323
 9315TIP3   OH249435   3.313   0.040   1.855 -0.2087  0.2179 -0.0513
 9315TIP3    H149436   3.248   0.095   1.811 -0.5180 -0.1120 -0.0183
 9315TIP3    H249437   3.304   0.062   1.948 -1.5134 -1.0544  0.1781
 9316TIP3   OH249438   2.765   4.033   3.352  0.1413 -0.2522 -0.0279
 9316TIP3    H149439   2.704   4.066   3.286 -0.6359 -2.8592 -0.7049
 9316TIP3    H249440   2.745   4.085   3.430 -3.2715 -1.2167 -0.1008
 9317TIP3   OH249441   5.108   2.046   5.686 -0.1387 -0.1118  0.3130
 9317TIP3    H149442   5.142   2.116   5.630 -2.2213 -0.1120 -1.0777
 9317TIP3    H249443   5.161   2.050   5.765  2.5488  0.2858 -1.3925
 9318TIP3   OH249444   4.371   5.650  12.874 -0.0749  0.0016 -0.0396
 9318TIP3    H149445   4.346   5.644  12.781 -0.3668  1.7164 -0.1014
 9318TIP3    H249446   4.466   5.666  12.872 -0.1612  0.4979 -0.0508
 9319TIP3   OH249447   5.560   0.526   0.662  0.0376  0.0222  0.0797
 9319TIP3    H149448   5.490   0.566   0.610  1.4375  1.8437 -0.4989
 9319TIP3    H249449   5.541   0.551   0.752  0.2979  1.0994 -0.1544
 9320TIP3   OH249450   4.345   0.569   2.848 -0.3494 -0.3138 -0.1862
 9320TIP3    H149451   4.440   0.576   2.860 -0.2534 -1.9739  0.3801
 9320TIP3    H249452   4.319   0.652   2.810  1.5237 -0.2596 -1.4878
 9321TIP3   OH249453   5.647   4.117   0.482 -0.5877  0.4794 -0.0201
 9321TIP3    H149454   5.559   4.082   0.487  0.5653 -2.5666  0.7664
 9321TIP3    H249455   5.703   4.041   0.467  1.9462  2.2526 -0.2158
 9322TIP3   OH249456   2.625   4.628   1.432 -0.3360 -0.0815  0.1487
 9322TIP3    H149457   2.601   4.671   1.349  0.7932  1.9482  0.7918
 9322TIP3    H249458   2.718   4.605   1.420 -1.1312 -3.4663 -0.5589
 9323TIP3   OH249459   5.989   3.758  13.168 -0.2340 -0.4205 -0.5943
 9323TIP3    H149460   5.923   3.751  13.237  0.1677 -1.0954 -0.2612
 9323TIP3    H249461   6.045   3.830  13.195 -2.4779  2.1748 -2.3491
 9324TIP3   OH249462   5.059   4.323  16.241  0.2384 -0.7538  0.0372
 9324TIP3    H149463   5.063   4.330  16.146 -0.2549  1.4997  0.1327
 9324TIP3    H249464   5.150   4.322  16.269  0.3912 -1.8668 -0.4642
 9325TIP3   OH249465   3.330   1.896   5.349 -0.4856 -0.2625  0.0126
 9325TIP3    H149466   3.416   1.856   5.332 -1.5601 -2.2163 -1.2102
 9325TIP3    H249467   3.312   1.949   5.271 -0.9858 -1.0437 -0.4247
 9326TIP3   OH249468   3.150   1.752   2.881  0.2529  0.8100  0.2475
 9326TIP3    H149469   3.213   1.801   2.828 -0.8522 -0.3378 -2.3068
 9326TIP3    H249470   3.065   1.789   2.858 -0.3119 -0.1353  0.7300
 9327TIP3   OH249471   2.743   3.906  14.489  0.1279  0.2281  0.4758
 9327TIP3    H149472   2.791   3.827  14.464 -1.0251 -0.0985 -0.8344
 9327TIP3    H249473   2.674   3.876  14.548  0.4517  0.4491  0.9750
 9328TIP3   OH249474   0.439   3.164  17.218  0.4336  0.0546  0.4741
 9328TIP3    H149475   0.489   3.104  17.162 -1.9983 -0.7604 -0.9798
 9328TIP3    H249476   0.432   3.119  17.302 -0.8715 -1.4938 -0.4266
 9329TIP3   OH249477   1.577   4.891   5.932 -0.1248 -0.0036 -0.5745
 9329TIP3    H149478   1.507   4.836   5.967 -1.4675  2.4251  0.8604
 9329TIP3    H249479   1.549   4.911   5.842 -1.4866  1.1197  0.0495
 9330TIP3   OH249480   4.087   2.660   0.928 -0.5952  0.0144 -0.4814
 9330TIP3    H149481   4.100   2.733   0.867  1.2896 -1.0298 -1.4036
 9330TIP3    H249482   4.175   2.637   0.958 -0.8106 -3.2795 -1.9221
 9331TIP3   OH249483   6.482   4.019   6.148 -0.2024 -0.5458 -0.6867
 9331TIP3    H149484   6.410   4.059   6.099 -0.2116 -0.8500 -0.9249
 9331TIP3    H249485   6.474   4.055   6.236  0.3192  0.6502 -1.1163
 9332TIP3   OH249486   1.791   5.727  13.662  0.4783 -0.3370  0.0707
 9332TIP3    H149487   1.811   5.797  13.724  2.1112  1.0680 -1.9328
 9332TIP3    H249488   1.760   5.772  13.583  0.7942 -1.9023 -0.9907
 9333TIP3   OH249489   5.095   4.730  13.977  0.8245 -0.0804  0.5571
 9333TIP3    H149490   5.148   4.758  13.902  0.7155  2.7453  1.4165
 9333TIP3    H249491   5.008   4.767  13.960  0.4887 -0.4042  1.5188
 9334TIP3   OH249492   6.355   0.670   3.427  0.0152 -0.6135 -0.2958
 9334TIP3    H149493   6.406   0.591   3.448 -0.9428 -1.4457 -0.9782
 9334TIP3    H249494   6.415   0.723   3.375  0.5003 -1.1494 -0.2985
 9335TIP3   OH249495   5.693   0.347  15.655 -0.4297  0.5533  0.4243
 9335TIP3    H149496   5.611   0.352  15.703 -0.0670  0.4055  1.0620
 9335TIP3    H249497   5.723   0.438  15.649 -0.4640  0.5692  0.4939
 9336TIP3   OH249498   0.346   3.083  12.454 -0.9675 -0.6496 -0.0734
 9336TIP3    H149499   0.364   3.079  12.547 -1.0128  0.3209 -0.0189
 9336TIP3    H249500   0.252   3.067  12.447 -1.0744 -0.1142  0.1017
 9337TIP3   OH249501   2.095   4.052   0.024 -0.3834 -0.4888  0.5594
 9337TIP3    H149502   2.107   4.134   0.072 -0.2406 -0.0521 -0.2231
 9337TIP3    H249503   2.181   4.010   0.027  0.1584  0.4555 -0.9944
 9338TIP3   OH249504   2.343   4.288  15.437 -0.1609 -0.1218  0.3489
 9338TIP3    H149505   2.369   4.265  15.348 -0.3449 -1.3653  0.5980
 9338TIP3    H249506   2.267   4.346  15.426 -0.4219 -0.5806 -0.3015
 9339TIP3   OH249507   2.882   2.963   1.764  0.2461  0.5160  0.3331
 9339TIP3    H149508   2.824   2.894   1.731  0.4698  1.3380 -1.9359
 9339TIP3    H249509   2.826   3.041   1.769  0.5971  0.7621  0.4568
 9340TIP3   OH249510   5.504   6.754  12.094  0.1864  0.6532 -0.5416
 9340TIP3    H149511   5.554   6.816  12.041 -1.2072  1.5863 -0.8130
 9340TIP3    H249512   5.440   6.808  12.140  0.9428 -0.2007  1.6477
 9341TIP3   OH249513   3.551   4.453  13.673  0.1166  0.2307 -0.5411
 9341TIP3    H149514   3.633   4.496  13.649  0.0448  0.7552  0.1458
 9341TIP3    H249515   3.546   4.376  13.615  1.0515  0.2363 -0.6321
 9342TIP3   OH249516   1.137   2.226  10.577 -0.1492 -0.2630 -0.3762
 9342TIP3    H149517   1.111   2.149  10.526  0.5200 -0.9506  0.2826
 9342TIP3    H249518   1.141   2.297  10.513  0.0637 -0.9628 -1.1620
 9343TIP3   OH249519   5.297   1.083   3.797  0.2988 -0.0472  0.2406
 9343TIP3    H149520   5.203   1.094   3.804  0.3495 -0.0325  1.0036
 9343TIP3    H249521   5.313   0.993   3.826  0.5325  0.0090  0.2930
 9344TIP3   OH249522   4.699   5.209   5.615 -0.2028 -0.1214  0.3428
 9344TIP3    H149523   4.700   5.303   5.598 -0.4309 -0.2444 -0.3392
 9344TIP3    H249524   4.754   5.199   5.694  1.3896  0.3681 -0.6537
 9345TIP3   OH249525   5.566   2.087   0.357  0.1584  0.5284 -0.7535
 9345TIP3    H149526   5.495   2.034   0.392  1.1799 -1.3443 -1.4277
 9345TIP3    H249527   5.583   2.152   0.425 -1.3604  0.2449 -0.0706
 9346TIP3   OH249528   3.016   6.024   5.266  0.1935  0.3494 -0.2684
 9346TIP3    H149529   3.084   6.039   5.201  0.8949 -1.3134  0.0427
 9346TIP3    H249530   2.995   5.931   5.259 -0.6250  0.4062  1.0075
 9347TIP3   OH249531   3.698   0.703   3.410 -0.0163 -0.6401  0.2015
 9347TIP3    H149532   3.632   0.636   3.427 -0.6816 -0.3795 -1.2474
 9347TIP3    H249533   3.728   0.686   3.321  3.2949 -1.9130  1.3983
 9348TIP3   OH249534   0.926   3.342   3.427  0.6209  0.6158  0.3337
 9348TIP3    H149535   0.907   3.249   3.424 -0.2783  0.8163 -1.2471
 9348TIP3    H249536   0.923   3.370   3.336  0.8411  2.2074  0.7821
 9349TIP3   OH249537   1.561   3.399  13.474  0.3180  0.0300  0.7075
 9349TIP3    H149538   1.637   3.413  13.417  0.6942  0.2066  1.2532
 9349TIP3    H249539   1.579   3.316  13.518 -1.1304 -1.4410 -1.2645
 9350TIP3   OH249540   1.427   4.475  13.464  0.3234 -0.2702  0.1525
 9350TIP3    H149541   1.480   4.514  13.395  1.2039 -1.0675  0.3658
 9350TIP3    H249542   1.366   4.418  13.418  1.8093 -1.8718  0.0746
 9351TIP3   OH249543   1.180   6.786   3.887  0.6705  0.0433 -0.2070
 9351TIP3    H149544   1.214   6.875   3.878  1.5635 -0.0017  2.0991
 9351TIP3    H249545   1.248   6.740   3.937  0.0661 -1.8528 -1.0622
 9352TIP3   OH249546   2.554   5.275   1.751 -0.0841  0.6922 -0.0133
 9352TIP3    H149547   2.497   5.201   1.772 -0.2208  1.2007  1.4827
 9352TIP3    H249548   2.642   5.236   1.744  0.0093  0.5126  1.7792
 9353TIP3   OH249549   1.427   1.318   2.591  0.9175  0.0949  0.3836
 9353TIP3    H149550   1.441   1.310   2.686  0.2944  0.6060  0.5318
 9353TIP3    H249551   1.335   1.294   2.578  0.0268  3.0237  0.3813
 9354TIP3   OH249552   4.539   1.203   0.432 -0.5583  0.3155 -0.4553
 9354TIP3    H149553   4.613   1.208   0.492 -1.4700 -1.5246  0.9133
 9354TIP3    H249554   4.532   1.291   0.395  0.2606  1.4306  1.8652
 9355TIP3   OH249555   3.861   1.581  15.072 -0.0899  0.9879 -0.3462
 9355TIP3    H149556   3.848   1.533  15.154 -1.4695 -0.2000 -1.2251
 9355TIP3    H249557   3.783   1.636  15.063 -1.4415 -1.0700 -2.2518
 9356TIP3   OH249558   4.442   6.797   5.214 -0.5320 -0.0681 -0.3084
 9356TIP3    H149559   4.464   6.865   5.150 -0.5522  0.6077  0.3947
 9356TIP3    H249560   4.354   6.769   5.189 -0.0132 -0.8067 -1.4213
 9357TIP3   OH249561   1.198   2.620   0.730 -0.1582  0.2084  0.1203
 9357TIP3    H149562   1.122   2.576   0.769  0.6202 -0.3825  1.0312
 9357TIP3    H249563   1.251   2.646   0.805  0.1474  1.3461 -0.4775
 9358TIP3   OH249564   6.048   6.706  16.291  0.0571 -0.2004  0.7479
 9358TIP3    H149565   5.970   6.685  16.343 -1.6433  3.2218 -0.1227
 9358TIP3    H249566   6.013   6.731  16.206  2.2110  0.5537  0.0379
 9359TIP3   OH249567   1.759   1.876  17.271 -0.1415 -0.0294  0.1347
 9359TIP3    H149568   1.763   1.858  17.365 -0.7381  0.9675  0.3708
 9359TIP3    H249569   1.849   1.899  17.247 -0.1350  0.5088  0.6455
 9360TIP3   OH249570   4.785   3.980  11.021  0.3276  0.1184  0.0646
 9360TIP3    H149571   4.849   4.050  11.037  0.7731 -0.1897 -0.3341
 9360TIP3    H249572   4.748   4.001  10.936  1.0670 -0.5759 -0.4437
 9361TIP3   OH249573   3.295   2.355   3.295 -0.0816 -0.7984 -1.0552
 9361TIP3    H149574   3.225   2.394   3.242 -1.1267  0.3359  1.0383
 9361TIP3    H249575   3.374   2.370   3.244 -1.0657 -0.0632 -2.4478
 9362TIP3   OH249576   4.383   3.202   1.602  0.5581 -0.1202 -0.3711
 9362TIP3    H149577   4.330   3.281   1.590 -1.5982 -1.3835  0.2571
 9362TIP3    H249578   4.473   3.232   1.589 -0.2514  2.1889 -1.2886
 9363TIP3   OH249579   0.790   2.086  11.892 -0.6703 -0.0907  0.1239
 9363TIP3    H149580   0.876   2.102  11.931 -0.6999  0.3176  0.0221
 9363TIP3    H249581   0.809   2.042  11.810 -0.5178  0.6604 -0.2509
 9364TIP3   OH249582   5.628   1.729   2.269  0.2639 -1.0546  0.1050
 9364TIP3    H149583   5.569   1.699   2.199 -0.3686 -0.8061  0.5219
 9364TIP3    H249584   5.628   1.824   2.262  1.4817 -1.0783 -0.5740
 9365TIP3   OH249585   2.362   4.381   3.228 -0.3592 -0.9445  0.2670
 9365TIP3    H149586   2.429   4.315   3.247  0.2590 -0.6466 -0.7822
 9365TIP3    H249587   2.411   4.462   3.214 -0.4238 -1.4116 -4.2330
 9366TIP3   OH249588   2.171   2.167  16.277  0.0988  0.8439 -0.3649
 9366TIP3    H149589   2.194   2.121  16.358 -1.1998  0.8325  0.0228
 9366TIP3    H249590   2.138   2.098  16.220 -1.4927  1.2051  0.0777
 9367TIP3   OH249591   4.445   5.796  15.699  0.7908  0.2671  0.2121
 9367TIP3    H149592   4.387   5.869  15.677  0.8014 -0.0848 -1.0200
 9367TIP3    H249593   4.459   5.805  15.793 -0.5929  0.8341  0.3876
 9368TIP3   OH249594   2.029   3.159  11.883  0.2787 -0.4295 -0.3045
 9368TIP3    H149595   1.951   3.113  11.916  1.0115 -0.1037  2.0761
 9368TIP3    H249596   1.999   3.203  11.803 -1.2662 -2.4134 -0.8846
 9369TIP3   OH249597   2.108   3.821  15.927  0.3000  0.4556 -0.3658
 9369TIP3    H149598   2.195   3.817  15.968  0.8102  0.9073 -1.3617
 9369TIP3    H249599   2.064   3.741  15.955  1.1447  0.0811 -0.0762
 9370TIP3   OH249600   0.582   1.370   0.646 -0.1703  0.0274  0.2978
 9370TIP3    H149601   0.596   1.445   0.588 -0.4244 -0.6789 -0.6977
 9370TIP3    H249602   0.487   1.362   0.653 -0.1399  0.4675  1.2980
 9371TIP3   OH249603   0.780   3.853  12.517  0.3062  0.4727  0.3337
 9371TIP3    H149604   0.830   3.910  12.458  0.6912  1.2355  1.3571
 9371TIP3    H249605   0.782   3.899  12.601 -1.4280  0.1191  0.6085
 9372TIP3   OH249606   1.083   3.023   5.134 -0.2330 -0.0577  0.1691
 9372TIP3    H149607   1.035   2.977   5.203  4.0397 -2.7345  1.7372
 9372TIP3    H249608   1.114   3.103   5.176  1.2187 -1.0326  1.0512
 9373TIP3   OH249609   4.796   2.303   6.573  0.5555  0.3407 -0.7166
 9373TIP3    H149610   4.838   2.222   6.542  1.1654  0.9686 -1.5586
 9373TIP3    H249611   4.703   2.282   6.574  0.8233 -0.9828  0.8960
 9374TIP3   OH249612   0.403   5.234  11.053  0.0529  1.1774  0.7929
 9374TIP3    H149613   0.451   5.255  10.973  0.2003  0.8921  0.8063
 9374TIP3    H249614   0.400   5.139  11.055  2.8681  1.0161  2.7719
 9375TIP3   OH249615   4.498   4.054  12.136 -0.4995  0.0700  0.1340
 9375TIP3    H149616   4.504   3.971  12.183 -2.1327 -1.0746 -1.5278
 9375TIP3    H249617   4.444   4.034  12.059  1.1161  2.0994 -1.6364
 9376TIP3   OH249618   4.747   6.099  15.870 -0.6099  0.2848 -0.8549
 9376TIP3    H149619   4.725   6.088  15.778  2.0358 -0.7648 -1.4713
 9376TIP3    H249620   4.693   6.035  15.916 -1.3609  0.2408 -1.7626
 9377TIP3   OH249621   5.650   1.839  15.109  0.0315  0.4274 -0.1058
 9377TIP3    H149622   5.627   1.860  15.200 -0.2478  1.0076 -0.3027
 9377TIP3    H249623   5.567   1.818  15.068 -0.0058  1.2982 -0.5079
 9378TIP3   OH249624   4.176   4.366   0.204 -0.1243 -0.3162 -0.1492
 9378TIP3    H149625   4.180   4.396   0.113  1.4756  0.7766  0.2375
 9378TIP3    H249626   4.158   4.272   0.198 -1.1790 -0.0528 -1.5407
 9379TIP3   OH249627   1.000   0.480   6.422  0.4295  0.1952 -0.0194
 9379TIP3    H149628   0.973   0.392   6.449 -1.3533 -0.0758 -2.3354
 9379TIP3    H249629   1.052   0.465   6.342  0.5302  1.2043 -0.1477
 9380TIP3   OH249630   5.013   0.923   0.975 -0.2987 -0.1454  0.1711
 9380TIP3    H149631   4.958   0.998   0.997  0.6047  0.2801  1.0710
 9380TIP3    H249632   5.057   0.901   1.058  0.9245 -0.4314 -0.5333
 9381TIP3   OH249633   2.070   1.815   1.608  0.5908 -0.6347 -0.3699
 9381TIP3    H149634   1.999   1.813   1.544 -0.4187  0.0412  0.6892
 9381TIP3    H249635   2.095   1.723   1.619  1.0090 -0.7382 -1.9457
 9382TIP3   OH249636   3.064   5.701   5.580 -0.5554  0.4221 -0.3159
 9382TIP3    H149637   2.977   5.662   5.582 -0.3619  0.0058  0.3542
 9382TIP3    H249638   3.121   5.631   5.551 -0.4376  0.6983 -0.7662
 9383TIP3   OH249639   6.009   2.050  12.121  0.3620  0.0027  0.1752
 9383TIP3    H149640   6.031   2.052  12.027 -1.7568  0.8576 -0.3610
 9383TIP3    H249641   6.017   2.141  12.149 -1.2012  0.1526  0.2289
 9384TIP3   OH249642   3.212   5.210  13.892 -0.0546  0.3047 -0.4910
 9384TIP3    H149643   3.307   5.215  13.900 -0.1598  1.3387  0.3624
 9384TIP3    H249644   3.196   5.190  13.800  1.0214 -1.4112 -0.3536
 9385TIP3   OH249645   0.791   1.555   5.435  0.4484 -0.2767 -0.2154
 9385TIP3    H149646   0.710   1.515   5.469 -0.3480  1.4616  0.0506
 9385TIP3    H249647   0.861   1.497   5.463 -0.4912 -0.5305  1.7118
 9386TIP3   OH249648   5.408   2.275   4.123  0.5414 -0.7655  0.2478
 9386TIP3    H149649   5.378   2.336   4.190  0.2941 -0.3092 -0.2725
 9386TIP3    H249650   5.499   2.255   4.147  0.3758 -0.7962  0.8508
 9387TIP3   OH249651   2.457   0.911  10.881 -0.2057 -0.1618 -0.0447
 9387TIP3    H149652   2.371   0.948  10.899 -0.3305  0.8898 -2.3906
 9387TIP3    H249653   2.445   0.858  10.802  1.1809 -0.4288 -0.1161
 9388TIP3   OH249654   3.825   3.873  15.468 -0.5129 -0.0000 -0.0617
 9388TIP3    H149655   3.822   3.969  15.465  0.5297  0.0384 -0.5050
 9388TIP3    H249656   3.919   3.853  15.470 -0.7209 -1.0181 -0.2705
 9389TIP3   OH249657   2.408   3.706   5.168 -0.3890 -0.1549 -0.9883
 9389TIP3    H149658   2.367   3.786   5.132  0.0316  1.1878  1.3147
 9389TIP3    H249659   2.336   3.661   5.212  0.0125  0.8084  0.7245
 9390TIP3   OH249660   1.492   1.012   0.206 -0.3196  0.6187  0.3450
 9390TIP3    H149661   1.579   1.019   0.165 -0.0982 -0.0670  0.6797
 9390TIP3    H249662   1.507   0.959   0.284 -1.1673 -0.1016  0.0386
 9391TIP3   OH249663   0.185   0.534  11.109  0.1260  0.2583 -0.0827
 9391TIP3    H149664   0.256   0.491  11.156  0.3652  0.8274  0.0805
 9391TIP3    H249665   0.165   0.475  11.036 -2.5840 -2.4669  2.5406
 9392TIP3   OH249666   0.281   2.221  17.041 -0.4327  0.4211 -0.1521
 9392TIP3    H149667   0.358   2.251  16.993  0.1201 -1.7602 -0.7164
 9392TIP3    H249668   0.244   2.152  16.986  0.5418 -2.6169  2.6609
 9393TIP3   OH249669   3.495   2.620   3.094 -0.0062 -0.0118  0.5599
 9393TIP3    H149670   3.481   2.547   3.034 -1.5987  0.9677 -0.3439
 9393TIP3    H249671   3.407   2.653   3.112  0.6553  1.5585  1.0837
 9394TIP3   OH249672   3.144   1.445  12.902 -0.0683  0.2772  0.0525
 9394TIP3    H149673   3.210   1.378  12.918 -0.6789 -0.4753 -0.4950
 9394TIP3    H249674   3.136   1.450  12.807  0.4235  1.6016  0.0619
 9395TIP3   OH249675   5.852   3.402  13.595 -0.0251  0.2940 -0.2540
 9395TIP3    H149676   5.834   3.396  13.689 -1.3243  1.7188 -0.3764
 9395TIP3    H249677   5.898   3.485  13.585  0.1287  0.1359 -0.8903
 9396TIP3   OH249678   4.765   3.758   0.436 -0.2446 -0.4423 -0.2097
 9396TIP3    H149679   4.686   3.712   0.407 -0.2218 -0.8194  0.3177
 9396TIP3    H249680   4.775   3.830   0.373 -1.8470  0.5088  0.5564
 9397TIP3   OH249681   1.647   1.819   5.316  0.1118  0.3971  0.0349
 9397TIP3    H149682   1.603   1.776   5.243  1.4003  0.2917 -0.7042
 9397TIP3    H249683   1.719   1.761   5.338  0.9553  1.4201  0.0400
 9398TIP3   OH249684   0.988   0.400   2.093 -0.3678 -0.3646  0.0664
 9398TIP3    H149685   0.959   0.309   2.088 -0.7807 -0.3036  1.0417
 9398TIP3    H249686   0.911   0.448   2.124 -0.3169  0.4106 -0.9373
 9399TIP3   OH249687   2.737   3.463  14.771 -0.8583 -0.1034  0.1818
 9399TIP3    H149688   2.832   3.473  14.766 -0.8769 -0.5096 -3.0840
 9399TIP3    H249689   2.724   3.379  14.816  0.2607  0.1580  1.0563
 9400TIP3   OH249690   5.927   2.119   4.283 -0.0364 -0.0806 -0.5258
 9400TIP3    H149691   5.980   2.190   4.320  0.0820 -1.6214  2.5967
 9400TIP3    H249692   5.979   2.085   4.210  1.7298  0.5644  0.3817
 9401TIP3   OH249693   5.023   6.075  15.008  0.1167  0.4900 -0.4175
 9401TIP3    H149694   5.035   6.142  14.940  1.6621 -0.8941 -1.5954
 9401TIP3    H249695   4.962   6.013  14.969 -0.2809  0.5137  0.1525
 9402TIP3   OH249696   4.871   6.668  12.036  0.4613  0.4150  0.2053
 9402TIP3    H149697   4.864   6.746  12.090  0.8645 -0.2962  1.3284
 9402TIP3    H249698   4.946   6.685  11.979  1.6391  0.2161  1.6032
 9403TIP3   OH249699   4.985   1.518  15.487 -0.2092  0.1012  0.4068
 9403TIP3    H149700   5.040   1.450  15.450  1.6135  1.9624 -0.5113
 9403TIP3    H249701   4.901   1.508  15.442  0.0318 -1.4639  0.2574
 9404TIP3   OH249702   5.134   5.022  16.009 -0.0728  0.4464 -0.4290
 9404TIP3    H149703   5.109   5.086  16.076  0.6249  0.8045 -0.5002
 9404TIP3    H249704   5.172   4.949  16.059  1.8897  1.3748 -0.4861
 9405TIP3   OH249705   1.193   3.575   6.104  0.0109 -0.5022 -0.4763
 9405TIP3    H149706   1.178   3.667   6.082  0.4651 -0.7085 -1.7155
 9405TIP3    H249707   1.151   3.564   6.189 -0.1102  0.8326 -0.3349
 9406TIP3   OH249708   3.081   0.687   1.207  0.4123  0.5071  0.1168
 9406TIP3    H149709   3.070   0.730   1.292 -0.6862 -0.8939  0.7188
 9406TIP3    H249710   3.043   0.600   1.219 -0.1313  0.4151 -1.9472
 9407TIP3   OH249711   4.686   0.990   2.020 -0.3196 -0.2202  0.2994
 9407TIP3    H149712   4.722   1.041   1.948  2.0354 -1.7908  0.2517
 9407TIP3    H249713   4.652   1.056   2.081  4.0323  1.7218  1.0490
 9408TIP3   OH249714   0.359   5.594  11.337 -0.2725 -0.1836 -0.1140
 9408TIP3    H149715   0.287   5.583  11.400 -0.2942  0.2920 -0.0491
 9408TIP3    H249716   0.414   5.517  11.350  0.6459  0.7182  1.6860
 9409TIP3   OH249717   1.879   4.373   4.968  0.0596  0.0075  0.0314
 9409TIP3    H149718   1.950   4.437   4.965 -0.5270  0.6682 -0.0870
 9409TIP3    H249719   1.871   4.349   5.060 -0.1060  0.5528  0.1602
 9410TIP3   OH249720   6.017   0.455   1.382 -0.1330 -0.0303 -0.5631
 9410TIP3    H149721   6.045   0.417   1.466 -0.4421  2.1888  0.6011
 9410TIP3    H249722   5.996   0.379   1.328 -1.3049 -1.5433  1.8294
 9411TIP3   OH249723   3.386   6.644  11.413  0.2977  0.2238  0.3504
 9411TIP3    H149724   3.460   6.695  11.445 -0.5965  1.9015 -0.1518
 9411TIP3    H249725   3.318   6.709  11.394 -0.6803 -1.1028 -0.9083
 9412TIP3   OH249726   5.326   2.086  14.267  0.8254  0.0408  0.1701
 9412TIP3    H149727   5.329   1.999  14.227 -0.1268 -0.2776  0.7508
 9412TIP3    H249728   5.319   2.147  14.193 -1.4756 -0.5637 -0.1825
 9413TIP3   OH249729   2.519   3.460   0.409  0.2364 -0.0351  0.2218
 9413TIP3    H149730   2.603   3.497   0.381 -0.0479  0.6702  0.2808
 9413TIP3    H249731   2.490   3.517   0.481 -1.2653  1.0091 -1.1280
 9414TIP3   OH249732   3.674   1.903   2.740 -0.2497 -0.0780 -0.0663
 9414TIP3    H149733   3.724   1.970   2.787  1.9329 -1.5566 -0.1057
 9414TIP3    H249734   3.727   1.823   2.749 -0.8029 -0.9431 -3.1737
 9415TIP3   OH249735   6.424   1.073   0.545  0.4242 -0.2620 -0.6405
 9415TIP3    H149736   6.505   1.037   0.508  2.6680  1.3846  2.1912
 9415TIP3    H249737   6.417   1.031   0.631  0.5690  2.4418  0.8071
 9416TIP3   OH249738   4.366   1.988   3.528 -0.3446  0.0089  0.0563
 9416TIP3    H149739   4.356   2.034   3.612 -0.9140 -0.2655  0.1413
 9416TIP3    H249740   4.305   2.033   3.469 -0.9697 -0.6917  0.1632
 9417TIP3   OH249741   6.733   0.251  16.459 -0.6291 -0.1135 -0.2088
 9417TIP3    H149742   6.742   0.263  16.364 -0.1956 -0.7481 -0.2518
 9417TIP3    H249743   6.668   0.317  16.485  0.7471  1.4674 -0.6213
 9418TIP3   OH249744   5.031   5.278   3.911 -0.0139 -0.6535 -0.7694
 9418TIP3    H149745   5.037   5.362   3.865  1.3004 -0.3003 -0.0020
 9418TIP3    H249746   5.119   5.242   3.907 -0.4513 -1.7765 -0.6531
 9419TIP3   OH249747   2.279   5.049   0.343  0.0644 -0.2953  0.4764
 9419TIP3    H149748   2.260   5.017   0.255 -0.2803 -0.3301  0.5622
 9419TIP3    H249749   2.345   5.118   0.330 -1.3091  0.9749  0.0036
 9420TIP3   OH249750   0.599   1.493   0.399 -0.1941 -0.2922  0.5848
 9420TIP3    H149751   0.687   1.530   0.400  0.0929 -0.9649  2.0320
 9420TIP3    H249752   0.598   1.436   0.322 -0.0805  1.3043 -0.6600
 9421TIP3   OH249753   6.160   1.771   0.722 -0.1748  0.2702  0.2177
 9421TIP3    H149754   6.165   1.836   0.652  2.9173 -0.0695 -0.0265
 9421TIP3    H249755   6.127   1.692   0.680  0.8599  0.3058 -0.7313
 9422TIP3   OH249756   1.560   6.371  16.942  0.2029  0.3971  0.2426
 9422TIP3    H149757   1.504   6.369  17.019  1.1670  0.6430  0.9671
 9422TIP3    H249758   1.526   6.301  16.886  1.7271 -2.3906  2.5222
 9423TIP3   OH249759   3.935   5.034   6.512 -0.3846  0.1516  0.2886
 9423TIP3    H149760   4.023   5.048   6.546 -0.8380  0.1176  1.4997
 9423TIP3    H249761   3.938   4.947   6.472  0.1570  0.1957  0.2283
 9424TIP3   OH249762   4.011   4.187  14.304  0.2825 -0.2538  0.3447
 9424TIP3    H149763   4.030   4.094  14.299 -2.5449 -0.9331  0.1384
 9424TIP3    H249764   3.959   4.205  14.226  1.7722  1.7996 -0.2350
 9425TIP3   OH249765   4.315   1.102   5.028  0.5635 -0.3417 -0.0233
 9425TIP3    H149766   4.376   1.093   5.101  0.3302 -1.0522  0.0847
 9425TIP3    H249767   4.246   1.161   5.061  1.9074  1.6736 -0.6234
 9426TIP3   OH249768   3.719   6.203   3.981 -0.0649  0.0634 -0.2818
 9426TIP3    H149769   3.682   6.130   3.932  1.5513  0.2335 -1.8453
 9426TIP3    H249770   3.792   6.165   4.030  0.7291  0.5746 -1.0347
 9427TIP3   OH249771   4.889   4.366   0.573 -0.1640 -0.5915  0.0427
 9427TIP3    H149772   4.820   4.303   0.595 -0.1544 -0.2759  1.0350
 9427TIP3    H249773   4.951   4.316   0.520 -0.4222 -1.2700  0.3676
 9428TIP3   OH249774   5.749   3.158   5.053 -0.6690  0.0554  0.3623
 9428TIP3    H149775   5.664   3.147   5.011 -0.9624  0.8020  0.7335
 9428TIP3    H249776   5.812   3.122   4.991 -1.3106 -1.1233  0.3776
 9429TIP3   OH249777   2.627   6.410   1.224 -0.2467  0.0110 -0.2589
 9429TIP3    H149778   2.534   6.427   1.213 -0.0378  0.4127 -1.6399
 9429TIP3    H249779   2.664   6.496   1.246 -0.2805 -0.2914  1.1110
 9430TIP3   OH249780   5.609   3.568  14.062 -0.3854 -0.0674 -0.1542
 9430TIP3    H149781   5.528   3.591  14.017  0.0271 -1.3522 -1.6371
 9430TIP3    H249782   5.592   3.480  14.096  1.0419 -1.2376 -2.2785
 9431TIP3   OH249783   5.146   2.101  17.170 -0.2396 -0.1538 -0.1296
 9431TIP3    H149784   5.224   2.156  17.175 -0.0058 -0.5271  0.3961
 9431TIP3    H249785   5.079   2.158  17.133  0.2724  0.1773 -0.5629
 9432TIP3   OH249786   2.944   2.029   1.123  0.6179  0.5865 -0.1339
 9432TIP3    H149787   2.938   1.942   1.084  1.9772 -0.3263  1.5532
 9432TIP3    H249788   2.944   2.013   1.217 -1.4849  2.6212  0.2884
 9433TIP3   OH249789   5.494   5.970  16.009  0.2235  0.1759  0.0639
 9433TIP3    H149790   5.447   5.938  15.932  2.7661 -0.6949 -1.2606
 9433TIP3    H249791   5.542   5.893  16.040 -0.1659  0.7051  2.1059
 9434TIP3   OH249792   3.595   2.701  13.016  0.2070  0.4332  0.1894
 9434TIP3    H149793   3.593   2.792  13.047  0.5030 -0.4697  3.2366
 9434TIP3    H249794   3.577   2.649  13.095 -1.9380 -2.1262 -1.8268
 9435TIP3   OH249795   2.755   0.088   0.098  0.2058  0.5591  0.0614
 9435TIP3    H149796   2.784   0.120   0.013 -0.1722  2.4902  0.6102
 9435TIP3    H249797   2.677   0.035   0.079 -1.0090  2.5167 -0.6710
 9436TIP3   OH249798   0.506   6.447  14.486 -0.3053 -0.2262  0.2081
 9436TIP3    H149799   0.443   6.389  14.442 -1.6668  1.5714 -0.3079
 9436TIP3    H249800   0.532   6.398  14.564 -0.1347 -2.2146 -1.0015
 9437TIP3   OH249801   3.385   4.669  17.200  0.5606  0.5474  0.0188
 9437TIP3    H149802   3.357   4.751  17.242  0.7722  0.6201  0.0204
 9437TIP3    H249803   3.350   4.601  17.257 -1.4868  0.5693 -1.1432
 9438TIP3   OH249804   2.778   5.751  16.364  0.4639  0.1971 -0.5250
 9438TIP3    H149805   2.689   5.780  16.348 -1.0474 -2.4581  2.0842
 9438TIP3    H249806   2.806   5.798  16.442  0.1842 -1.0408  0.3508
 9439TIP3   OH249807   0.685   0.404  11.765 -0.3339 -0.3164 -0.2786
 9439TIP3    H149808   0.613   0.347  11.793 -0.5247 -0.0656 -0.2535
 9439TIP3    H249809   0.692   0.389  11.671 -0.9613  0.2627 -0.4247
 9440TIP3   OH249810   5.568   5.534   3.611  0.3448  0.0390 -0.2887
 9440TIP3    H149811   5.575   5.626   3.584  1.0485  0.0668 -0.0380
 9440TIP3    H249812   5.644   5.521   3.668  2.2356 -1.6332 -2.9925
 9441TIP3   OH249813   4.704   4.499  16.865  0.5049 -0.2905  0.4595
 9441TIP3    H149814   4.663   4.555  16.798  1.2266 -1.1189 -0.7153
 9441TIP3    H249815   4.778   4.458  16.820 -0.4958 -2.8799  0.9930
 9442TIP3   OH249816   6.711   6.531  15.185  0.5984 -0.4759  0.9105
 9442TIP3    H149817   6.757   6.594  15.240  0.0794  0.9324 -0.2098
 9442TIP3    H249818   6.625   6.570  15.171  0.6825 -0.8412 -0.8078
 9443TIP3   OH249819   3.264   2.002  15.908  0.1166  0.1166 -0.1546
 9443TIP3    H149820   3.289   2.022  15.818 -0.3383  0.0465 -0.2967
 9443TIP3    H249821   3.240   2.086  15.946  1.1624  0.2883  0.1795
 9444TIP3   OH249822   2.171   3.702  13.247 -0.3495  0.0299 -0.8034
 9444TIP3    H149823   2.168   3.654  13.330  2.1837 -1.1807 -1.3100
 9444TIP3    H249824   2.159   3.634  13.180 -0.1294  0.6294 -1.4622
 9445TIP3   OH249825   3.759   3.026   5.976 -0.1681 -0.5060 -0.5483
 9445TIP3    H149826   3.770   3.077   6.056 -1.3184 -3.6138  1.8271
 9445TIP3    H249827   3.667   3.036   5.954 -0.4769 -1.6725  0.1143
 9446TIP3   OH249828   3.244   6.336   2.914  0.5300 -0.4827  0.4830
 9446TIP3    H149829   3.313   6.294   2.863  0.3420  0.8952 -0.9759
 9446TIP3    H249830   3.203   6.264   2.962  0.2662 -2.0049 -1.8531
 9447TIP3   OH249831   6.241   4.719  14.001 -0.2921 -0.8062  0.4763
 9447TIP3    H149832   6.228   4.747  14.092  1.3808 -1.2788  0.8959
 9447TIP3    H249833   6.156   4.732  13.960 -1.3383 -1.3543  2.3165
 9448TIP3   OH249834   6.612   2.942  13.122  0.3115 -0.0714  0.0684
 9448TIP3    H149835   6.623   3.036  13.109  1.9370 -0.3094 -0.4655
 9448TIP3    H249836   6.696   2.912  13.158 -0.1295 -1.3470  0.0976
 9449TIP3   OH249837   2.744   0.002   2.475 -0.2340 -0.0994  0.0290
 9449TIP3    H149838   2.787  -0.053   2.410 -0.2999  0.8520 -0.8383
 9449TIP3    H249839   2.676  -0.055   2.512 -0.7058 -0.4309 -1.2844
 9450TIP3   OH249840   4.290   6.460  15.021  0.0186 -0.7615  0.1168
 9450TIP3    H149841   4.368   6.514  15.010 -1.6063  2.3637  2.3109
 9450TIP3    H249842   4.249   6.459  14.934 -0.1951  2.2487  0.0852
 9451TIP3   OH249843   5.173   3.626  10.534 -0.6559  0.5996 -0.8558
 9451TIP3    H149844   5.197   3.714  10.504  2.2077 -0.3365 -1.6470
 9451TIP3    H249845   5.236   3.607  10.604 -3.2041  0.2922  1.4990
 9452TIP3   OH249846   1.831   1.119   6.142  0.7832  0.4624  0.5020
 9452TIP3    H149847   1.874   1.177   6.205 -0.0096  1.6328  0.0119
 9452TIP3    H249848   1.868   1.144   6.057  1.4994 -0.7744  0.4284
 9453TIP3   OH249849   5.338   1.715   5.179 -0.1191  0.2599  0.4755
 9453TIP3    H149850   5.343   1.731   5.084 -3.3978 -1.0517 -0.0715
 9453TIP3    H249851   5.400   1.643   5.194  1.1831  1.1413 -0.4381
 9454TIP3   OH249852   5.606   2.933   0.302 -0.2396  0.3654 -0.0892
 9454TIP3    H149853   5.658   2.912   0.380  2.4015 -0.8527 -2.0165
 9454TIP3    H249854   5.585   2.848   0.264  1.0501  0.8966 -2.1656
 9455TIP3   OH249855   2.526   3.903   3.539  0.1353  0.2472 -0.1609
 9455TIP3    H149856   2.488   3.979   3.583 -1.1666  0.5790 -1.7335
 9455TIP3    H249857   2.619   3.908   3.558 -0.2185  1.0081  1.5361
 9456TIP3   OH249858   2.371   2.915  16.229  0.2448  0.0073 -0.1964
 9456TIP3    H149859   2.464   2.905  16.245 -0.0083  0.9262  2.3312
 9456TIP3    H249860   2.357   3.009  16.222 -0.2276 -0.1727 -3.0293
 9457TIP3   OH249861   2.229   6.772  16.892  0.7274  0.0327 -0.5588
 9457TIP3    H149862   2.280   6.705  16.939 -0.4295 -0.3219  0.2497
 9457TIP3    H249863   2.294   6.823  16.844  1.7359 -1.0358 -0.3709
 9458TIP3   OH249864   0.447   6.758  11.258 -0.1338 -0.6931 -0.5684
 9458TIP3    H149865   0.390   6.816  11.208 -0.7997 -0.9021 -0.0725
 9458TIP3    H249866   0.463   6.684  11.200  0.5518 -0.1233 -1.1261
 9459TIP3   OH249867   2.516   5.664   4.186 -0.5516  0.0293 -0.1373
 9459TIP3    H149868   2.483   5.721   4.256 -0.1776  1.4422 -1.0607
 9459TIP3    H249869   2.604   5.697   4.168 -0.5677 -0.4390 -1.1438
 9460TIP3   OH249870   2.763   2.549   4.159 -0.3121  0.5118 -0.4845
 9460TIP3    H149871   2.703   2.475   4.170  0.0918  0.3998  1.2308
 9460TIP3    H249872   2.823   2.521   4.090 -1.2797 -0.0131 -1.1245
 9461TIP3   OH249873   4.236   4.341   5.397  0.4303  0.1376  0.9511
 9461TIP3    H149874   4.249   4.398   5.473 -1.7828 -2.3260  3.4587
 9461TIP3    H249875   4.152   4.298   5.415  0.0196 -0.9123 -2.7624
 9462TIP3   OH249876   3.014   3.243  14.042  0.3745  0.3432  0.3658
 9462TIP3    H149877   2.930   3.268  14.080  0.5434 -1.3568  1.9797
 9462TIP3    H249878   3.032   3.312  13.977 -0.8926  2.2708  1.9440
 9463TIP3   OH249879   6.455   6.670   1.728 -0.2378  0.0517  0.2680
 9463TIP3    H149880   6.539   6.638   1.695  0.3162 -1.1024  2.5843
 9463TIP3    H249881   6.423   6.599   1.783 -3.9190 -0.5388 -2.2727
 9464TIP3   OH249882   4.610   0.375  13.298 -0.0574 -0.1413 -0.5036
 9464TIP3    H149883   4.519   0.380  13.270 -0.2508 -0.7992 -0.0249
 9464TIP3    H249884   4.643   0.294  13.259 -0.2272 -0.8809  0.8179
 9465TIP3   OH249885   1.719   6.455   1.282 -0.7884  0.0974 -0.1187
 9465TIP3    H149886   1.678   6.534   1.246  0.7613 -0.3723 -3.1972
 9465TIP3    H249887   1.786   6.488   1.342  0.5358  1.2530 -2.1334
 9466TIP3   OH249888   2.695   4.831   2.190 -0.1715 -0.4112 -0.2516
 9466TIP3    H149889   2.730   4.806   2.276  0.5700  0.5094 -0.2681
 9466TIP3    H249890   2.728   4.920   2.176 -1.9609  0.2325 -0.5954
 9467TIP3   OH249891   0.558   5.347  17.248 -0.3368 -0.8665 -0.0531
 9467TIP3    H149892   0.505   5.411  17.296  0.7174 -1.2078  1.6176
 9467TIP3    H249893   0.648   5.372  17.266  0.0843 -1.8383 -0.7433
 9468TIP3   OH249894   2.541   3.606   3.866  0.2511  0.1271 -0.3821
 9468TIP3    H149895   2.450   3.636   3.868  0.4063  0.6205 -0.8504
 9468TIP3    H249896   2.579   3.641   3.946 -0.5658 -2.0034  1.0469
 9469TIP3   OH249897   3.785   1.990  11.284  0.1473 -0.1242 -0.1959
 9469TIP3    H149898   3.693   1.986  11.313  0.2981 -1.3093  0.1853
 9469TIP3    H249899   3.835   1.971  11.363  0.7162  0.2168 -0.4721
 9470TIP3   OH249900   0.660   1.013  13.999 -0.5669 -0.8751  0.3694
 9470TIP3    H149901   0.726   1.057  13.945 -0.2649 -0.8279  0.7716
 9470TIP3    H249902   0.581   1.065  13.986 -0.6927 -1.3041 -0.6123
 9471TIP3   OH249903   2.340   6.732  16.452 -0.0623 -0.3501  0.3558
 9471TIP3    H149904   2.380   6.692  16.375  1.9532  0.9881  0.6632
 9471TIP3    H249905   2.413   6.758  16.507 -1.4429 -0.7421  2.4972
 9472TIP3   OH249906   1.524   6.190  14.722 -0.2586  0.6169 -0.1871
 9472TIP3    H149907   1.486   6.256  14.780 -0.7978 -0.4112  0.6653
 9472TIP3    H249908   1.618   6.200  14.731 -0.3383  1.2231 -0.0170
 9473TIP3   OH249909   4.278   1.411  15.310 -0.5165  0.0996 -0.2607
 9473TIP3    H149910   4.233   1.327  15.301  0.7933 -0.4893 -1.6072
 9473TIP3    H249911   4.236   1.468  15.245 -2.1852  0.9181  1.4112
 9474TIP3   OH249912   5.854   2.425   1.584 -0.0351 -0.2350  0.0081
 9474TIP3    H149913   5.910   2.464   1.651 -1.1438  0.9154  0.3183
 9474TIP3    H249914   5.801   2.499   1.551  0.9597 -0.6083 -2.6567
 9475TIP3   OH249915   2.649   4.225   4.779 -0.2626  0.1862 -0.3596
 9475TIP3    H149916   2.715   4.294   4.783 -2.0531  1.9894 -0.5027
 9475TIP3    H249917   2.654   4.193   4.689  0.3877  0.3179 -0.3775
 9476TIP3   OH249918   3.323   4.269  12.633  0.0752 -0.3271 -0.1512
 9476TIP3    H149919   3.277   4.197  12.590  0.5135 -0.5467 -0.2515
 9476TIP3    H249920   3.410   4.269  12.595  0.1033  0.2168 -0.1021
 9477TIP3   OH249921   5.243   5.102   4.602  0.4055 -0.1559  0.3066
 9477TIP3    H149922   5.229   5.054   4.520  0.0460 -0.2859  0.4426
 9477TIP3    H249923   5.313   5.164   4.581 -0.1222  0.2501 -0.2765
 9478TIP3   OH249924   6.515   4.427  10.888 -0.1249  0.3194  0.2414
 9478TIP3    H149925   6.424   4.406  10.911 -0.0557 -0.1948  0.0606
 9478TIP3    H249926   6.512   4.518  10.859 -1.0493 -0.4394 -2.2882
 9479TIP3   OH249927   2.346   5.798  13.497 -0.3385 -0.4406 -0.5260
 9479TIP3    H149928   2.387   5.755  13.573 -1.8744 -2.7491 -0.8810
 9479TIP3    H249929   2.258   5.820  13.528 -1.2567 -2.0961 -1.7514
 9480TIP3   OH249930   3.193   6.024  10.489  0.2756 -0.0271  0.0173
 9480TIP3    H149931   3.240   6.090  10.539  2.3004 -1.3131 -0.0954
 9480TIP3    H249932   3.167   6.069  10.408  2.0475  0.5350 -0.2734
 9481TIP3   OH249933   6.319   6.810  14.038 -0.0393 -0.3306  0.2728
 9481TIP3    H149934   6.360   6.876  13.982  0.2139 -0.8870 -0.2097
 9481TIP3    H249935   6.379   6.736  14.035 -0.9391 -1.0575 -0.2111
 9482TIP3   OH249936   5.456   1.189  16.882 -0.1850  0.6057 -0.4088
 9482TIP3    H149937   5.457   1.285  16.880  0.2109  0.6513  0.8711
 9482TIP3    H249938   5.421   1.168  16.969  0.6684 -0.3941 -0.2931
 9483TIP3   OH249939   1.188   5.533   6.020  0.1685  0.5970 -0.2097
 9483TIP3    H149940   1.181   5.621   6.058  1.7225  0.0205  1.6054
 9483TIP3    H249941   1.126   5.481   6.070  0.7638  0.2422  0.1685
 9484TIP3   OH249942   4.468   0.792   0.609 -0.0604  0.4519  0.0962
 9484TIP3    H149943   4.557   0.798   0.644  0.1582  0.4949 -0.4643
 9484TIP3    H249944   4.473   0.831   0.522 -0.3128 -0.8756 -0.5229
 9485TIP3   OH249945   3.648   1.601   4.573  0.0497  0.0529  0.6356
 9485TIP3    H149946   3.647   1.696   4.571  0.4922  0.0553 -1.0488
 9485TIP3    H249947   3.727   1.577   4.523 -1.1402 -1.1970 -0.7387
 9486TIP3   OH249948   4.993   5.439   1.657  0.0659  0.2319  0.4383
 9486TIP3    H149949   4.959   5.528   1.650  0.7180  0.5098  0.7079
 9486TIP3    H249950   4.917   5.386   1.677 -0.2167  0.8388  1.0182
 9487TIP3   OH249951   4.884   3.489  14.096  0.4656 -0.9098 -0.1541
 9487TIP3    H149952   4.818   3.542  14.141 -0.5709 -0.0775 -2.5268
 9487TIP3    H249953   4.957   3.549  14.080  1.4923 -1.5983  1.6606
 9488TIP3   OH249954   5.500   1.090   1.854  0.6381  0.4420  0.1193
 9488TIP3    H149955   5.487   0.996   1.864  1.1953  0.3708  0.2053
 9488TIP3    H249956   5.535   1.118   1.939 -2.5660  1.3099  1.3288
 9489TIP3   OH249957   4.970   5.566   1.274 -0.5209 -0.0513 -0.1793
 9489TIP3    H149958   4.946   5.494   1.216  3.0549 -1.3119 -0.3074
 9489TIP3    H249959   4.912   5.638   1.247 -1.9624 -1.8708 -2.2946
 9490TIP3   OH249960   2.511   4.617   0.837  0.5057 -0.1819  0.4059
 9490TIP3    H149961   2.426   4.582   0.810  0.9091  1.0053 -2.8763
 9490TIP3    H249962   2.574   4.553   0.805  0.9568 -0.5113  1.8584
 9491TIP3   OH249963   2.055   4.996  14.852 -0.2102 -0.5158 -0.6649
 9491TIP3    H149964   2.030   4.976  14.942  0.3517  0.7458 -0.2056
 9491TIP3    H249965   2.041   4.914  14.805  0.3398 -1.4750  0.7563
 9492TIP3   OH249966   1.756   2.485  12.913  0.4876  0.3145 -0.1613
 9492TIP3    H149967   1.741   2.493  13.007  0.6591  2.2292 -0.2602
 9492TIP3    H249968   1.812   2.560  12.891  2.0505 -1.1467 -1.4749
 9493TIP3   OH249969   6.740   4.228   5.463 -0.2554  0.3106  0.2520
 9493TIP3    H149970   6.694   4.311   5.449  0.5877  0.6249 -0.7794
 9493TIP3    H249971   6.671   4.165   5.484 -0.9183  1.2426  0.9619
 9494TIP3   OH249972   3.901   2.661  15.448  0.0983 -0.0977 -0.5663
 9494TIP3    H149973   3.967   2.591  15.444  0.2563  0.0852 -1.3636
 9494TIP3    H249974   3.830   2.624  15.501  0.0346 -0.9997 -1.2553
 9495TIP3   OH249975   5.793   0.840   5.317 -0.4565  0.7577 -0.2255
 9495TIP3    H149976   5.870   0.784   5.320 -1.4678 -0.7667 -1.5475
 9495TIP3    H249977   5.754   0.831   5.404  0.4331  0.9843  0.2167
 9496TIP3   OH249978   1.888   3.222  15.068  0.2675  0.2664 -0.0643
 9496TIP3    H149979   1.820   3.205  15.133 -1.0602  0.2693 -1.3858
 9496TIP3    H249980   1.862   3.170  14.992  1.5706  0.5375 -0.7284
 9497TIP3   OH249981   4.100   2.793   6.105  0.0593  0.6105 -0.0465
 9497TIP3    H149982   4.033   2.776   6.038 -0.0733  1.8991 -0.2511
 9497TIP3    H249983   4.129   2.705   6.132 -2.0356  0.0019  0.3869
 9498TIP3   OH249984   5.272   4.152  12.075 -0.2093 -0.3065  0.6723
 9498TIP3    H149985   5.196   4.198  12.110  0.9557  0.6398  2.0794
 9498TIP3    H249986   5.346   4.212  12.091  0.8202 -1.1318 -0.7730
 9499TIP3   OH249987   5.490   0.533  15.206 -0.2325 -0.6284 -0.1321
 9499TIP3    H149988   5.562   0.470  15.211 -0.4094 -0.8208 -0.0053
 9499TIP3    H249989   5.418   0.484  15.168  0.5491  0.3138 -3.0976
 9500TIP3   OH249990   4.387   0.453   0.484  0.1466  0.1511 -0.2048
 9500TIP3    H149991   4.361   0.540   0.454 -0.5971  0.0417  0.1071
 9500TIP3    H249992   4.344   0.392   0.424  0.0248 -0.0199  0.0541
 9501TIP3   OH249993   3.726   6.513   2.179  0.4231 -0.0370 -0.0559
 9501TIP3    H149994   3.643   6.522   2.131 -0.3502 -0.4476  1.1415
 9501TIP3    H249995   3.758   6.427   2.155 -1.6711 -1.7190  2.6068
 9502TIP3   OH249996   1.020   0.389  15.881 -0.1835 -0.5619 -0.1067
 9502TIP3    H149997   0.971   0.446  15.821 -1.1220  0.3133  1.4086
 9502TIP3    H249998   1.111   0.416  15.871 -0.4556  0.2895 -0.3926
 9503TIP3   OH249999   0.352   1.833  15.181  0.1449 -0.1981  0.5757
 9503TIP3    H150000   0.324   1.824  15.090  0.1766 -0.2356  0.5693
 9503TIP3    H250001   0.272   1.826  15.232 -0.0205  0.8616  0.4906
 9504TIP3   OH250002   1.433   0.299  17.276  0.2564  0.1373 -0.0120
 9504TIP3    H150003   1.487   0.234  17.231 -0.3669 -0.0200 -0.5413
 9504TIP3    H250004   1.368   0.247  17.323  1.1518  0.2714  1.4381
 9505TIP3   OH250005   5.868   1.317   1.612  0.0058  0.0737  0.7434
 9505TIP3    H150006   5.821   1.238   1.586  0.4520 -0.0758  0.3844
 9505TIP3    H250007   5.935   1.286   1.673  0.9564  0.0048 -0.3163
 9506TIP3   OH250008   4.915   5.390  16.150 -0.0076 -0.0370 -0.4275
 9506TIP3    H150009   4.926   5.420  16.060 -1.0069 -0.0513 -0.5619
 9506TIP3    H250010   4.971   5.448  16.202 -1.0621  1.3630 -0.8105
 9507TIP3   OH250011   3.658   5.974  15.369 -0.2735  0.6688 -0.1924
 9507TIP3    H150012   3.633   5.958  15.460 -1.1214  0.3894 -0.4711
 9507TIP3    H250013   3.688   5.889  15.336 -3.4635 -0.1635 -1.2547
 9508TIP3   OH250014   1.484   1.492   0.461 -0.1808  0.0591  0.1532
 9508TIP3    H150015   1.421   1.493   0.388 -2.5446 -1.8648  1.9890
 9508TIP3    H250016   1.431   1.513   0.538  1.9041  0.4680  1.5377
 9509TIP3   OH250017   1.183   5.303   1.794  0.0048 -0.0729  0.0191
 9509TIP3    H150018   1.091   5.284   1.813  0.4120 -0.5794  1.7110
 9509TIP3    H250019   1.197   5.269   1.706 -1.3052 -0.4496 -0.0624
 9510TIP3   OH250020   2.149   5.674  15.023  0.0172 -0.2123  0.6408
 9510TIP3    H150021   2.065   5.673  14.979 -1.1517  0.5491  2.7283
 9510TIP3    H250022   2.204   5.615  14.971 -1.7600 -0.6842 -0.8002
 9511TIP3   OH250023   2.142   4.422  16.660  0.4632  0.0618 -0.0709
 9511TIP3    H150024   2.082   4.348  16.653  0.0627  0.3400  0.4187
 9511TIP3    H250025   2.104   4.479  16.726 -1.1620  2.5222 -2.8724
 9512TIP3   OH250026   5.458   5.850   1.610  0.4566 -0.4934 -0.6370
 9512TIP3    H150027   5.435   5.784   1.675 -0.0825  0.3623  0.0743
 9512TIP3    H250028   5.551   5.835   1.593  0.2116 -1.7810 -0.9161
 9513TIP3   OH250029   5.536   5.669  11.447 -0.4245  0.5764  0.2239
 9513TIP3    H150030   5.526   5.617  11.368 -0.0260  1.8493 -0.7094
 9513TIP3    H250031   5.447   5.676  11.482 -0.5174 -0.4985  0.2359
 9514TIP3   OH250032   4.594   3.774   5.311  0.3061 -0.3280  0.1856
 9514TIP3    H150033   4.675   3.822   5.326  0.2105 -0.1124  0.0152
 9514TIP3    H250034   4.580   3.724   5.392  0.3166  0.0619  0.4291
 9515TIP3   OH250035   4.652   0.341  10.679  0.5318  0.2240  0.2129
 9515TIP3    H150036   4.672   0.370  10.590 -1.3081  1.3310  0.0897
 9515TIP3    H250037   4.626   0.422  10.724 -2.1146 -0.7807  0.6702
 9516TIP3   OH250038   1.537   0.093   4.520  0.3918 -0.2542  0.0001
 9516TIP3    H150039   1.475   0.166   4.527  1.5549  0.6226  2.7760
 9516TIP3    H250040   1.497   0.033   4.456 -1.6233  1.8045 -0.8202
 9517TIP3   OH250041   1.727   0.884   1.534  0.0682 -0.0656  1.4342
 9517TIP3    H150042   1.775   0.814   1.578 -0.2040 -1.3520 -0.2124
 9517TIP3    H250043   1.673   0.839   1.469 -2.5064  1.4206  2.3945
 9518TIP3   OH250044   1.802   2.353   0.009  0.3339  0.6529 -0.0177
 9518TIP3    H150045   1.733   2.289  -0.011  1.0017  0.1222 -0.6426
 9518TIP3    H250046   1.879   2.301   0.029  0.7015  1.2605  0.1916
 9519TIP3   OH250047   3.469   2.472   3.914 -0.1561 -0.1169 -0.9302
 9519TIP3    H150048   3.381   2.439   3.930  0.1972 -0.4421  0.5634
 9519TIP3    H250049   3.525   2.395   3.926  0.6671  0.8535  2.4002
 9520TIP3   OH250050   5.673   2.351   2.631 -0.2675 -0.2904 -0.2082
 9520TIP3    H150051   5.714   2.437   2.639  1.3935 -0.8504 -2.0870
 9520TIP3    H250052   5.591   2.360   2.680  1.1339  1.4752  2.0794
 9521TIP3   OH250053   4.298   2.726   4.856  0.3180  0.2181  0.0775
 9521TIP3    H150054   4.363   2.758   4.794 -0.0382  1.3112  0.2435
 9521TIP3    H250055   4.335   2.645   4.890  2.1052  1.3398  0.9463
 9522TIP3   OH250056   4.085   5.373  16.143  0.6380 -0.2241 -0.6357
 9522TIP3    H150057   4.046   5.286  16.144  0.6390 -0.2229  0.3701
 9522TIP3    H250058   4.016   5.431  16.174  1.3000 -0.1743  0.8064
 9523TIP3   OH250059   1.596   5.566  16.710  0.1301 -0.2558 -0.0339
 9523TIP3    H150060   1.671   5.550  16.653  0.6196 -0.1823  0.5860
 9523TIP3    H250061   1.545   5.485  16.705  0.5405 -0.5186 -0.0196
 9524TIP3   OH250062   5.117   6.445  14.192  0.5038  0.3117 -0.1211
 9524TIP3    H150063   5.072   6.463  14.109  0.0359  0.1060  0.0850
 9524TIP3    H250064   5.046   6.431  14.255  0.8466  1.6808  0.5923
 9525TIP3   OH250065   0.840   5.440  15.804 -0.1336 -0.7549 -0.2810
 9525TIP3    H150066   0.844   5.362  15.860 -0.7245 -2.1063 -2.0065
 9525TIP3    H250067   0.929   5.473  15.801 -0.2501 -0.0503  2.1903
 9526TIP3   OH250068   3.915   1.810  13.638  0.9381  0.0187 -0.6360
 9526TIP3    H150069   3.875   1.747  13.698  2.1923  0.3208  0.5595
 9526TIP3    H250070   3.845   1.872  13.618  0.5842  0.1081  0.8122
 9527TIP3   OH250071   0.076   1.568   5.429 -0.5694  0.0793 -0.1176
 9527TIP3    H150072   0.119   1.492   5.468 -1.5445 -0.0212  0.8021
 9527TIP3    H250073   0.082   1.552   5.334 -0.1626 -0.8102  0.0438
 9528TIP3   OH250074   3.453   3.323   6.143 -0.4280 -0.1615  0.2385
 9528TIP3    H150075   3.537   3.369   6.139 -0.0346 -0.9540 -2.2501
 9528TIP3    H250076   3.404   3.368   6.211  1.4374  1.3125  0.6809
 9529TIP3   OH250077   2.732   0.622  12.263  0.3508  0.0606  0.0459
 9529TIP3    H150078   2.779   0.654  12.340  1.1743 -3.0393  0.9809
 9529TIP3    H250079   2.736   0.526  12.270 -1.5484 -0.3480 -2.6726
 9530TIP3   OH250080   6.727   4.441   0.284  0.2531 -0.4094 -0.5218
 9530TIP3    H150081   6.708   4.377   0.353 -0.6208 -1.0115 -1.3021
 9530TIP3    H250082   6.789   4.396   0.226  0.5661 -0.1017 -0.4315
 9531TIP3   OH250083   4.155   2.248  11.855  0.4279  0.1427 -0.3045
 9531TIP3    H150084   4.086   2.197  11.896 -0.3059  1.3162 -0.0203
 9531TIP3    H250085   4.136   2.339  11.880  1.1042  0.6771 -1.6002
 9532TIP3   OH250086   0.185   3.469   3.043  0.2686 -0.2555 -0.1466
 9532TIP3    H150087   0.206   3.375   3.036 -0.1306 -0.2870 -1.0081
 9532TIP3    H250088   0.160   3.481   3.134  0.0613 -1.0448 -0.0918
 9533TIP3   OH250089   4.811   2.163   1.818  0.2225 -0.3684  0.5235
 9533TIP3    H150090   4.726   2.178   1.776  1.3118  0.2194 -1.6344
 9533TIP3    H250091   4.831   2.071   1.801  1.4915  0.2931 -2.0711
 9534TIP3   OH250092   1.697   5.816   4.221  0.3668  0.5038 -0.1576
 9534TIP3    H150093   1.691   5.727   4.186  0.8779  0.1154  0.6994
 9534TIP3    H250094   1.762   5.859   4.165  2.6644 -0.7026  1.4016
 9535TIP3   OH250095   2.121   4.774   1.783  0.0460  0.4626 -0.7497
 9535TIP3    H150096   2.059   4.832   1.739  1.3675  1.0227 -1.9362
 9535TIP3    H250097   2.130   4.812   1.871 -0.5241  0.9581 -0.8978
 9536TIP3   OH250098   1.214   5.212  15.575  0.0131 -0.8108 -0.5437
 9536TIP3    H150099   1.162   5.182  15.650 -1.2539 -0.8962 -1.4325
 9536TIP3    H250100   1.155   5.205  15.500  0.9564  0.1537 -1.4105
 9537TIP3   OH250101   3.014   4.472  12.659  0.0407 -0.2985 -0.1609
 9537TIP3    H150102   3.028   4.546  12.599  2.0277 -0.2749  0.2728
 9537TIP3    H250103   3.000   4.397  12.601  0.1277  0.0447 -0.6303
 9538TIP3   OH250104   4.040   0.921   4.907 -0.4230 -0.1638  0.0070
 9538TIP3    H150105   4.023   0.986   4.839 -1.7280 -3.0595 -2.7282
 9538TIP3    H250106   3.982   0.945   4.979 -2.3856  0.6293 -1.7263
 9539TIP3   OH250107   5.644   6.415   0.804  0.1649 -0.0775  0.8261
 9539TIP3    H150108   5.676   6.350   0.866 -0.6048  0.2766  1.6097
 9539TIP3    H250109   5.615   6.488   0.858 -1.6327 -0.2364  0.1491
 9540TIP3   OH250110   2.735   3.334   0.887 -0.1263 -0.3220  0.1012
 9540TIP3    H150111   2.693   3.384   0.817 -0.4124  0.6687  0.9496
 9540TIP3    H250112   2.773   3.401   0.944  0.2802 -1.1196  0.7806
 9541TIP3   OH250113   6.341   3.220   3.090 -0.4529  0.4935  0.2460
 9541TIP3    H150114   6.363   3.300   3.042  1.8975  0.3622  0.9903
 9541TIP3    H250115   6.269   3.181   3.039 -0.1042  1.8891 -1.4215
 9542TIP3   OH250116   3.545   4.138   2.286 -0.0581 -0.5800 -0.2071
 9542TIP3    H150117   3.603   4.120   2.212  0.0800 -0.0588 -0.2295
 9542TIP3    H250118   3.589   4.208   2.334 -0.7754 -0.0222 -0.3459
 9543TIP3   OH250119   0.294   4.212   5.174  0.1046  0.1897 -0.0790
 9543TIP3    H150120   0.224   4.199   5.111  1.2637 -0.1201 -1.3618
 9543TIP3    H250121   0.263   4.282   5.231 -0.4465  1.4258 -1.8196
 9544TIP3   OH250122   4.689   6.250  14.577 -0.2734 -0.6642  0.5127
 9544TIP3    H150123   4.713   6.164  14.541  0.7570  0.5182 -1.8061
 9544TIP3    H250124   4.593   6.253  14.567 -0.2224 -1.1754 -0.3296
 9545TIP3   OH250125   6.511   5.140   0.031  0.4884 -0.5212  0.6238
 9545TIP3    H150126   6.518   5.132   0.126 -2.9461  0.9599  1.1423
 9545TIP3    H250127   6.516   5.234   0.014 -1.2477 -0.5589 -0.3360
 9546TIP3   OH250128   4.792   6.609   5.844 -0.1106 -0.1646  0.1539
 9546TIP3    H150129   4.826   6.698   5.854 -0.4168 -0.2388  2.2068
 9546TIP3    H250130   4.866   6.552   5.865 -0.4795 -0.3535  0.9959
 9547TIP3   OH250131   5.512   1.248  13.224  0.2197 -0.1821 -0.5858
 9547TIP3    H150132   5.435   1.304  13.222 -1.0775 -1.8394  0.5840
 9547TIP3    H250133   5.572   1.292  13.285 -0.3102  0.4736 -0.5241
 9548TIP3   OH250134   0.549   1.197   5.197 -0.4942 -0.1328 -0.3752
 9548TIP3    H150135   0.493   1.128   5.163 -1.5268  1.1733 -1.4836
 9548TIP3    H250136   0.577   1.245   5.119  1.7235 -0.4020  0.2120
 9549TIP3   OH250137   4.623   0.484   2.498 -0.5085  0.2189  0.2592
 9549TIP3    H150138   4.541   0.449   2.464 -0.2836  1.5119 -1.8022
 9549TIP3    H250139   4.670   0.515   2.420  0.2776  2.9179  1.6650
 9550TIP3   OH250140   1.528   4.745   4.073  0.5000  0.8250  0.3581
 9550TIP3    H150141   1.605   4.690   4.062  0.5033  0.7703  0.6325
 9550TIP3    H250142   1.471   4.694   4.131  0.6601  1.2636  0.9113
 9551TIP3   OH250143   3.368   2.492  14.370 -0.3031 -0.0439 -0.3005
 9551TIP3    H150144   3.384   2.455  14.283  0.0083 -0.7928  0.0677
 9551TIP3    H250145   3.306   2.563  14.355 -0.5901 -0.4523 -1.0818
 9552TIP3   OH250146   4.643   2.229  13.077  0.5191  0.5270  0.4196
 9552TIP3    H150147   4.650   2.318  13.041  0.5160  0.3013 -0.1530
 9552TIP3    H250148   4.730   2.192  13.066 -0.0110 -0.2817 -1.3533
 9553TIP3   OH250149   6.576   0.600  16.743 -0.4778 -0.4582 -0.1184
 9553TIP3    H150150   6.576   0.690  16.776 -0.4307 -0.8843  1.0900
 9553TIP3    H250151   6.654   0.594  16.687  0.3344 -0.1428  0.9481
 9554TIP3   OH250152   6.329   6.583  13.334 -1.1165  0.5920  0.1748
 9554TIP3    H150153   6.326   6.666  13.287 -0.2174  0.7798  0.4273
 9554TIP3    H250154   6.302   6.604  13.424 -1.2221  0.5493  0.1531
 9555TIP3   OH250155   4.412   6.097  15.775  0.0605  0.0685 -0.3853
 9555TIP3    H150156   4.351   6.135  15.711  1.3551 -0.3951 -1.9522
 9555TIP3    H250157   4.471   6.169  15.797 -0.0512  0.0765 -0.1004
 9556TIP3   OH250158   4.954   6.297  15.718 -0.3233  0.8767 -0.2829
 9556TIP3    H150159   4.888   6.361  15.692 -0.4189  1.2200  0.7710
 9556TIP3    H250160   4.904   6.222  15.751 -0.1996  0.5602 -0.8011
 9557TIP3   OH250161   2.159   0.590  17.264 -0.1295  0.9206  0.4291
 9557TIP3    H150162   2.186   0.498  17.274  1.8442  0.9983 -2.8608
 9557TIP3    H250163   2.219   0.638  17.322  2.3591  0.4402 -1.5559
 9558TIP3   OH250164   2.414   3.002   2.533  0.4586  0.3205 -0.0824
 9558TIP3    H150165   2.343   3.000   2.597  0.1699  1.3375 -0.3502
 9558TIP3    H250166   2.468   2.926   2.555 -0.7434 -0.5199  0.0810
 9559TIP3   OH250167   2.323   6.584   5.748 -0.1649  0.4567  0.3281
 9559TIP3    H150168   2.308   6.553   5.659 -1.6276  2.6634 -0.2708
 9559TIP3    H250169   2.413   6.556   5.769 -0.1702 -1.0143 -1.3916
 9560TIP3   OH250170   5.576   0.354   1.886  0.7733  0.5815  0.3869
 9560TIP3    H150171   5.525   0.285   1.844  2.0650  0.2140 -0.6724
 9560TIP3    H250172   5.595   0.321   1.974  2.1135 -0.8630 -0.3918
 9561TIP3   OH250173   5.936   2.926  12.394  0.0121  0.2829 -0.3901
 9561TIP3    H150174   5.972   2.997  12.447 -1.7120  0.3387  0.7886
 9561TIP3    H250175   5.900   2.970  12.317 -0.5174  0.6510  0.0509
 9562TIP3   OH250176   2.380   5.069   4.471 -0.2692  0.5252 -0.9979
 9562TIP3    H150177   2.308   5.040   4.528  0.8237  0.9532  0.6754
 9562TIP3    H250178   2.372   5.165   4.470  0.3160  0.5825 -0.7095
 9563TIP3   OH250179   5.690   6.491  15.341  0.6183  0.6432 -0.3419
 9563TIP3    H150180   5.626   6.471  15.273  0.9137  0.5352 -0.5938
 9563TIP3    H250181   5.640   6.535  15.409  0.0154 -0.6142  0.0557
 9564TIP3   OH250182   0.442   2.052  14.151 -0.4641 -0.3582 -0.2902
 9564TIP3    H150183   0.412   2.025  14.065 -1.4859 -1.0778  0.2604
 9564TIP3    H250184   0.523   2.002  14.166 -1.3709 -1.8156 -0.0255
 9565TIP3   OH250185   1.767   5.922  11.239 -0.3351 -0.5872  0.6920
 9565TIP3    H150186   1.697   5.974  11.280  0.0023 -0.3221  0.9383
 9565TIP3    H250187   1.749   5.927  11.145  0.6079  1.3510  0.5587
 9566TIP3   OH250188   2.398   6.778   2.544 -0.1959  0.2324 -0.1322
 9566TIP3    H150189   2.400   6.873   2.553  1.4814  0.0812  1.8481
 9566TIP3    H250190   2.308   6.754   2.568 -0.2332  1.2303  0.8103
 9567TIP3   OH250191   2.046   5.628   1.698  0.1347  0.1950 -0.3843
 9567TIP3    H150192   1.958   5.656   1.675 -0.0086 -0.5552 -0.7978
 9567TIP3    H250193   2.072   5.685   1.770 -1.5729 -1.0673  1.3436
 9568TIP3   OH250194   3.609   3.886   0.518 -0.2291  0.0206 -0.8434
 9568TIP3    H150195   3.618   3.832   0.596  0.4188  1.2826 -0.0242
 9568TIP3    H250196   3.567   3.828   0.454 -1.3729 -0.8523  0.6264
 9569TIP3   OH250197   6.572   2.485  14.924  0.6066 -0.1887  0.3907
 9569TIP3    H150198   6.547   2.394  14.908 -1.2691  0.4565 -0.5838
 9569TIP3    H250199   6.525   2.509  15.004 -1.1114  0.7057 -0.8446
 9570TIP3   OH250200   2.886   6.088   3.992 -0.0877 -0.0481  0.7556
 9570TIP3    H150201   2.880   6.179   3.963 -0.8575 -0.6532 -1.1464
 9570TIP3    H250202   2.978   6.064   3.978 -0.0058  0.2746  0.7441
 9571TIP3   OH250203   3.900   0.037   3.725  0.0069  0.3238 -0.8083
 9571TIP3    H150204   3.900  -0.006   3.639 -0.2297  0.1065 -0.7007
 9571TIP3    H250205   3.833  -0.009   3.775  0.8888 -0.2634 -0.1402
 9572TIP3   OH250206   0.311   0.335  16.107  0.3004  0.0134 -0.6249
 9572TIP3    H150207   0.304   0.313  16.200  0.0178 -0.7015 -0.8083
 9572TIP3    H250208   0.376   0.405  16.104  0.3211  0.0370  0.1095
 9573TIP3   OH250209   3.748   1.729  12.411 -0.0705  0.3063  0.4848
 9573TIP3    H150210   3.796   1.727  12.493 -1.0954 -1.1156  1.0815
 9573TIP3    H250211   3.666   1.683  12.429  0.0721 -0.8936 -1.5627
 9574TIP3   OH250212   3.286   1.697   0.195 -1.0857  0.0299  0.3210
 9574TIP3    H150213   3.204   1.681   0.148 -1.2418 -2.0851  1.2310
 9574TIP3    H250214   3.337   1.617   0.183  1.0069  1.3796 -0.4355
 9575TIP3   OH250215   0.170   6.056   2.379  0.2880 -0.6751 -0.0104
 9575TIP3    H150216   0.214   6.035   2.296  1.5449 -0.5405  0.5907
 9575TIP3    H250217   0.228   6.020   2.446  0.3838  1.0573  0.8943
 9576TIP3   OH250218   5.329   0.889  16.215  0.7753 -0.4681 -0.3021
 9576TIP3    H150219   5.304   0.831  16.286  0.4597 -0.2295 -0.2167
 9576TIP3    H250220   5.273   0.863  16.142  0.0448  0.2767 -0.0157
 9577TIP3   OH250221   1.476   3.498   6.044  0.9085  0.1296  0.1453
 9577TIP3    H150222   1.558   3.547   6.037  0.5011  0.8972  0.7076
 9577TIP3    H250223   1.412   3.552   5.997  0.0225  1.1427  2.3763
 9578TIP3   OH250224   1.435   4.301  14.447  0.5859 -0.2128  0.0578
 9578TIP3    H150225   1.468   4.212  14.456  2.1490  0.4562  1.6965
 9578TIP3    H250226   1.458   4.343  14.530 -1.0848  1.4226 -0.2382
 9579TIP3   OH250227   2.623   5.618   0.488  0.7374 -0.6156  0.2652
 9579TIP3    H150228   2.647   5.526   0.477  1.2185 -0.3908 -0.6800
 9579TIP3    H250229   2.707   5.662   0.505  0.6303 -0.2356 -0.1708
 9580TIP3   OH250230   1.188   2.584  15.713  0.1064 -0.0418  0.1422
 9580TIP3    H150231   1.098   2.615  15.724  0.1942 -0.4221  2.5328
 9580TIP3    H250232   1.241   2.650  15.756  0.5204 -1.9708  2.8356
 9581TIP3   OH250233   1.332   3.840  12.862  0.3988  0.0771 -0.6316
 9581TIP3    H150234   1.394   3.902  12.901  0.5941  1.2000 -2.6198
 9581TIP3    H250235   1.356   3.755  12.900  1.0803  0.9626  1.0282
 9582TIP3   OH250236   4.890   3.069  12.019 -0.2742 -0.5224  0.2233
 9582TIP3    H150237   4.886   3.092  11.926  0.5250  0.8829  0.5020
 9582TIP3    H250238   4.978   3.096  12.046  0.4303 -3.1506  0.8523
 9583TIP3   OH250239   1.770   3.313  16.337 -0.4069  0.2879 -0.1224
 9583TIP3    H150240   1.781   3.401  16.370 -1.0498 -0.1593  1.3563
 9583TIP3    H250241   1.831   3.307  16.263 -0.1417  1.8501 -0.0591
 9584TIP3   OH250242   5.022   4.852   3.911  0.3911 -0.7942 -0.0432
 9584TIP3    H150243   4.984   4.795   3.843  0.5424 -3.5398  1.9976
 9584TIP3    H250244   4.969   4.931   3.908 -2.0529 -2.3351 -0.8659
 9585TIP3   OH250245   4.143   3.702   4.213  0.6657 -0.3889 -0.2484
 9585TIP3    H150246   4.177   3.786   4.244 -0.1011 -0.8801  2.1671
 9585TIP3    H250247   4.222   3.649   4.197  1.1318  0.1595  0.1694
 9586TIP3   OH250248   1.916   4.803   0.340 -0.5536 -0.0047 -0.5596
 9586TIP3    H150249   1.972   4.757   0.277  1.0277  1.3639 -0.2191
 9586TIP3    H250250   1.882   4.878   0.292 -0.4306  0.2981 -0.1793
 9587TIP3   OH250251   0.041   6.119   3.713 -0.4808 -0.5450 -0.4414
 9587TIP3    H150252   0.040   6.081   3.626  0.8072 -2.1566  0.2089
 9587TIP3    H250253  -0.027   6.072   3.761  1.4919 -2.5679  0.5274
 9588TIP3   OH250254   2.236   2.735  11.572 -0.2532 -0.3070  0.2106
 9588TIP3    H150255   2.202   2.770  11.655  0.1498  1.2837 -0.2555
 9588TIP3    H250256   2.288   2.660  11.598  0.8467  0.8539  1.5680
 9589TIP3   OH250257   6.658   2.104  13.643  0.7940  0.2383  0.2712
 9589TIP3    H150258   6.647   2.013  13.670  0.6482  0.6863  1.8342
 9589TIP3    H250259   6.604   2.154  13.705  3.0820  1.6222  1.2847
 9590TIP3   OH250260   0.644   2.778  15.491  0.1870 -0.5951  0.2814
 9590TIP3    H150261   0.647   2.872  15.507 -0.7348 -0.7038  1.1591
 9590TIP3    H250262   0.638   2.770  15.396  1.1491  0.1980  0.1350
 9591TIP3   OH250263   5.224   2.047  11.183 -0.1959 -0.0381 -0.4907
 9591TIP3    H150264   5.242   1.962  11.223 -1.1691  0.6688  1.5783
 9591TIP3    H250265   5.298   2.102  11.211 -0.9505  0.4959  0.5227
 9592TIP3   OH250266   0.568   3.221  16.626 -0.0860  1.0305 -0.2166
 9592TIP3    H150267   0.516   3.288  16.582  0.7143  1.5082 -0.4764
 9592TIP3    H250268   0.582   3.256  16.714  0.6458  1.3920 -0.4697
 9593TIP3   OH250269   2.631   3.781  12.782  0.1878  0.4625 -0.2824
 9593TIP3    H150270   2.671   3.715  12.839 -1.9069  0.6062  1.4549
 9593TIP3    H250271   2.697   3.850  12.775  1.1751 -0.3746  0.5000
 9594TIP3   OH250272   0.195   5.412   0.043  0.3203 -0.2626 -0.0478
 9594TIP3    H150273   0.220   5.405  -0.049  1.1731  0.6751  0.0927
 9594TIP3    H250274   0.170   5.504   0.054  1.0721 -0.1562  0.8626
 9595TIP3   OH250275   5.836   2.148  16.287  0.0525 -0.2008  0.4419
 9595TIP3    H150276   5.787   2.180  16.362 -0.0234  1.1688 -0.1709
 9595TIP3    H250277   5.928   2.157  16.312  0.0218 -0.7923  0.7837
 9596TIP3   OH250278   6.771   2.626   0.528 -0.1391 -0.8112 -0.0699
 9596TIP3    H150279   6.764   2.711   0.484  0.1426 -1.1957 -0.8698
 9596TIP3    H250280   6.715   2.567   0.476  0.4923 -1.3567 -0.1409
 9597TIP3   OH250281   2.535   1.926   4.677  0.1604  0.5637  0.3800
 9597TIP3    H150282   2.525   1.949   4.584 -1.3407  0.8876  0.5978
 9597TIP3    H250283   2.445   1.922   4.710  0.6589 -0.1466  1.6835
 9598TIP3   OH250284   1.282   4.819   4.386 -0.3124  0.1815 -0.1281
 9598TIP3    H150285   1.362   4.837   4.435 -0.7997 -0.1881  0.8285
 9598TIP3    H250286   1.252   4.734   4.420 -2.4215  1.4259  1.3142
 9599TIP3   OH250287   0.569   0.108  11.456 -0.2151 -0.3172  0.2101
 9599TIP3    H150288   0.566   0.192  11.410 -0.7833  0.0293  0.8800
 9599TIP3    H250289   0.530   0.046  11.394  0.2518 -0.1062 -0.3052
 9600TIP3   OH250290   6.133   2.348  11.088 -0.0709  0.1984  0.0433
 9600TIP3    H150291   6.162   2.259  11.109 -2.2365 -1.0162 -1.7270
 9600TIP3    H250292   6.171   2.367  11.003 -0.0034  0.7747  0.1984
 9601TIP3   OH250293   6.095   3.250   1.360  0.5388 -0.5153 -0.0117
 9601TIP3    H150294   6.169   3.196   1.332  0.8497 -0.1802  0.1435
 9601TIP3    H250295   6.128   3.295   1.438  0.6032  0.5787 -0.6463
 9602TIP3   OH250296   5.544   6.619   0.007  0.3048  0.5407  0.0577
 9602TIP3    H150297   5.453   6.641  -0.010  0.2320  2.2672  2.1436
 9602TIP3    H250298   5.542   6.569   0.088  1.1429 -0.5302 -0.5575
 9603TIP3   OH250299   6.064   1.488  14.897 -0.2410  0.6561  0.3693
 9603TIP3    H150300   6.014   1.428  14.842 -0.5797 -0.0102  1.3594
 9603TIP3    H250301   6.105   1.549  14.836 -0.9360  0.2017 -0.5747
 9604TIP3   OH250302   3.780   2.356  15.322 -0.8348  0.3471  0.4528
 9604TIP3    H150303   3.694   2.361  15.365 -0.3924  1.3279  1.2721
 9604TIP3    H250304   3.838   2.319  15.389 -0.5422  0.0531  0.0363
 9605TIP3   OH250305   5.860   1.603   4.714 -0.5921 -0.3215  0.0639
 9605TIP3    H150306   5.829   1.574   4.628  0.3418  1.8501 -1.0820
 9605TIP3    H250307   5.830   1.693   4.722  1.3877  0.3362  0.9256
 9606TIP3   OH250308   4.377   0.517  16.719 -0.3630  0.8773 -0.2997
 9606TIP3    H150309   4.353   0.610  16.719 -1.1742  0.6734 -0.6379
 9606TIP3    H250310   4.314   0.476  16.660  0.4410  0.2230 -0.7351
 9607TIP3   OH250311   2.773   3.389   4.477  0.3649 -0.0329 -0.1275
 9607TIP3    H150312   2.688   3.432   4.490  0.2628 -0.0537 -0.7081
 9607TIP3    H250313   2.751   3.302   4.444  0.5587 -0.7006  1.4291
 9608TIP3   OH250314   4.643   3.023  16.117  0.5737  0.3514  0.7975
 9608TIP3    H150315   4.731   3.011  16.082  0.1123  0.7717 -0.5466
 9608TIP3    H250316   4.599   3.080  16.055 -0.3339  1.0242  2.0048
 9609TIP3   OH250317   1.074   1.066   1.587  0.2049  0.2755  0.4570
 9609TIP3    H150318   1.124   1.030   1.514 -0.1575 -1.2105  0.8892
 9609TIP3    H250319   0.984   1.035   1.571  0.0946  0.0482  1.4334
 9610TIP3   OH250320   3.145   2.221  17.165  0.0174 -0.0680  0.3596
 9610TIP3    H150321   3.137   2.169  17.245  0.3663 -0.2969  0.2470
 9610TIP3    H250322   3.055   2.232  17.134 -0.0246 -1.0683  0.0841
 9611TIP3   OH250323   5.423   3.087  11.188  0.6661  0.1004  0.4080
 9611TIP3    H150324   5.515   3.096  11.163  0.7725  1.4379  1.1523
 9611TIP3    H250325   5.375   3.083  11.105  1.3249  0.4534  0.0018
 9612TIP3   OH250326   3.883   5.286  16.417  0.0625  0.3724  0.4999
 9612TIP3    H150327   3.935   5.211  16.389 -0.4989 -0.6148  2.0306
 9612TIP3    H250328   3.802   5.279  16.368  0.1284  0.1580  0.4226
 9613TIP3   OH250329   6.501   1.250  12.554 -0.2551  0.2358  0.7218
 9613TIP3    H150330   6.506   1.265  12.649 -0.9866  0.0869  0.7874
 9613TIP3    H250331   6.584   1.284  12.520 -0.2672  0.9056  1.3349
 9614TIP3   OH250332   1.111   4.391   0.618  0.2324 -0.1024  0.3130
 9614TIP3    H150333   1.022   4.398   0.653  0.9432 -1.1241  2.4885
 9614TIP3    H250334   1.102   4.335   0.541 -0.9480 -0.5332  0.7491
 9615TIP3   OH250335   1.007   6.401   1.973  1.1844 -0.0931 -0.2227
 9615TIP3    H150336   1.071   6.466   2.002  1.7995 -0.3668 -0.9160
 9615TIP3    H250337   0.950   6.388   2.049  1.0821  1.2038 -0.0602
 9616TIP3   OH250338   5.048   5.109  13.930  0.1395  0.2908  0.1311
 9616TIP3    H150339   5.096   5.035  13.893  0.4278  0.1254  0.8257
 9616TIP3    H250340   5.045   5.091  14.024 -0.2842  0.8785  0.2333
 9617TIP3   OH250341   6.530   3.962   3.356 -0.0530 -0.0465 -0.2487
 9617TIP3    H150342   6.610   4.002   3.390 -0.3526 -0.8646  1.5695
 9617TIP3    H250343   6.484   4.033   3.311  1.5051  0.5190 -1.0241
 9618TIP3   OH250344   2.196   0.237   4.952 -0.0577 -0.3268  0.0798
 9618TIP3    H150345   2.182   0.288   4.872  1.1101 -0.1948 -0.0588
 9618TIP3    H250346   2.221   0.302   5.018 -2.3444 -0.2553  0.9434
 9619TIP3   OH250347   2.376   6.733   0.820 -0.4637 -0.2409 -0.0277
 9619TIP3    H150348   2.395   6.643   0.793  2.3424  0.6990 -1.6840
 9619TIP3    H250349   2.418   6.740   0.906 -1.7005 -0.7894  0.6450
 9620TIP3   OH250350   5.872   5.945   4.219  0.0687 -0.6427 -0.4034
 9620TIP3    H150351   5.941   5.945   4.285  0.8883 -2.2257 -1.2098
 9620TIP3    H250352   5.845   6.037   4.212  1.3417 -0.1620  0.6971
 9621TIP3   OH250353   3.587   0.794  11.893 -0.1798 -0.1722 -0.2422
 9621TIP3    H150354   3.497   0.814  11.869  0.3210  1.2122 -1.1065
 9621TIP3    H250355   3.593   0.818  11.986 -0.2237  1.6426 -0.6672
 9622TIP3   OH250356   0.744   0.295   4.037 -0.4027 -0.1047 -0.1685
 9622TIP3    H150357   0.679   0.295   3.967 -1.1317  1.1558  0.4719
 9622TIP3    H250358   0.730   0.378   4.082  0.2728 -0.7434  1.2701
 9623TIP3   OH250359   1.154   0.762   1.871  0.0321 -0.1224  0.4074
 9623TIP3    H150360   1.241   0.803   1.872 -0.5941  1.2665  0.3638
 9623TIP3    H250361   1.151   0.713   1.790  0.4543  0.5663 -0.0330
 9624TIP3   OH250362   0.160   4.054   2.566  0.2195 -0.1143  0.1469
 9624TIP3    H150363   0.171   3.995   2.492 -1.3482 -0.0367 -0.1804
 9624TIP3    H250364   0.233   4.116   2.559 -0.7146  0.8414 -2.2666
 9625TIP3   OH250365   2.274   4.743  11.486 -0.2069  0.2921 -0.0566
 9625TIP3    H150366   2.181   4.746  11.462 -0.6274  2.1441  1.5729
 9625TIP3    H250367   2.320   4.736  11.403 -1.7828 -1.2261 -0.8807
 9626TIP3   OH250368   4.642   0.976   0.968 -0.4633  0.0829 -0.2984
 9626TIP3    H150369   4.710   0.989   1.034  1.5644 -0.1029 -2.2284
 9626TIP3    H250370   4.615   1.065   0.944 -2.6064  0.1654  1.9942
 9627TIP3   OH250371   4.052   1.495  10.876 -0.2143  0.1566 -0.0414
 9627TIP3    H150372   3.986   1.565  10.872 -0.4591 -0.0457  0.4043
 9627TIP3    H250373   4.024   1.440  10.949 -0.6607 -1.0494 -1.1027
 9628TIP3   OH250374   4.402   0.165   5.025  0.0868  0.8177  0.0593
 9628TIP3    H150375   4.346   0.243   5.023 -0.0308  0.7292 -0.1601
 9628TIP3    H250376   4.367   0.109   4.956 -0.6782 -0.0120  1.0741
 9629TIP3   OH250377   4.376   2.716   3.772 -0.4290  0.0951 -0.1252
 9629TIP3    H150378   4.284   2.714   3.748 -0.2438 -1.4805 -0.7702
 9629TIP3    H250379   4.382   2.786   3.838 -1.7859  1.2780 -1.1905
 9630TIP3   OH250380   4.018   4.380   1.089 -0.6284 -0.4724  0.1677
 9630TIP3    H150381   3.933   4.385   1.046 -2.7223 -0.9529  3.8112
 9630TIP3    H250382   4.034   4.286   1.098  0.2544 -0.3813 -0.3462
 9631TIP3   OH250383   5.217   1.694   3.980  0.2289  0.3147  0.2393
 9631TIP3    H150384   5.184   1.643   3.906 -0.5423 -2.0498  2.0562
 9631TIP3    H250385   5.312   1.682   3.976  0.1680 -0.0609 -0.1868
 9632TIP3   OH250386   2.808   3.235   2.042  0.0489 -0.6055 -0.3986
 9632TIP3    H150387   2.764   3.264   1.962 -2.9243  0.4515  1.4261
 9632TIP3    H250388   2.828   3.315   2.089  1.6316 -1.2142  0.0355
 9633TIP3   OH250389   5.536   6.662   0.698 -0.2147  0.2313  0.7248
 9633TIP3    H150390   5.534   6.676   0.793 -1.9025  0.5459  0.6680
 9633TIP3    H250391   5.482   6.584   0.685 -1.1051  0.9584 -0.0805
 9634TIP3   OH250392   0.707   1.354   5.725 -0.1373  0.8412 -0.0636
 9634TIP3    H150393   0.643   1.333   5.657 -0.4108  1.3965  0.0176
 9634TIP3    H250394   0.670   1.319   5.806  0.8436 -1.0900 -0.3966
 9635TIP3   OH250395   4.117   3.983   1.541 -0.3800 -0.0541 -0.6998
 9635TIP3    H150396   4.048   3.998   1.477 -0.7079  1.1151 -0.1062
 9635TIP3    H250397   4.198   3.981   1.490 -0.7889 -0.8732 -1.3293
 9636TIP3   OH250398   6.042   5.159   1.620  0.4772  0.0199 -0.3199
 9636TIP3    H150399   6.131   5.144   1.589 -0.2335  1.5416 -3.5294
 9636TIP3    H250400   6.044   5.247   1.658  0.6448 -0.5997  1.1731
 9637TIP3   OH250401   3.623   6.142   0.255  0.1245 -0.0292  0.0270
 9637TIP3    H150402   3.672   6.224   0.243  1.5744 -1.0281 -1.3011
 9637TIP3    H250403   3.560   6.141   0.183 -2.0435  1.2875  1.7733
 9638TIP3   OH250404   5.772   3.268   0.549  0.0190 -0.1076 -0.2028
 9638TIP3    H150405   5.718   3.228   0.480 -0.4610 -0.0613  0.1410
 9638TIP3    H250406   5.862   3.243   0.527 -0.0609  0.4652 -1.2173
 9639TIP3   OH250407   5.884   5.827  15.904  0.4574 -0.0948 -0.4006
 9639TIP3    H150408   5.863   5.741  15.940  0.9178  0.3836  1.0381
 9639TIP3    H250409   5.880   5.814  15.809 -1.6929 -1.1507 -0.2273
 9640TIP3   OH250410   4.777   0.620  13.258  0.7544 -0.0747 -0.0784
 9640TIP3    H150411   4.736   0.533  13.255  0.5398 -0.0092  0.9242
 9640TIP3    H250412   4.870   0.602  13.240  0.3998 -0.2623 -1.9738
 9641TIP3   OH250413   4.688   1.805  12.851 -0.1244 -0.7994  0.3676
 9641TIP3    H150414   4.688   1.721  12.805 -0.5188  0.1142 -1.4193
 9641TIP3    H250415   4.664   1.869  12.783  0.5003  0.7978  1.5914
 9642TIP3   OH250416   2.900   3.669  14.475 -0.0134  0.0484 -0.5091
 9642TIP3    H150417   2.936   3.672  14.564  1.8133  1.2774 -1.2322
 9642TIP3    H250418   2.953   3.603  14.430  0.7958  1.2200 -1.3378
 9643TIP3   OH250419   5.230   3.119   6.515 -0.2108 -0.4512 -0.3028
 9643TIP3    H150420   5.269   3.033   6.532 -2.7503 -1.5396  0.4141
 9643TIP3    H250421   5.177   3.137   6.592  0.2984  1.8359 -0.4205
 9644TIP3   OH250422   1.095   2.043  14.222  0.1704 -0.4276 -0.7636
 9644TIP3    H150423   1.027   2.086  14.170  0.2288 -1.1169 -1.4418
 9644TIP3    H250424   1.076   2.068  14.312  0.9136  1.9966 -1.2023
 9645TIP3   OH250425   4.928   4.092   4.925 -0.1044 -0.2775 -0.4238
 9645TIP3    H150426   4.861   4.039   4.881  0.1064 -0.9053  0.0104
 9645TIP3    H250427   4.939   4.168   4.867 -1.7083  0.2028 -0.1585
 9646TIP3   OH250428   0.728   4.760  10.837  0.0388  0.0384  0.5383
 9646TIP3    H150429   0.746   4.680  10.788 -2.4988  1.0714 -2.3830
 9646TIP3    H250430   0.801   4.818  10.815 -0.8953  0.3844 -2.0230
 9647TIP3   OH250431   1.346   0.621   1.615  0.2328 -0.0251 -0.4221
 9647TIP3    H150432   1.252   0.641   1.621  0.6565  1.8717  0.5351
 9647TIP3    H250433   1.376   0.672   1.540  1.1145  2.1344  1.3340
 9648TIP3   OH250434   2.986   3.553  15.881  0.0131  0.3582  0.2015
 9648TIP3    H150435   2.901   3.524  15.846 -1.2844  2.2086  1.6101
 9648TIP3    H250436   3.013   3.624  15.823  0.2225  0.2884  0.2116
 9649TIP3   OH250437   0.949   3.718  15.927  0.1934  0.0713  0.4830
 9649TIP3    H150438   1.019   3.656  15.946  0.4511 -0.3650 -1.6186
 9649TIP3    H250439   0.922   3.696  15.838 -1.5693  1.2392  0.6826
 9650TIP3   OH250440   2.503   2.221   5.497 -0.1844  0.5494  0.5775
 9650TIP3    H150441   2.423   2.271   5.483 -0.0237  1.1952  1.8133
 9650TIP3    H250442   2.555   2.234   5.418 -1.0586  0.5803  0.0017
 9651TIP3   OH250443   5.594   0.875   3.764  0.0366  0.4695  0.9473
 9651TIP3    H150444   5.510   0.855   3.724  1.1322  0.1424 -1.3532
 9651TIP3    H250445   5.634   0.939   3.705  2.0002 -0.4976  1.1400
 9652TIP3   OH250446   2.804   3.365  17.204 -0.3261  0.2679  0.1745
 9652TIP3    H150447   2.732   3.415  17.165  1.3875  1.2657 -1.9377
 9652TIP3    H250448   2.865   3.432  17.236  1.0587 -0.4497 -0.8486
 9653TIP3   OH250449   2.895   1.105   5.960 -0.1033  0.2054 -0.3381
 9653TIP3    H150450   2.827   1.090   6.026  0.0505 -0.3349 -0.2961
 9653TIP3    H250451   2.977   1.098   6.009  0.0594 -1.4228 -0.7961
 9654TIP3   OH250452   4.264   3.021  16.218  0.1019 -0.1813 -0.2535
 9654TIP3    H150453   4.334   2.959  16.196  0.1700 -1.1414  2.3325
 9654TIP3    H250454   4.281   3.046  16.309 -2.3594  0.3230  0.1496
 9655TIP3   OH250455   4.250   6.486   4.755  0.2973 -0.0110 -0.0713
 9655TIP3    H150456   4.208   6.556   4.805  0.4875  1.2316 -1.5968
 9655TIP3    H250457   4.185   6.460   4.690  0.2697 -1.2026  0.4070
 9656TIP3   OH250458   5.788   4.146  11.610 -0.0403 -0.2657 -0.4582
 9656TIP3    H150459   5.795   4.051  11.612 -0.5000 -0.2896  0.3685
 9656TIP3    H250460   5.844   4.177  11.681 -0.3228  0.0495 -0.3653
 9657TIP3   OH250461   0.928   2.086   1.153 -0.0203  0.1317  0.4875
 9657TIP3    H150462   0.965   2.146   1.219 -0.1291 -0.1870  0.8417
 9657TIP3    H250463   0.853   2.045   1.198  0.8129 -1.2168  0.6870
 9658TIP3   OH250464   0.332   0.116  14.741 -0.1704  0.7757 -0.1344
 9658TIP3    H150465   0.366   0.161  14.818 -0.3244  1.5878 -0.5369
 9658TIP3    H250466   0.258   0.064  14.775  1.3328 -0.9304  0.7236
 9659TIP3   OH250467   5.691   2.543   1.858 -0.8110 -0.3297  0.6280
 9659TIP3    H150468   5.657   2.531   1.947  0.0679 -1.1058  0.8806
 9659TIP3    H250469   5.743   2.464   1.842 -0.1092  0.2884 -0.1883
 9660TIP3   OH250470   5.730   4.823  15.643  0.1233 -0.3161 -0.3121
 9660TIP3    H150471   5.643   4.838  15.679 -0.9019 -2.0624 -1.8713
 9660TIP3    H250472   5.758   4.740  15.682  2.1663  1.2904  1.9522
 9661TIP3   OH250473   5.993   3.076   1.575 -0.3473 -0.1618 -0.0799
 9661TIP3    H150474   6.078   3.084   1.618 -0.0028 -1.7081 -0.4070
 9661TIP3    H250475   5.936   3.036   1.641 -0.7864  0.6922  0.0746
 9662TIP3   OH250476   2.472   1.374   6.723 -0.3614 -0.4896 -0.4052
 9662TIP3    H150477   2.410   1.399   6.792 -0.0221 -2.2828  0.6217
 9662TIP3    H250478   2.434   1.408   6.642 -2.0970 -0.5803  0.3401
 9663TIP3   OH250479   4.026   5.837   0.282  0.5468  0.1576  0.4151
 9663TIP3    H150480   4.082   5.879   0.217 -0.7858 -1.8626 -2.2106
 9663TIP3    H250481   3.937   5.852   0.251 -0.0941 -1.6093  1.2810
 9664TIP3   OH250482   6.663   4.140   3.114  0.0927  0.4012  0.0155
 9664TIP3    H150483   6.590   4.176   3.164  1.5302  0.9446  1.8277
 9664TIP3    H250484   6.634   4.146   3.023 -2.2895  0.1482  0.6842
 9665TIP3   OH250485   1.185   4.771  12.115 -0.0279  0.0028 -0.5178
 9665TIP3    H150486   1.222   4.786  12.203 -0.3058  1.8413 -0.6778
 9665TIP3    H250487   1.093   4.793  12.124  0.2547  1.8225 -1.6096
 9666TIP3   OH250488   5.750   2.484   3.924  0.2763 -0.4204  0.0111
 9666TIP3    H150489   5.764   2.507   3.832 -0.8622 -1.7537 -0.5239
 9666TIP3    H250490   5.824   2.426   3.945  0.6138 -0.0051 -0.0046
 9667TIP3   OH250491   0.452   2.523   3.784 -0.1524 -0.3601 -0.3894
 9667TIP3    H150492   0.501   2.477   3.852  0.3631 -0.0402 -0.5357
 9667TIP3    H250493   0.425   2.605   3.826 -0.4928 -0.4987 -0.3355
 9668TIP3   OH250494   3.698   4.544  13.242 -0.1946  0.4061 -0.1257
 9668TIP3    H150495   3.669   4.591  13.320 -0.7937 -0.8416  0.4334
 9668TIP3    H250496   3.792   4.531  13.255 -0.0224  1.4041 -0.2806
 9669TIP3   OH250497   1.708   0.703  15.501 -0.4752  0.1842  0.5680
 9669TIP3    H150498   1.737   0.655  15.423 -0.5521  1.0593 -0.0141
 9669TIP3    H250499   1.781   0.761  15.522 -1.0510  1.0631  0.2033
 9670TIP3   OH250500   5.850   5.073  12.945 -0.2313 -0.4308  0.3959
 9670TIP3    H150501   5.844   5.158  12.989  2.4946  0.0686 -0.0229
 9670TIP3    H250502   5.784   5.077  12.876 -0.1406  1.3664  0.3689
 9671TIP3   OH250503   6.657   6.232  15.476  0.1964 -0.1513  0.7512
 9671TIP3    H150504   6.739   6.190  15.453 -0.1788 -1.3075  1.4119
 9671TIP3    H250505   6.676   6.278  15.558 -0.2883 -2.2106  2.1182
 9672TIP3   OH250506   6.635   0.241   2.572  0.1402 -0.2106 -0.0789
 9672TIP3    H150507   6.716   0.191   2.558  0.0173 -0.3663 -0.2255
 9672TIP3    H250508   6.569   0.175   2.591  0.3116 -0.0133  1.3549
 9673TIP3   OH250509   3.454   5.757  15.514 -0.1218 -0.3910  0.5142
 9673TIP3    H150510   3.499   5.696  15.457 -0.9209 -1.1152  0.6240
 9673TIP3    H250511   3.404   5.701  15.574 -0.9816  0.3588  0.5314
 9674TIP3   OH250512   1.539   2.585   3.333  0.0288 -0.4171  0.0096
 9674TIP3    H150513   1.623   2.591   3.378 -0.3602  0.1584  0.6904
 9674TIP3    H250514   1.484   2.533   3.392 -0.4165  0.1420  0.0959
 9675TIP3   OH250515   4.336   2.863  16.507 -0.0852 -0.5842  0.0182
 9675TIP3    H150516   4.410   2.866  16.446 -0.5399  0.3954 -0.5153
 9675TIP3    H250517   4.296   2.950  16.500 -1.1321 -1.0128  0.4862
 9676TIP3   OH250518   3.415   0.221   2.107  0.6085 -0.2241 -0.0288
 9676TIP3    H150519   3.497   0.177   2.129  1.3524 -0.2778 -2.5560
 9676TIP3    H250520   3.346   0.159   2.133  1.4839 -1.2966 -0.2100
 9677TIP3   OH250521   5.958   3.969   0.829  0.9038  0.6125 -0.5218
 9677TIP3    H150522   5.987   3.889   0.873 -0.5895  0.3545  0.0409
 9677TIP3    H250523   5.989   4.040   0.887 -0.5981  0.2962  0.7376
 9678TIP3   OH250524   1.590   6.599   3.395 -0.3814 -0.7918  0.7102
 9678TIP3    H150525   1.540   6.548   3.332 -1.1716  0.8071 -0.0230
 9678TIP3    H250526   1.599   6.541   3.471 -0.9289 -2.1215 -0.2023
 9679TIP3   OH250527   0.992   2.762   5.978  0.7389 -0.2033 -0.0934
 9679TIP3    H150528   1.022   2.769   6.068 -0.6576 -0.0538  0.3912
 9679TIP3    H250529   0.916   2.704   5.983 -0.7364  1.5903 -0.7976
 9680TIP3   OH250530   1.217   5.396  15.187 -0.6709 -0.3007 -0.1820
 9680TIP3    H150531   1.215   5.488  15.161 -0.6405 -0.2571 -0.0303
 9680TIP3    H250532   1.277   5.355  15.124  0.4822  0.0624  0.6372
 9681TIP3   OH250533   3.278   2.701   1.245 -0.0516  0.1325  0.3490
 9681TIP3    H150534   3.208   2.724   1.183  0.7072  0.8357 -0.2750
 9681TIP3    H250535   3.235   2.701   1.330 -1.2124 -1.2315 -0.1972
 9682TIP3   OH250536   1.188   2.485  16.143 -0.0588 -0.3586  0.1447
 9682TIP3    H150537   1.192   2.390  16.156  0.5405 -0.3782 -0.1858
 9682TIP3    H250538   1.111   2.498  16.088  0.0327 -0.6813 -0.0663
 9683TIP3   OH250539   6.699   1.437  10.662 -0.2840 -0.3067  0.0463
 9683TIP3    H150540   6.632   1.441  10.594 -0.5285  0.3313  0.3231
 9683TIP3    H250541   6.764   1.376  10.627 -1.5857 -1.9072  0.3003
 9684TIP3   OH250542   2.027   3.594   6.504  0.1175 -0.5782  0.3840
 9684TIP3    H150543   1.954   3.539   6.477 -0.9114  0.5842  0.6806
 9684TIP3    H250544   1.993   3.645   6.578  0.3602  1.7691 -0.9902
 9685TIP3   OH250545   5.326   1.993   2.874  0.9818  0.4349  0.6131
 9685TIP3    H150546   5.303   1.923   2.935  2.1775  0.3081  0.9424
 9685TIP3    H250547   5.396   1.956   2.821 -0.7122  0.1769 -1.5830
 9686TIP3   OH250548   6.319   4.570   4.273 -0.2886  0.6657 -0.0355
 9686TIP3    H150549   6.267   4.494   4.300 -0.2652  0.2000 -1.2361
 9686TIP3    H250550   6.254   4.635   4.246 -0.2852  0.3923 -0.7315
 9687TIP3   OH250551   2.193   6.079  14.566  0.6293 -0.1609 -0.3306
 9687TIP3    H150552   2.118   6.044  14.614 -1.6191  1.8178 -2.1358
 9687TIP3    H250553   2.192   6.032  14.483  0.5371  0.7817 -0.8802
 9688TIP3   OH250554   3.310   4.449   0.077 -0.3632  0.1750 -0.1773
 9688TIP3    H150555   3.238   4.402   0.120 -0.1809 -0.3934 -0.4709
 9688TIP3    H250556   3.377   4.457   0.144 -1.0741  1.6073  0.4011
 9689TIP3   OH250557   2.026   5.997   6.349 -0.2785 -0.0493  0.8583
 9689TIP3    H150558   1.981   6.079   6.372 -0.2102  0.9137 -2.0520
 9689TIP3    H250559   2.118   6.021   6.342 -0.4936  0.2457 -2.0878
 9690TIP3   OH250560   3.201   4.481   5.854 -0.2134 -0.2643 -0.1658
 9690TIP3    H150561   3.121   4.511   5.812 -0.4543 -0.3255  0.2371
 9690TIP3    H250562   3.199   4.386   5.844 -1.9954 -0.6885  2.8447
 9691TIP3   OH250563   0.202   2.537  11.250 -0.5888  0.2455  0.2898
 9691TIP3    H150564   0.221   2.598  11.178  0.9485 -0.6500 -0.1174
 9691TIP3    H250565   0.260   2.565  11.321  0.0924 -0.6762  0.1168
 9692TIP3   OH250566   3.481   4.055  11.856 -0.5832 -0.0723  0.4301
 9692TIP3    H150567   3.570   4.046  11.889  0.4889  2.1231 -1.5797
 9692TIP3    H250568   3.434   4.102  11.924  0.6527  1.3976  0.3249
 9693TIP3   OH250569   3.488   4.683  11.482 -0.5608 -0.4993 -0.5201
 9693TIP3    H150570   3.574   4.668  11.520 -1.4183 -1.2820  1.2511
 9693TIP3    H250571   3.505   4.700  11.389  1.5704  0.6428  0.0195
 9694TIP3   OH250572   0.956   2.923  16.308 -0.0136  0.3629  0.3511
 9694TIP3    H150573   0.977   2.835  16.339  0.8448  0.4204 -0.0308
 9694TIP3    H250574   0.905   2.962  16.379 -1.4812 -0.8516  0.0234
 9695TIP3   OH250575   4.708   2.848  12.681  0.4716 -0.0970 -0.6730
 9695TIP3    H150576   4.663   2.925  12.714  1.1714 -0.0173  0.1355
 9695TIP3    H250577   4.797   2.879  12.661  0.8468 -0.7385 -0.0700
 9696TIP3   OH250578   4.833   5.137  14.231  0.2998 -0.4525  0.0821
 9696TIP3    H150579   4.922   5.107  14.250  0.3361 -1.2501 -1.2209
 9696TIP3    H250580   4.845   5.223  14.190  0.4702 -0.5460 -0.0655
 9697TIP3   OH250581   5.546   1.262  15.177 -0.2536  0.4958 -0.1867
 9697TIP3    H150582   5.561   1.337  15.234  0.5502  0.6745 -0.6126
 9697TIP3    H250583   5.608   1.274  15.105  1.6084 -1.7574  0.9069
 9698TIP3   OH250584   5.121   2.206   0.500 -0.2635  0.2479 -0.0258
 9698TIP3    H150585   5.195   2.174   0.552  0.8930  1.9963 -0.4907
 9698TIP3    H250586   5.065   2.251   0.563 -2.4723 -3.3144  0.8404
 9699TIP3   OH250587   0.446   0.339   6.973  0.0385  1.0657 -0.2824
 9699TIP3    H150588   0.397   0.334   7.055  0.3579 -0.3637 -0.1403
 9699TIP3    H250589   0.395   0.397   6.917 -1.7366 -0.2276 -0.0846
 9700TIP3   OH250590   4.243   0.905  11.690  0.0920  0.4268  0.0778
 9700TIP3    H150591   4.222   0.841  11.758  0.1837 -0.3481 -0.5985
 9700TIP3    H250592   4.314   0.958  11.726  0.5300 -0.3495  0.3624
 9701TIP3   OH250593   4.054   2.118   3.027  0.4805 -0.2538 -1.1111
 9701TIP3    H150594   4.093   2.121   3.114 -1.5324  0.6347 -0.1590
 9701TIP3    H250595   4.115   2.165   2.971  0.5286  1.7012  0.4385
 9702TIP3   OH250596   3.098   4.696  17.008 -0.0538  0.2191 -0.7042
 9702TIP3    H150597   3.134   4.617  17.048  0.7387  0.4290 -0.9868
 9702TIP3    H250598   3.083   4.672  16.916 -3.5510 -0.8315 -0.0138
 9703TIP3   OH250599   1.408   5.193   5.927  0.4445  0.1891  0.4675
 9703TIP3    H150600   1.439   5.163   6.012  2.1958  0.6872  0.0404
 9703TIP3    H250601   1.324   5.148   5.915  1.2661 -1.6981  1.4104
 9704TIP3   OH250602   3.105   6.335   0.382 -0.4347  0.4481 -0.2328
 9704TIP3    H150603   3.036   6.372   0.438 -0.2781  0.9220 -0.3506
 9704TIP3    H250604   3.122   6.248   0.420 -1.0018  0.3784 -0.1243
 9705TIP3   OH250605   5.672   5.946   3.132 -0.3294 -0.3226 -0.0729
 9705TIP3    H150606   5.583   5.981   3.127 -0.2065 -0.1796 -1.8917
 9705TIP3    H250607   5.728   6.023   3.123 -0.0287 -0.5705 -0.3098
 9706TIP3   OH250608   2.598   6.744   3.053  0.4145 -0.6171  0.4790
 9706TIP3    H150609   2.588   6.666   2.998  1.2537 -1.1254  1.0421
 9706TIP3    H250610   2.662   6.798   3.007 -0.0960 -0.2828  0.1384
 9707TIP3   OH250611   0.730   3.198  15.104  0.5602 -0.0977 -0.3607
 9707TIP3    H150612   0.797   3.215  15.170  0.5776 -0.7178 -0.2146
 9707TIP3    H250613   0.670   3.273  15.111  0.6166 -0.1088  0.2864
 9708TIP3   OH250614   3.384   2.712  14.588 -0.1797  0.5321  0.0919
 9708TIP3    H150615   3.418   2.626  14.564  2.6909  1.1356  1.5033
 9708TIP3    H250616   3.415   2.770  14.519  1.1741  0.9554  0.9929
 9709TIP3   OH250617   4.851   0.270  12.329 -0.1502  0.0982  0.1828
 9709TIP3    H150618   4.894   0.224  12.401  0.0780  0.0274  0.0010
 9709TIP3    H250619   4.809   0.345  12.371  0.1550  0.1716  0.3622
 9710TIP3   OH250620   1.429   4.839   5.673 -0.4684  0.1456 -0.4275
 9710TIP3    H150621   1.378   4.762   5.699 -0.8291  0.0846 -1.2707
 9710TIP3    H250622   1.368   4.890   5.618  0.5780 -0.2669 -2.0337
 9711TIP3   OH250623   0.950   5.654  16.527  0.1704 -0.0773  0.5221
 9711TIP3    H150624   1.036   5.689  16.548  0.3802 -0.3874  0.1827
 9711TIP3    H250625   0.957   5.625  16.436 -0.8894  1.7737 -0.2028
 9712TIP3   OH250626   0.249   5.081  16.134 -0.4174  0.4276 -0.2922
 9712TIP3    H150627   0.225   5.172  16.152 -0.9437  0.0576  0.9251
 9712TIP3    H250628   0.342   5.076  16.156 -0.2948  0.7416 -0.7038
 9713TIP3   OH250629   0.577   3.683  13.909  0.1161 -0.2028  0.3430
 9713TIP3    H150630   0.568   3.654  14.000  1.0642 -0.8787  0.2410
 9713TIP3    H250631   0.557   3.604  13.858  0.7804 -0.1568  0.0050
 9714TIP3   OH250632   6.537   1.563   6.604 -0.3889 -0.0648  0.5375
 9714TIP3    H150633   6.462   1.588   6.658 -1.7968  0.9743 -1.7467
 9714TIP3    H250634   6.509   1.485   6.557 -0.5585  0.9842 -1.2025
 9715TIP3   OH250635   6.191   2.741   5.177  0.0043 -0.3523 -0.0250
 9715TIP3    H150636   6.273   2.740   5.128 -1.1153 -2.1232 -2.0472
 9715TIP3    H250637   6.151   2.825   5.155 -0.0446 -0.7245 -1.4701
 9716TIP3   OH250638   2.234   1.950   5.983 -0.2337  1.0762  0.5564
 9716TIP3    H150639   2.329   1.952   5.975 -0.1635  1.0637  1.2824
 9716TIP3    H250640   2.209   1.862   5.957  0.0257  0.8627  1.0259
 9717TIP3   OH250641   0.842   4.061  17.282  0.4243  0.1849 -0.0065
 9717TIP3    H150642   0.869   4.142  17.324 -1.6241  1.9168 -1.7798
 9717TIP3    H250643   0.859   4.074  17.189 -1.9521 -0.4432 -0.6181
 9718TIP3   OH250644   4.645   6.354   0.501  0.7131  0.1277 -0.0635
 9718TIP3    H150645   4.672   6.344   0.410 -0.9308 -1.4359 -0.4156
 9718TIP3    H250646   4.666   6.270   0.542 -2.3553 -0.7442 -0.0676
 9719TIP3   OH250647   3.577   5.217  12.937 -0.3873 -0.0354  0.2477
 9719TIP3    H150648   3.486   5.219  12.907 -0.1271 -1.2712 -0.7275
 9719TIP3    H250649   3.572   5.185  13.028 -0.9334 -0.0851  0.2021
 9720TIP3   OH250650   0.954   3.686   2.068 -0.1111  0.3992 -0.6102
 9720TIP3    H150651   0.865   3.652   2.062 -0.4424  0.9460  0.8910
 9720TIP3    H250652   0.973   3.719   1.980 -1.8917  1.4891 -0.6259
 9721TIP3   OH250653   1.093   0.282  14.315  0.3588 -0.1130 -0.2650
 9721TIP3    H150654   1.106   0.236  14.398  2.4471  1.1002  0.1687
 9721TIP3    H250655   1.000   0.306  14.314  0.0724 -1.0607  1.2276
 9722TIP3   OH250656   2.905   4.678   5.241 -0.3653 -0.2539  0.0561
 9722TIP3    H150657   2.993   4.678   5.203  0.6699  2.1679  2.1071
 9722TIP3    H250658   2.920   4.680   5.336 -2.5488  1.9524  0.4531
 9723TIP3   OH250659   2.988   1.506   0.566 -0.0823 -0.0077  0.5165
 9723TIP3    H150660   2.954   1.533   0.481  0.6126 -0.4186  0.0940
 9723TIP3    H250661   3.044   1.431   0.547 -1.1174 -1.0779  1.5263
 9724TIP3   OH250662   6.014   4.480   3.582  0.1227  0.1471  0.9512
 9724TIP3    H150663   6.022   4.491   3.487  1.2951  0.0806  1.0282
 9724TIP3    H250664   5.958   4.403   3.592  0.0373  0.1189  0.3074
 9725TIP3   OH250665   0.442   5.792  14.569 -0.1291 -0.0039  0.9182
 9725TIP3    H150666   0.475   5.842  14.494 -1.9599 -1.3383 -0.8917
 9725TIP3    H250667   0.458   5.848  14.644 -0.9525  2.7764 -0.8311
 9726TIP3   OH250668   2.830   4.843   3.567 -0.1799  0.0461 -0.7422
 9726TIP3    H150669   2.798   4.789   3.495  1.3857 -0.2806 -1.2434
 9726TIP3    H250670   2.782   4.925   3.559 -0.3494 -0.1416 -1.9067
 9727TIP3   OH250671   2.068   6.605   0.557 -0.0740  0.0372 -0.0911
 9727TIP3    H150672   2.010   6.542   0.600  1.1670 -1.4741 -0.5599
 9727TIP3    H250673   2.152   6.559   0.549  1.1108  2.0341  0.2520
 9728TIP3   OH250674   4.319   6.275  14.272 -0.0397  0.2329  0.2357
 9728TIP3    H150675   4.230   6.291  14.303 -0.5764 -2.0840  0.0195
 9728TIP3    H250676   4.365   6.357  14.291 -2.3603  1.7832 -0.3057
 9729TIP3   OH250677   0.797   1.496   0.832 -0.2057 -0.1761 -0.0128
 9729TIP3    H150678   0.712   1.542   0.829 -1.0105 -1.5733  0.6423
 9729TIP3    H250679   0.861   1.565   0.817 -1.4044  1.0847  0.4018
 9730TIP3   OH250680   0.179   4.561   2.537 -0.2927 -0.3559  0.3148
 9730TIP3    H150681   0.123   4.586   2.610 -1.9803 -2.4841 -0.1266
 9730TIP3    H250682   0.230   4.487   2.571 -2.2357 -2.4340 -0.9680
 9731TIP3   OH250683   6.000   0.701   0.082 -0.1307  0.5598  0.1535
 9731TIP3    H150684   6.017   0.733  -0.007  0.8762  1.4354  0.6491
 9731TIP3    H250685   5.935   0.762   0.117 -1.2115 -0.3068 -0.2615
 9732TIP3   OH250686   1.508   0.540   4.807  0.9058 -0.0708  0.0661
 9732TIP3    H150687   1.542   0.477   4.870  0.5401  1.7544  2.1808
 9732TIP3    H250688   1.550   0.516   4.724  1.9716 -2.0897  1.1287
 9733TIP3   OH250689   0.477   3.862   3.579 -0.8178  0.6723  0.6840
 9733TIP3    H150690   0.437   3.923   3.517 -0.7071  0.0650  0.0080
 9733TIP3    H250691   0.567   3.851   3.548 -1.2136 -0.8788 -0.0044
 9734TIP3   OH250692   2.374   3.484  15.060 -0.4821  0.1143 -0.3826
 9734TIP3    H150693   2.348   3.553  15.121  1.4974 -0.4125  1.1694
 9734TIP3    H250694   2.292   3.440  15.037 -1.2553 -0.2798  2.7126
 9735TIP3   OH250695   0.658   1.979   1.658 -0.7235  0.6340 -0.0207
 9735TIP3    H150696   0.591   1.930   1.610 -2.1069  0.2317  2.2018
 9735TIP3    H250697   0.611   2.051   1.699  0.5093  1.2740  0.3277
 9736TIP3   OH250698   0.980   4.207   0.956  0.1640 -0.2086 -0.4981
 9736TIP3    H150699   1.033   4.175   1.029 -0.6074  2.4003  1.3569
 9736TIP3    H250700   1.041   4.258   0.903 -0.1387  1.8843  1.0413
 9737TIP3   OH250701   4.018   4.115  14.660  0.5381 -0.1409 -0.3847
 9737TIP3    H150702   3.990   4.025  14.642 -0.7596  0.3383 -0.9068
 9737TIP3    H250703   4.011   4.123  14.756  0.1450 -0.4445 -0.3837
 9738TIP3   OH250704   2.576   6.168  13.521 -0.7083 -0.3405  0.0647
 9738TIP3    H150705   2.557   6.172  13.615 -4.5761 -2.4382 -0.4331
 9738TIP3    H250706   2.658   6.119  13.515 -0.5567 -0.4703  2.3226
 9739TIP3   OH250707   1.985   5.460   2.362 -0.5828 -0.0366  0.3749
 9739TIP3    H150708   2.070   5.443   2.320 -1.5469 -3.7249 -0.3789
 9739TIP3    H250709   2.005   5.459   2.456  0.4934  1.4930  0.2150
 9740TIP3   OH250710   0.869   1.285  10.924 -0.1889 -0.0475  0.1130
 9740TIP3    H150711   0.810   1.211  10.934  0.8263 -0.7725  0.9002
 9740TIP3    H250712   0.842   1.326  10.841 -1.3781 -0.7156  0.1519
 9741TIP3   OH250713   4.645   6.333  16.018 -0.0137  0.1118  0.0846
 9741TIP3    H150714   4.624   6.318  16.111 -0.4823  2.0715  0.3315
 9741TIP3    H250715   4.724   6.281  16.003 -0.8521 -1.5580  1.1138
 9742TIP3   OH250716   3.396   1.656  15.489 -0.2601  0.2708  0.0429
 9742TIP3    H150717   3.484   1.635  15.459  0.3528  1.3088  1.0599
 9742TIP3    H250718   3.343   1.581  15.460  0.7371  0.0913 -1.4491
 9743TIP3   OH250719   2.178   4.316   0.606 -0.1642 -0.1133 -0.4291
 9743TIP3    H150720   2.251   4.307   0.668 -1.7191 -0.3350  1.4931
 9743TIP3    H250721   2.189   4.403   0.568  1.5634 -0.4808 -0.8678
 9744TIP3   OH250722   2.616   0.184   2.113 -0.7209  0.4994 -0.6694
 9744TIP3    H150723   2.686   0.192   2.178 -0.9096  0.1337 -0.4162
 9744TIP3    H250724   2.650   0.230   2.036  0.6450 -1.2767 -1.2190
 9745TIP3   OH250725   6.240   0.247  12.582  0.0896 -0.4758  0.2048
 9745TIP3    H150726   6.299   0.173  12.598  0.4053  0.2693  3.1232
 9745TIP3    H250727   6.285   0.322  12.620 -0.3298  1.2474 -2.4647
 9746TIP3   OH250728   5.684   5.477   5.385 -0.1093 -0.0244 -0.1186
 9746TIP3    H150729   5.604   5.521   5.355 -0.9385 -1.6715 -0.4561
 9746TIP3    H250730   5.655   5.389   5.407  1.8672 -1.0927 -1.5144
 9747TIP3   OH250731   6.507   4.098  13.302  0.1040  0.3717  0.1723
 9747TIP3    H150732   6.545   4.179  13.333 -0.8059  0.4448  1.1482
 9747TIP3    H250733   6.485   4.115  13.210  0.4710  1.0070  0.1987
 9748TIP3   OH250734   1.550   0.215  15.690 -0.1424 -0.4721 -0.5285
 9748TIP3    H150735   1.559   0.140  15.750 -2.1327 -0.1382  0.2723
 9748TIP3    H250736   1.638   0.229  15.656  0.2843 -3.2963 -0.8565
 9749TIP3   OH250737   5.595   5.748  12.607  0.3774  0.2701 -0.1735
 9749TIP3    H150738   5.532   5.677  12.602 -0.3499  0.7330  1.5747
 9749TIP3    H250739   5.644   5.743  12.525  0.2834 -2.1530 -0.1560
 9750TIP3   OH250740   5.108   3.171  16.837  0.2082  0.6097 -0.1293
 9750TIP3    H150741   5.076   3.100  16.892 -0.8943  0.5277 -0.8548
 9750TIP3    H250742   5.032   3.201  16.788  1.3287 -0.0077 -2.3873
 9751TIP3   OH250743   0.217   6.751   0.325 -0.5612 -0.0979 -0.1266
 9751TIP3    H150744   0.136   6.744   0.375 -0.1660 -1.4118  0.3684
 9751TIP3    H250745   0.190   6.749   0.233 -1.1943  1.0703  0.0213
 9752TIP3   OH250746   2.023   2.937  13.012  0.2317  0.2920 -0.0662
 9752TIP3    H150747   1.980   2.881  13.076  0.1051 -0.3706 -0.7124
 9752TIP3    H250748   1.986   3.024  13.027  0.3729  0.1983  0.8963
 9753TIP3   OH250749   0.065   0.394   6.032 -0.1441  0.3667 -1.0804
 9753TIP3    H150750   0.016   0.452   5.974 -2.8416  0.2882  0.9064
 9753TIP3    H250751   0.076   0.445   6.113  1.0198 -0.4880 -0.6704
 9754TIP3   OH250752   2.444   1.083   1.467  0.3811 -0.0961  0.4355
 9754TIP3    H150753   2.477   1.096   1.379  0.0362 -0.3605  0.2657
 9754TIP3    H250754   2.497   1.142   1.522 -0.8584  1.7281 -0.2378
 9755TIP3   OH250755   4.813   5.471  13.705  0.6716 -0.0171 -0.0546
 9755TIP3    H150756   4.718   5.464  13.714  0.5434  1.5174  0.0873
 9755TIP3    H250757   4.831   5.434  13.618 -0.5969  3.1325 -1.8395
 9756TIP3   OH250758   4.327   1.438   4.333 -0.2892  0.2824 -0.1795
 9756TIP3    H150759   4.300   1.416   4.422 -2.8441 -0.4552 -1.0503
 9756TIP3    H250760   4.417   1.471   4.342 -0.1153 -0.7308  2.5039
 9757TIP3   OH250761   5.430   5.100  16.670  0.4052 -0.0740 -0.1428
 9757TIP3    H150762   5.510   5.134  16.709  1.2545 -0.3277 -1.5947
 9757TIP3    H250763   5.384   5.058  16.743  0.6101  1.7922  1.1293
 9758TIP3   OH250764   2.649   1.091  12.097 -0.0415 -0.2761 -0.1912
 9758TIP3    H150765   2.648   1.049  12.012  1.6474 -1.4845  0.3286
 9758TIP3    H250766   2.651   1.185  12.078 -0.8046 -0.4999 -1.4319
 9759TIP3   OH250767   4.872   6.108  11.500 -0.5524 -0.0390 -0.1072
 9759TIP3    H150768   4.900   6.146  11.417  0.6850  2.6727  1.3965
 9759TIP3    H250769   4.949   6.117  11.557 -1.7357 -0.6787  1.6708
 9760TIP3   OH250770   0.628   5.423   5.502 -0.6600 -0.1679  0.0019
 9760TIP3    H150771   0.655   5.479   5.575 -0.0908 -0.9353  0.3831
 9760TIP3    H250772   0.612   5.338   5.541  1.4711 -1.1083 -1.0344
 9761TIP3   OH250773   5.842   2.498   5.841 -0.2500 -0.5961  0.1541
 9761TIP3    H150774   5.889   2.568   5.798 -1.2925 -0.1787 -0.3476
 9761TIP3    H250775   5.807   2.538   5.921  0.5303 -1.0034  0.7192
 9762TIP3   OH250776   1.137   2.809  14.209 -0.2806  0.0448  0.5167
 9762TIP3    H150777   1.186   2.748  14.265 -0.0237  1.3631  1.7794
 9762TIP3    H250778   1.051   2.768  14.200  0.2555 -1.0818  0.3525
 9763TIP3   OH250779   2.003   2.191   3.596  0.5127 -0.4000 -0.0342
 9763TIP3    H150780   1.964   2.193   3.683  2.3873 -0.9920  0.8859
 9763TIP3    H250781   2.047   2.106   3.592  1.9420  0.3460 -0.8473
 9764TIP3   OH250782   0.102   6.458  11.757 -0.2539 -0.2949 -0.7112
 9764TIP3    H150783   0.095   6.551  11.779 -1.6420 -0.7765  1.1551
 9764TIP3    H250784   0.193   6.435  11.774 -0.3859  0.2747  0.9546
 9765TIP3   OH250785   6.681   3.648  13.479  1.0477 -0.3494  0.6143
 9765TIP3    H150786   6.615   3.579  13.471 -1.1786  1.6258  0.9078
 9765TIP3    H250787   6.678   3.695  13.396  1.3047  0.4102  1.0163
 9766TIP3   OH250788   4.245   2.070  17.174 -0.2524 -0.7323 -0.0322
 9766TIP3    H150789   4.239   2.100  17.264 -0.1444 -0.5414 -0.0867
 9766TIP3    H250790   4.334   2.036  17.165  0.6033  1.5493 -0.7561
 9767TIP3   OH250791   5.422   4.033   4.371  0.1185  0.5993 -0.4072
 9767TIP3    H150792   5.427   3.937   4.381  3.6715  0.8600  2.5549
 9767TIP3    H250793   5.430   4.047   4.277 -0.9315 -1.9928 -0.9846
 9768TIP3   OH250794   1.964   3.110  14.089  0.4303  0.2465 -0.1376
 9768TIP3    H150795   1.907   3.169  14.138  1.8862  0.9618  0.7587
 9768TIP3    H250796   2.052   3.136  14.113  1.1531 -1.0377 -1.2442
 9769TIP3   OH250797   5.819   0.408  12.333  0.1689  0.1082 -0.7042
 9769TIP3    H150798   5.790   0.354  12.406 -0.2571  0.1689 -0.8278
 9769TIP3    H250799   5.871   0.477  12.374  1.9314 -1.1852 -0.6643
 9770TIP3   OH250800   1.079   1.843  16.677 -0.0777  0.3397  0.0182
 9770TIP3    H150801   1.094   1.761  16.629  2.0528  0.9817 -0.5158
 9770TIP3    H250802   1.012   1.889  16.626  1.1555  0.4030 -1.6280
 9771TIP3   OH250803   1.272   1.393  16.895 -0.3723  0.0307  0.9591
 9771TIP3    H150804   1.264   1.315  16.841  0.9283  0.1319  0.5857
 9771TIP3    H250805   1.365   1.397  16.918 -0.2927  1.7607  0.5019
 9772TIP3   OH250806   5.757   3.240  15.905  0.1079  1.0170  0.2988
 9772TIP3    H150807   5.802   3.264  15.824 -0.3092  0.5222 -0.0826
 9772TIP3    H250808   5.669   3.213  15.877 -0.6558  2.5669  1.0977
 9773TIP3   OH250809   4.758   0.224  11.240 -0.3536 -0.2784 -0.0854
 9773TIP3    H150810   4.788   0.313  11.259  0.7604 -0.3559 -1.3260
 9773TIP3    H250811   4.699   0.234  11.165 -0.1838 -0.5668 -0.2645
 9774TIP3   OH250812   4.874   4.019  13.337  0.2290  0.4557  0.4891
 9774TIP3    H150813   4.874   4.111  13.363 -0.2525  1.0637 -1.4855
 9774TIP3    H250814   4.786   4.003  13.304 -0.2885 -1.2814  2.4879
 9775TIP3   OH250815   3.410   6.238   3.869 -1.1930 -0.1984  0.1019
 9775TIP3    H150816   3.455   6.292   3.934 -4.0077 -0.1264  2.1729
 9775TIP3    H250817   3.429   6.148   3.895  0.3227 -0.2128 -0.9884
 9776TIP3   OH250818   3.380   1.896  13.147 -0.9626  0.2143 -0.0372
 9776TIP3    H150819   3.406   1.979  13.109  3.3537 -1.1289 -0.5487
 9776TIP3    H250820   3.419   1.896  13.235 -0.5628 -1.3276 -0.1754
 9777TIP3   OH250821   5.811   0.233  13.326 -0.3737 -0.1947 -0.2742
 9777TIP3    H150822   5.718   0.253  13.336 -0.0322  1.7401 -0.4776
 9777TIP3    H250823   5.847   0.241  13.414 -0.0643  1.2504 -0.4961
 9778TIP3   OH250824   4.642   5.604   5.237  0.5181  0.2073  0.0195
 9778TIP3    H150825   4.665   5.591   5.145  1.4834 -1.3312  0.4414
 9778TIP3    H250826   4.636   5.516   5.274 -0.3857  0.7762  1.3180
 9779TIP3   OH250827   1.341   2.080  10.721  0.3874  0.1112 -0.1784
 9779TIP3    H150828   1.307   2.150  10.666 -0.1297  0.8944  1.1008
 9779TIP3    H250829   1.408   2.121  10.776  0.6055 -0.5534  0.0722
 9780TIP3   OH250830   2.753   1.338  12.062  0.7325  0.4287 -0.0064
 9780TIP3    H150831   2.753   1.429  12.094  0.8216  0.6753 -0.6944
 9780TIP3    H250832   2.834   1.330  12.012  1.6127 -0.5657  1.4873
 9781TIP3   OH250833   1.968   5.764   2.224  0.1213  0.1098 -0.1557
 9781TIP3    H150834   1.990   5.711   2.148 -0.8778 -0.4590 -0.0573
 9781TIP3    H250835   1.992   5.709   2.299 -2.3457 -0.9195 -0.0208
 9782TIP3   OH250836   6.425   6.660   0.725 -0.0219 -0.3231  0.0090
 9782TIP3    H150837   6.338   6.662   0.765 -0.3226  0.9788 -0.6778
 9782TIP3    H250838   6.416   6.601   0.651 -0.6069  0.6007 -0.6703
 9783TIP3   OH250839   2.645   2.297   6.138  0.1560  0.2719  0.6534
 9783TIP3    H150840   2.620   2.380   6.178  0.6379  0.8273 -0.1569
 9783TIP3    H250841   2.562   2.258   6.109  0.0732  2.7505 -3.2851
 9784TIP3   OH250842   0.596   6.282  11.558 -0.4585  0.4165  0.1134
 9784TIP3    H150843   0.516   6.229  11.551  0.1393 -0.7061  1.3936
 9784TIP3    H250844   0.604   6.301  11.651  0.6515  0.6841 -0.0251
 9785TIP3   OH250845   1.184   4.358   0.883 -0.2640 -0.2533 -0.3670
 9785TIP3    H150846   1.198   4.398   0.797 -0.8230 -1.1820 -0.9071
 9785TIP3    H250847   1.237   4.278   0.881 -1.2075 -0.8923 -0.3095
 9786TIP3   OH250848   2.091   1.063  15.548  0.1122 -0.0609 -0.0131
 9786TIP3    H150849   2.035   1.139  15.569 -3.2232 -1.8456 -1.6413
 9786TIP3    H250850   2.120   1.030  15.633  0.5867  2.2082  0.7849
 9787TIP3   OH250851   5.124   2.544  13.352  0.6390  0.0680  0.1835
 9787TIP3    H150852   5.060   2.606  13.319  0.6046  0.2358  0.5607
 9787TIP3    H250853   5.162   2.504  13.274 -1.0592 -1.2109 -0.0375
 9788TIP3   OH250854   3.133   1.311  16.465  0.4623  0.1813  0.1070
 9788TIP3    H150855   3.184   1.244  16.420 -0.0747  0.2405 -0.6136
 9788TIP3    H250856   3.042   1.290  16.444  0.1724  0.0894  1.3493
 9789TIP3   OH250857   4.206   6.398  13.290  0.2479 -0.4036  0.4848
 9789TIP3    H150858   4.243   6.318  13.326  1.4004  0.3419  1.0279
 9789TIP3    H250859   4.113   6.394  13.314  0.4361 -1.2408  1.1292
 9790TIP3   OH250860   3.786   3.601   2.003  0.2764 -0.6272 -0.3481
 9790TIP3    H150861   3.833   3.640   2.076 -2.4251  0.4536  0.9630
 9790TIP3    H250862   3.766   3.511   2.032 -1.4420  0.0294  0.6837
 9791TIP3   OH250863   0.178   5.753  14.658  0.8494 -0.9655  0.1045
 9791TIP3    H150864   0.266   5.749  14.620  1.0254  0.9053  0.2062
 9791TIP3    H250865   0.141   5.666  14.642  2.4810 -1.5976 -0.4849
 9792TIP3   OH250866   1.507   4.670   0.618 -0.6565  0.8128 -0.4470
 9792TIP3    H150867   1.581   4.668   0.557 -0.1419 -1.4756  0.1356
 9792TIP3    H250868   1.505   4.760   0.651  2.2357  0.8379 -0.0794
 9793TIP3   OH250869   3.492   6.756  17.172 -0.2058 -0.1132 -0.0426
 9793TIP3    H150870   3.405   6.794  17.187 -1.0337 -2.0099  0.2160
 9793TIP3    H250871   3.527   6.742  17.260  0.0082 -0.1380 -0.1325
 9794TIP3   OH250872   0.421   5.767  16.375 -0.5119  0.3826 -0.2617
 9794TIP3    H150873   0.422   5.767  16.470 -0.5846  1.2265 -0.2546
 9794TIP3    H250874   0.497   5.819  16.350 -0.8890  0.7616 -0.6498
 9795TIP3   OH250875   5.443   3.079  10.864 -0.6145 -0.4807 -0.4929
 9795TIP3    H150876   5.531   3.060  10.832 -0.7712  0.7620 -1.7814
 9795TIP3    H250877   5.432   3.173  10.849 -2.3920 -0.7253 -0.9981
 9796TIP3   OH250878   3.816   4.235  15.689  0.4585  0.2736 -0.7556
 9796TIP3    H150879   3.861   4.202  15.767  0.9908  2.7727  0.0812
 9796TIP3    H250880   3.734   4.186  15.687  0.5381 -0.0577  1.2451
 9797TIP3   OH250881   4.693   1.857   5.430 -0.4434  0.2764 -0.1551
 9797TIP3    H150882   4.775   1.891   5.464 -0.2759  0.6794 -0.9447
 9797TIP3    H250883   4.718   1.781   5.377 -0.4772  0.8482 -1.0278
 9798TIP3   OH250884   5.105   1.232  11.178  0.0795 -0.4026  0.1855
 9798TIP3    H150885   5.055   1.153  11.199  0.0019 -0.9591 -1.8996
 9798TIP3    H250886   5.130   1.222  11.086 -1.1870  2.6244 -0.6524
 9799TIP3   OH250887   4.985   3.124  15.680 -0.2394 -0.3581  0.0520
 9799TIP3    H150888   4.903   3.092  15.642 -0.2758 -1.5006  1.0444
 9799TIP3    H250889   5.053   3.067  15.643  0.3176  1.3431 -1.7244
 9800TIP3   OH250890   6.699   0.635   2.734 -0.3655 -0.3910 -0.0251
 9800TIP3    H150891   6.657   0.586   2.805 -1.6882 -1.8060 -1.6773
 9800TIP3    H250892   6.653   0.719   2.732  0.2086 -0.0337  1.2501
 9801TIP3   OH250893   2.646   2.289   3.330 -0.0402  0.0931  0.2882
 9801TIP3    H150894   2.639   2.341   3.250 -0.1577 -1.0178 -0.4331
 9801TIP3    H250895   2.737   2.301   3.358  0.6829 -1.2942 -1.2732
 9802TIP3   OH250896   1.677   2.747   5.491  0.4970  0.4905  0.8456
 9802TIP3    H150897   1.622   2.747   5.569  1.0346  1.6837  1.2474
 9802TIP3    H250898   1.672   2.837   5.458  0.8624  0.1848 -0.0744
 9803TIP3   OH250899   0.474   0.463   2.147 -0.1018 -0.0677  0.9453
 9803TIP3    H150900   0.474   0.391   2.084 -0.6999  0.5461  0.2211
 9803TIP3    H250901   0.564   0.467   2.179  0.3379 -0.0778 -0.2422
 9804TIP3   OH250902   3.711   2.296  13.450  0.5686 -0.1064 -0.3991
 9804TIP3    H150903   3.775   2.322  13.383  0.5451  0.8660 -0.0512
 9804TIP3    H250904   3.628   2.294  13.404  0.6575 -0.1244 -0.5596
 9805TIP3   OH250905   2.411   4.181  15.190  0.0289 -0.5040 -0.0596
 9805TIP3    H150906   2.401   4.086  15.189  1.5748 -0.6885 -0.5259
 9805TIP3    H250907   2.501   4.196  15.161  0.1414  1.0646  0.9827
 9806TIP3   OH250908   3.135   2.279   5.006 -0.1890 -0.3468  0.0250
 9806TIP3    H150909   3.158   2.282   4.913 -2.1677  0.1999 -0.4975
 9806TIP3    H250910   3.069   2.210   5.012 -0.1140 -0.3382  1.0010
 9807TIP3   OH250911   5.478   3.520  16.203 -0.0634  0.6415  0.3044
 9807TIP3    H150912   5.427   3.471  16.139 -0.2829  0.0219  0.9391
 9807TIP3    H250913   5.568   3.512  16.174  0.0718 -1.2776  1.0912
 9808TIP3   OH250914   1.009   3.153  16.073 -0.0293  0.2193  0.4804
 9808TIP3    H150915   1.081   3.156  16.136 -0.8882 -5.0852  2.2317
 9808TIP3    H250916   1.047   3.116  15.994 -0.3667 -0.4382  0.6198
 9809TIP3   OH250917   1.546   0.996  13.003  0.3505 -0.4043  0.2674
 9809TIP3    H150918   1.577   1.085  12.984  1.3314 -0.6574  0.5943
 9809TIP3    H250919   1.592   0.941  12.939  0.4995 -0.7838  0.6994
 9810TIP3   OH250920   1.709   0.250  11.204 -0.1763  0.1448 -0.2407
 9810TIP3    H150921   1.686   0.338  11.177  0.7635  0.1667 -0.9971
 9810TIP3    H250922   1.733   0.258  11.296  0.0003  0.6888 -0.3359
 9811TIP3   OH250923   5.467   2.709  14.408 -0.0638  0.3694  0.1056
 9811TIP3    H150924   5.412   2.673  14.338  0.5131 -0.7259  0.1920
 9811TIP3    H250925   5.497   2.793  14.374 -1.4003  0.7701 -0.1288
 9812TIP3   OH250926   6.360   5.153  11.702  0.3505  0.1973  0.1283
 9812TIP3    H150927   6.440   5.106  11.678  0.4149 -0.1423  0.9782
 9812TIP3    H250928   6.369   5.238  11.658  0.5333 -0.3336 -0.8925
 9813TIP3   OH250929   1.946   5.113  15.567 -0.4781 -0.0327  0.2592
 9813TIP3    H150930   1.920   5.184  15.509  2.0955 -2.4250 -4.3575
 9813TIP3    H250931   1.865   5.089  15.614 -2.0108  4.0141  0.0324
 9814TIP3   OH250932   2.195   2.822  16.445  0.6472  0.5406  0.7544
 9814TIP3    H150933   2.156   2.900  16.486 -0.6434  0.8776 -1.0108
 9814TIP3    H250934   2.268   2.856  16.394  0.6447  0.4834  0.7126
 9815TIP3   OH250935   4.039   4.338  16.372  0.6618  0.1415 -0.2908
 9815TIP3    H150936   4.130   4.329  16.344  0.7863  0.9291 -0.1599
 9815TIP3    H250937   4.022   4.260  16.424  0.9608 -0.4867 -1.1215
 9816TIP3   OH250938   1.314   6.313   2.882 -0.1421  0.3979  0.4159
 9816TIP3    H150939   1.220   6.296   2.892 -0.3956 -0.2403 -2.2097
 9816TIP3    H250940   1.326   6.401   2.918 -2.0581  1.1010 -0.5003
 9817TIP3   OH250941   3.560   1.935   6.056  0.9373 -0.4970  0.1743
 9817TIP3    H150942   3.484   1.898   6.102  0.2934  0.2033 -0.3057
 9817TIP3    H250943   3.634   1.914   6.112  0.1671  0.3617  1.5873
 9818TIP3   OH250944   4.165   6.415  11.308 -0.6891 -0.3757 -0.0417
 9818TIP3    H150945   4.143   6.323  11.323  1.8567 -1.0012  0.3201
 9818TIP3    H250946   4.170   6.453  11.396  0.4959 -0.4915 -0.0478
 9819TIP3   OH250947   6.638   2.779   3.687  0.3034 -0.1077  0.2225
 9819TIP3    H150948   6.638   2.768   3.592 -1.6198 -1.1610  0.2920
 9819TIP3    H250949   6.593   2.701   3.720  0.7672  0.3374  1.9866
 9820TIP3   OH250950   3.920   1.411  14.829 -0.1601 -0.3012 -0.5259
 9820TIP3    H150951   4.006   1.374  14.810 -0.5078  0.0298 -3.0662
 9820TIP3    H250952   3.922   1.427  14.923  2.0188 -1.6102 -0.2646
 9821TIP3   OH250953   4.940   0.218  16.627  0.0770 -0.4093 -0.1364
 9821TIP3    H150954   4.859   0.205  16.579  0.9148  1.6887 -2.3525
 9821TIP3    H250955   4.920   0.289  16.688  0.4275  0.8794 -1.4440
 9822TIP3   OH250956   6.026   0.149   5.560 -0.1195  0.0320 -0.0007
 9822TIP3    H150957   5.950   0.113   5.514 -0.9067  0.8225  0.6518
 9822TIP3    H250958   6.093   0.082   5.550 -0.4496 -0.0783 -1.7751
 9823TIP3   OH250959   1.042   0.316   3.016 -0.5045 -0.2321 -0.1300
 9823TIP3    H150960   1.096   0.309   2.937 -1.1706 -1.0996 -0.5261
 9823TIP3    H250961   1.059   0.404   3.049  2.8447 -1.1555  1.0185
 9824TIP3   OH250962   3.291   3.056  17.165  0.0574  0.2967  0.3424
 9824TIP3    H150963   3.386   3.060  17.168  0.1565 -0.9508 -0.1585
 9824TIP3    H250964   3.265   3.023  17.251  0.0534  0.9135  0.5788
 9825TIP3   OH250965   2.537   5.098   1.013 -0.4658 -0.7335 -0.3430
 9825TIP3    H150966   2.525   5.005   0.996 -0.2708 -0.6659 -0.8684
 9825TIP3    H250967   2.516   5.141   0.930  0.9311 -0.4276 -0.5677
 9826TIP3   OH250968   1.074   0.265   0.340  0.4874  0.1767  0.4393
 9826TIP3    H150969   1.053   0.341   0.286 -0.9851  0.0124  0.7417
 9826TIP3    H250970   1.137   0.215   0.288  0.7559  1.1143 -0.1642
 9827TIP3   OH250971   1.804   4.755   4.524  0.3191  0.1547 -0.5630
 9827TIP3    H150972   1.869   4.716   4.465  1.5589  0.5424  0.4967
 9827TIP3    H250973   1.842   4.745   4.612 -0.6007  1.2580 -0.0091
 9828TIP3   OH250974   6.721   4.449  14.750 -0.0858  0.3503  0.1277
 9828TIP3    H150975   6.700   4.525  14.697 -0.1848  0.0475 -0.2722
 9828TIP3    H250976   6.803   4.416  14.714  1.1712  1.5758  1.7325
 9829TIP3   OH250977   5.511   1.301   2.292 -0.4058  0.2185  0.3587
 9829TIP3    H150978   5.450   1.235   2.326 -0.5904  0.4045  0.3911
 9829TIP3    H250979   5.472   1.385   2.316 -0.2960  0.3438  0.1060
 9830TIP3   OH250980   0.802   0.517   4.957 -0.8959  0.1302 -0.2538
 9830TIP3    H150981   0.772   0.427   4.943 -0.4630  0.1824 -1.7195
 9830TIP3    H250982   0.787   0.561   4.873  2.7506  0.2638 -1.0100
 9831TIP3   OH250983   6.159   6.067  17.188  0.2277  0.3918 -0.4243
 9831TIP3    H150984   6.206   6.124  17.127  1.8505 -1.9024 -1.4317
 9831TIP3    H250985   6.104   6.012  17.132  0.2741 -0.4427  0.3262
 9832TIP3   OH250986   3.961   0.719  15.582  0.2852  0.1939 -0.4562
 9832TIP3    H150987   3.972   0.662  15.658 -0.5704  0.4292 -0.1380
 9832TIP3    H250988   3.875   0.759  15.595  0.5419  0.9699 -1.0637
 9833TIP3   OH250989   1.110   1.739   5.062  0.3830 -0.2260 -0.3397
 9833TIP3    H150990   1.043   1.735   5.130  1.0978 -1.7377  0.3217
 9833TIP3    H250991   1.191   1.713   5.106  1.6785  2.5408 -0.8629
 9834TIP3   OH250992   3.555   2.021   3.588  0.4532  0.2267  0.1660
 9834TIP3    H150993   3.638   2.058   3.558 -0.0667  2.1434  0.9625
 9834TIP3    H250994   3.494   2.039   3.517  0.2555  0.7473  0.4569
 9835TIP3   OH250995   3.444   5.584   3.227  0.2122 -0.3365 -0.1242
 9835TIP3    H150996   3.515   5.520   3.234  0.3581 -0.2356 -0.6462
 9835TIP3    H250997   3.445   5.612   3.135 -0.5731 -0.4153 -0.1675
 9836TIP3   OH250998   3.600   3.724   5.137 -0.6150  0.4955 -0.1747
 9836TIP3    H150999   3.566   3.675   5.211  0.7631 -0.1380  0.0742
 9836TIP3    H251000   3.550   3.806   5.137 -0.0258  0.9158  2.0401
 9837TIP3   OH251001   5.113   3.674   5.194  0.3091  0.1897 -0.1647
 9837TIP3    H151002   5.188   3.615   5.188  0.8817  0.9989 -1.2409
 9837TIP3    H251003   5.148   3.760   5.171 -0.6877  0.8130  0.5461
 9838TIP3   OH251004   1.934   4.971   0.095 -0.0001 -0.0913 -0.0130
 9838TIP3    H151005   1.967   4.891   0.052  1.6374  1.5206 -1.9813
 9838TIP3    H251006   2.012   5.014   0.129 -0.8391  0.7696  0.8854
 9839TIP3   OH251007   3.937   4.637  13.408  0.0339  0.2129 -0.2012
 9839TIP3    H151008   3.922   4.730  13.426 -0.1713  0.1587 -0.0944
 9839TIP3    H251009   4.030   4.632  13.386  0.7619  0.0098  2.5790
 9840TIP3   OH251010   6.390   5.084   0.463  0.0701  0.0380  0.2043
 9840TIP3    H151011   6.361   4.993   0.456  0.2572 -0.0487  0.5548
 9840TIP3    H251012   6.453   5.095   0.392  0.9567 -0.4523  0.8921
 9841TIP3   OH251013   6.130   4.126   5.346 -0.3836  0.2291  0.1613
 9841TIP3    H151014   6.141   4.089   5.434 -2.2577  1.3539  0.9198
 9841TIP3    H251015   6.152   4.219   5.356  1.2845  0.0137 -1.0430
 9842TIP3   OH251016   3.284   2.161   6.280  0.7980 -0.4772  0.4151
 9842TIP3    H151017   3.219   2.201   6.338  0.2827 -1.6394  0.6735
 9842TIP3    H251018   3.285   2.069   6.306  0.2549 -1.1287 -1.6881
 9843TIP3   OH251019   0.901   0.803  12.469 -0.2153 -0.2740  0.5485
 9843TIP3    H151020   0.896   0.736  12.401  1.4300 -1.4493  1.5183
 9843TIP3    H251021   0.977   0.857  12.444 -1.2091  0.9652  0.0580
 9844TIP3   OH251022   2.582   0.848   5.226 -0.2050 -1.0627  0.6838
 9844TIP3    H151023   2.551   0.926   5.179  0.4368 -1.9389 -1.3048
 9844TIP3    H251024   2.677   0.859   5.230 -0.1761 -1.4224  1.0176
 9845TIP3   OH251025   4.596   3.434  17.235  0.2559  0.4787  0.1049
 9845TIP3    H151026   4.618   3.513  17.284  0.1112  0.1848  0.6513
 9845TIP3    H251027   4.586   3.464  17.145  2.0286  0.7708 -0.0240
 9846TIP3   OH251028   2.859   5.421   3.014  0.6194 -0.4357 -0.3074
 9846TIP3    H151029   2.844   5.330   2.991 -1.0435 -0.0547 -0.9192
 9846TIP3    H251030   2.840   5.426   3.108  0.9170 -0.7551 -0.2311
 9847TIP3   OH251031   3.894   1.377  12.479 -0.0713 -0.3928  0.0232
 9847TIP3    H151032   3.961   1.345  12.418 -1.1896 -0.5362 -1.1833
 9847TIP3    H251033   3.871   1.301  12.532 -0.1088 -0.6496 -0.3583
 9848TIP3   OH251034   2.050   6.107   1.134  0.2682 -0.2697  0.1268
 9848TIP3    H151035   2.124   6.047   1.145  0.8326  0.5763  1.0536
 9848TIP3    H251036   1.978   6.051   1.106  0.3843 -1.6382  2.3598
 9849TIP3   OH251037   0.393   1.174   4.454 -0.2632  0.1488  0.3759
 9849TIP3    H151038   0.390   1.170   4.549 -1.0447 -3.0047  0.3632
 9849TIP3    H251039   0.483   1.198   4.432 -0.1678  1.2397  1.8757
 9850TIP3   OH251040   1.656   5.430  14.410 -0.8562 -0.5437  0.8634
 9850TIP3    H151041   1.697   5.420  14.324  0.4630  0.4835  1.3281
 9850TIP3    H251042   1.563   5.412  14.394 -0.9962  1.4416 -1.1892
 9851TIP3   OH251043   6.430   6.191  14.145  0.1113  0.5545 -0.6086
 9851TIP3    H151044   6.416   6.161  14.234 -0.9254  1.8177 -0.3044
 9851TIP3    H251045   6.365   6.144  14.093 -0.4665  1.1021 -0.3934
 9852TIP3   OH251046   0.717   3.044  15.486  0.2057  0.5649 -0.0015
 9852TIP3    H151047   0.764   3.046  15.569 -1.0333  2.8545  0.7173
 9852TIP3    H251048   0.649   3.111  15.494 -1.9354 -1.2098 -1.7308
 9853TIP3   OH251049   3.454   2.947  15.067 -0.2231  0.1582 -0.1259
 9853TIP3    H151050   3.483   3.013  15.004 -0.5712  0.4462  0.0098
 9853TIP3    H251051   3.431   2.871  15.014 -0.3352  0.3338 -0.3284
 9854TIP3   OH251052   4.305   1.281   2.014 -0.1757  0.1031 -0.0068
 9854TIP3    H151053   4.255   1.299   1.935  0.4378  0.5634 -0.3006
 9854TIP3    H251054   4.326   1.188   2.008  0.1312  0.1989 -0.5520
 9855TIP3   OH251055   5.403   6.610   4.891  0.2721  0.6600 -0.5148
 9855TIP3    H151056   5.382   6.531   4.941  1.0200  0.6525 -0.2037
 9855TIP3    H251057   5.492   6.595   4.858  0.9503  1.9026  0.6382
 9856TIP3   OH251058   3.091   0.647  10.998 -0.1222  0.7500 -0.1285
 9856TIP3    H151059   3.026   0.629  10.930  0.2929  0.6071 -0.4892
 9856TIP3    H251060   3.043   0.695  11.065 -0.5969  0.6583 -0.4004
 9857TIP3   OH251061   6.615   2.298  11.513 -0.3013 -0.2866 -0.2130
 9857TIP3    H151062   6.599   2.370  11.451  1.3914  0.6911  0.4397
 9857TIP3    H251063   6.622   2.340  11.598  3.0795 -0.8508 -0.0995
 9858TIP3   OH251064   0.865   3.176  12.494  0.3509 -0.3929  0.1577
 9858TIP3    H151065   0.911   3.103  12.453 -1.0419 -1.8594  1.0819
 9858TIP3    H251066   0.909   3.188  12.578  0.8033  0.0718 -0.1449
 9859TIP3   OH251067   4.243   0.747  15.063 -0.8031 -0.3027 -0.0634
 9859TIP3    H151068   4.267   0.665  15.105 -1.8518 -0.4386  0.3047
 9859TIP3    H251069   4.157   0.768  15.098 -0.2332  1.3658  0.4283
 9860TIP3   OH251070   5.545   5.461   5.000 -0.1806  0.1491 -0.5304
 9860TIP3    H151071   5.467   5.427   4.956  0.2324  0.4270 -1.5262
 9860TIP3    H251072   5.574   5.390   5.057 -1.3915  0.1975  0.1722
 9861TIP3   OH251073   5.227   4.634   0.939  0.0614  0.4025 -1.0033
 9861TIP3    H151074   5.280   4.708   0.912  0.1332  1.2521  1.2833
 9861TIP3    H251075   5.196   4.596   0.857  0.8781  2.3069 -2.2664
 9862TIP3   OH251076   0.141   6.548  12.204 -0.1540  0.0590  0.2775
 9862TIP3    H151077   0.203   6.499  12.149  1.7504  1.4548  1.0539
 9862TIP3    H251078   0.158   6.639  12.183 -0.7425  0.5431  1.7878
 9863TIP3   OH251079   3.163   2.597   3.818 -0.3878 -0.0631  0.5584
 9863TIP3    H151080   3.182   2.509   3.850  1.3752  0.3925  0.8704
 9863TIP3    H251081   3.139   2.585   3.726 -1.0357 -0.9315  0.8259
 9864TIP3   OH251082   0.876   4.872  16.312  0.0834  0.0063 -0.4931
 9864TIP3    H151083   0.803   4.905  16.365  0.5366  0.6222 -0.2313
 9864TIP3    H251084   0.835   4.832  16.236 -0.5758 -0.7131  0.2256
 9865TIP3   OH251085   1.212   5.973  13.853 -0.1477 -0.1930  0.7882
 9865TIP3    H151086   1.190   5.887  13.888  0.0097 -0.1050  1.1137
 9865TIP3    H251087   1.292   5.959  13.803 -0.0891 -0.2292  0.8901
 9866TIP3   OH251088   3.046   4.527   5.513  0.0649  0.3593  0.0983
 9866TIP3    H151089   3.114   4.590   5.490  2.0532 -0.5409  2.8526
 9866TIP3    H251090   3.036   4.538   5.608 -0.9857 -2.0382  0.3222
 9867TIP3   OH251091   4.232   5.774   1.614 -0.4917 -0.2664  0.1004
 9867TIP3    H151092   4.301   5.784   1.680  0.1830 -0.7204 -0.5139
 9867TIP3    H251093   4.196   5.862   1.603  0.8196  0.2336 -0.4264
 9868TIP3   OH251094   2.640   2.067   1.588 -0.2617 -0.1467 -0.3118
 9868TIP3    H151095   2.592   1.997   1.631  0.8344 -1.3798 -1.0376
 9868TIP3    H251096   2.677   2.026   1.510  1.6567  0.8518  0.0223
 9869TIP3   OH251097   3.394   1.088   0.492  0.2392 -0.1024 -0.1732
 9869TIP3    H151098   3.481   1.050   0.495  0.5922  0.6927  3.1270
 9869TIP3    H251099   3.389   1.144   0.570 -3.1144  0.0798 -0.3751
 9870TIP3   OH251100   5.625   5.472  14.074 -0.2596 -0.3014 -0.1572
 9870TIP3    H151101   5.553   5.410  14.087  0.0758 -0.2884  2.1258
 9870TIP3    H251102   5.688   5.424  14.021 -0.2410 -1.7547  1.1283
 9871TIP3   OH251103   0.093   4.234  13.753  0.5434  0.5759 -0.0900
 9871TIP3    H151104   0.013   4.222  13.702  0.3006  0.4743  0.3120
 9871TIP3    H251105   0.110   4.328  13.750 -1.5927  1.1834  2.7953
 9872TIP3   OH251106   3.407   5.630   4.368  0.3050  0.0724  0.4732
 9872TIP3    H151107   3.480   5.637   4.429 -0.3033 -1.3870  1.4193
 9872TIP3    H251108   3.346   5.699   4.396  1.1600  1.0834 -0.1201
 9873TIP3   OH251109   4.890   3.259  13.025  0.0906  0.1518  0.6623
 9873TIP3    H151110   4.954   3.190  13.041 -0.7959 -0.8956 -0.1671
 9873TIP3    H251111   4.883   3.264  12.930 -2.9493 -1.6193  0.6750
 9874TIP3   OH251112   5.815   3.285   1.526  0.5490 -0.4370  0.2088
 9874TIP3    H151113   5.821   3.293   1.622 -0.1108 -1.1738  0.3263
 9874TIP3    H251114   5.889   3.230   1.502  2.3941  2.0291 -0.0660
 9875TIP3   OH251115   2.192   3.280   1.827  1.0595 -0.4293  0.3059
 9875TIP3    H151116   2.269   3.325   1.792  1.3303  1.3043  2.8855
 9875TIP3    H251117   2.227   3.213   1.885  0.6579  0.0369  1.1073
 9876TIP3   OH251118   4.702   2.843  17.297 -0.6865  0.2508 -0.0284
 9876TIP3    H151119   4.776   2.903  17.296  1.1433 -1.8696 -0.6981
 9876TIP3    H251120   4.702   2.804  17.385 -2.2379  1.5812  0.6121
 9877TIP3   OH251121   3.099   0.856   3.194 -0.3840  0.2308 -0.5944
 9877TIP3    H151122   3.086   0.783   3.254  0.3490  0.8140  0.2916
 9877TIP3    H251123   3.029   0.918   3.216  0.2067  0.6862  0.0533
 9878TIP3   OH251124   4.525   6.801  12.589  0.1015  0.5400 -0.1840
 9878TIP3    H151125   4.562   6.876  12.542 -0.4726  1.0613  0.1811
 9878TIP3    H251126   4.430   6.817  12.589 -0.3258 -1.4133 -2.2577
 9879TIP3   OH251127   0.705   0.118  17.195 -0.1369  0.2185  0.3151
 9879TIP3    H151128   0.762   0.058  17.146 -0.8373 -0.0865 -0.1556
 9879TIP3    H251129   0.654   0.060  17.253 -0.1244  0.4610  0.5673
 9880TIP3   OH251130   5.192   2.141   0.235 -0.2611 -0.6141 -0.0283
 9880TIP3    H151131   5.123   2.189   0.189  1.5224  2.2517  0.0013
 9880TIP3    H251132   5.182   2.168   0.327 -0.3126 -1.7919  0.3285
 9881TIP3   OH251133   6.772   5.679  14.862 -0.0382 -0.2395  0.7322
 9881TIP3    H151134   6.694   5.631  14.834 -0.4050 -0.9554  2.8145
 9881TIP3    H251135   6.841   5.613  14.866  0.4478  0.1927 -0.0800
 9882TIP3   OH251136   5.959   0.711   4.679  0.4535 -0.2536 -0.1959
 9882TIP3    H151137   5.999   0.633   4.718  0.8188 -0.1857 -0.4280
 9882TIP3    H251138   5.952   0.692   4.586  1.5402  0.3819 -0.4393
 9883TIP3   OH251139   6.354   1.768  14.387  0.4221 -0.1363  0.1901
 9883TIP3    H151140   6.377   1.712  14.461  0.2961  0.7494  0.9294
 9883TIP3    H251141   6.333   1.708  14.316  0.0278 -1.0254  1.0356
 9884TIP3   OH251142   1.643   2.654  12.000 -0.5096 -0.2024  0.5800
 9884TIP3    H151143   1.673   2.567  11.976  0.8625  0.7197 -1.3730
 9884TIP3    H251144   1.615   2.694  11.918  0.0917  1.6241  1.1977
 9885TIP3   OH251145   5.423   2.442   3.115 -0.5256  0.5014  0.4071
 9885TIP3    H151146   5.512   2.475   3.101 -1.2174  2.4491  0.2794
 9885TIP3    H251147   5.411   2.448   3.210 -1.0694  1.8524  0.2735
 9886TIP3   OH251148   0.061   1.794   4.056 -0.3399  1.0816  0.2741
 9886TIP3    H151149   0.052   1.732   4.128  0.5357 -0.6510 -1.0320
 9886TIP3    H251150   0.055   1.880   4.097 -3.0018  0.1924  1.9781
 9887TIP3   OH251151   1.016   1.675  16.384  0.0606  0.3221  0.0767
 9887TIP3    H151152   1.003   1.770  16.388 -0.2177  0.2841  0.1089
 9887TIP3    H251153   0.934   1.641  16.346  0.0579  0.0726  0.3023
 9888TIP3   OH251154   3.807   6.374  13.788 -0.1676 -0.3079 -0.4464
 9888TIP3    H151155   3.743   6.314  13.749  0.7522 -1.1384 -0.7324
 9888TIP3    H251156   3.863   6.317  13.841 -0.2058  0.5327  0.5268
 9889TIP3   OH251157   0.709   6.445   0.587  0.0353 -0.1626 -0.6669
 9889TIP3    H151158   0.777   6.466   0.523  1.7144  0.2243  1.1448
 9889TIP3    H251159   0.751   6.382   0.646 -0.9347  0.5852  0.8848
 9890TIP3   OH251160   3.609   3.172   3.426 -0.0280  0.4618 -0.8413
 9890TIP3    H151161   3.688   3.218   3.454  0.6850 -1.1263 -0.1781
 9890TIP3    H251162   3.640   3.088   3.392 -1.4004 -0.0559 -0.8787
 9891TIP3   OH251163   1.736   1.953   2.878 -0.2932 -0.4403  0.4064
 9891TIP3    H151164   1.776   1.939   2.792  1.5089 -0.5053  1.2024
 9891TIP3    H251165   1.664   1.890   2.882 -0.7142 -0.1203 -1.2104
 9892TIP3   OH251166   3.877   1.249  16.340  0.8604  0.1999  0.0076
 9892TIP3    H151167   3.925   1.331  16.329 -0.6705  0.9659 -1.4730
 9892TIP3    H251168   3.786   1.272  16.319 -0.1078 -1.2871  2.2230
 9893TIP3   OH251169   0.131   1.859   5.492 -0.2246  0.4073  0.1366
 9893TIP3    H151170   0.067   1.841   5.561  0.0215  0.3776  0.3611
 9893TIP3    H251171   0.167   1.774   5.470 -0.6948  0.3494 -0.4198
 9894TIP3   OH251172   3.930   2.122  11.806  0.5065  0.2502 -0.0410
 9894TIP3    H151173   3.973   2.056  11.752  2.3395  1.6823 -0.4252
 9894TIP3    H251174   3.881   2.071  11.871  1.6121 -1.4729 -0.4994
 9895TIP3   OH251175   2.284   1.869  11.791  0.1120  0.0026 -0.3882
 9895TIP3    H151176   2.295   1.962  11.770  1.3257 -0.0163  0.0401
 9895TIP3    H251177   2.258   1.868  11.883  0.5303 -0.0843 -0.2671
 9896TIP3   OH251178   0.457   0.939   0.130 -0.1854  0.4019  0.1757
 9896TIP3    H151179   0.547   0.966   0.150 -0.2661  0.6977  0.1487
 9896TIP3    H251180   0.429   0.999   0.062 -0.5106  0.5104  0.4022
 9897TIP3   OH251181   4.270   1.623   2.996  0.3632 -0.5113  0.0197
 9897TIP3    H151182   4.307   1.544   3.035 -1.9463 -1.4424  0.4638
 9897TIP3    H251183   4.188   1.636   3.043 -0.8520  0.2983 -2.2331
 9898TIP3   OH251184   2.190   4.852   0.719 -0.2846 -0.3642  0.4093
 9898TIP3    H151185   2.172   4.946   0.725 -2.1048 -0.7059  0.8395
 9898TIP3    H251186   2.136   4.812   0.787  0.4977 -1.7400  0.2743
 9899TIP3   OH251187   5.415   2.345  12.246  0.5569 -0.5397 -0.9313
 9899TIP3    H151188   5.478   2.275  12.263 -0.4369 -1.5028 -1.1104
 9899TIP3    H251189   5.363   2.314  12.172 -0.3633  0.0778 -0.5626
 9900TIP3   OH251190   6.268   2.779   0.557  0.2317  0.7236 -0.1333
 9900TIP3    H151191   6.335   2.808   0.495  0.5361 -1.4875 -0.9438
 9900TIP3    H251192   6.314   2.772   0.640  0.4884  1.1659 -0.2325
 9901TIP3   OH251193   3.499   0.589   5.232 -0.2612  0.0448  0.4325
 9901TIP3    H151194   3.476   0.595   5.140 -3.7141 -0.1826  1.1684
 9901TIP3    H251195   3.579   0.641   5.240 -0.0435  0.3268 -2.5869
 9902TIP3   OH251196   2.857   2.865  13.469 -0.4058 -0.2984  0.4152
 9902TIP3    H151197   2.778   2.916  13.451 -0.1158  0.1686  0.4571
 9902TIP3    H251198   2.826   2.790  13.521 -0.6019  0.6937  1.7790
 9903TIP3   OH251199   0.941   0.618  11.789 -0.4755 -0.0768  0.0396
 9903TIP3    H151200   0.953   0.596  11.882  1.5696  0.6571  0.0183
 9903TIP3    H251201   0.984   0.546  11.742  0.4799  0.6612 -0.2401
 9904TIP3   OH251202   2.767   6.228   2.715  0.1924  0.3285 -0.5853
 9904TIP3    H151203   2.707   6.229   2.789 -0.5160  1.0438 -1.1424
 9904TIP3    H251204   2.737   6.156   2.660 -3.1328  3.2609 -3.1213
 9905TIP3   OH251205   3.968   1.704  12.246  0.3806 -0.2160  0.2520
 9905TIP3    H151206   3.995   1.613  12.235  1.0789  0.1060 -0.8729
 9905TIP3    H251207   3.892   1.700  12.304  1.2490 -1.3866  1.3741
 9906TIP3   OH251208   0.853   2.306  12.409 -0.1514  0.5456 -0.1826
 9906TIP3    H151209   0.837   2.398  12.428  0.5928  0.1777  2.6972
 9906TIP3    H251210   0.768   2.272  12.380 -0.6146  1.9451 -0.5214
 9907TIP3   OH251211   0.586   6.226  17.062  0.2889 -0.0297 -0.1605
 9907TIP3    H151212   0.547   6.166  16.999 -0.3648  0.5606 -0.3173
 9907TIP3    H251213   0.569   6.313  17.027 -0.8412  0.3515  1.2398
 9908TIP3   OH251214   5.773   2.713  16.974  0.2386 -0.3212  0.4833
 9908TIP3    H151215   5.857   2.751  16.950  0.6923 -1.4369  0.2101
 9908TIP3    H251216   5.776   2.703  17.069 -0.1508  0.8988  0.6372
 9909TIP3   OH251217   3.458   3.652  16.664  0.9361  0.2686  0.1173
 9909TIP3    H151218   3.427   3.573  16.709 -0.5082 -0.1873 -1.5813
 9909TIP3    H251219   3.549   3.660  16.691  0.7984 -1.3145  1.2337
 9910TIP3   OH251220   2.421   1.894   3.611  0.3373 -0.1110  0.2205
 9910TIP3    H151221   2.512   1.864   3.606  0.8343  1.0034  1.7818
 9910TIP3    H251222   2.373   1.821   3.650 -0.2306 -2.0972 -3.6913
 9911TIP3   OH251223   3.212   1.576  13.966  0.4300  0.4326  0.7974
 9911TIP3    H151224   3.128   1.616  13.941  0.5403  0.4052  0.3660
 9911TIP3    H251225   3.243   1.535  13.885  2.3112  2.9733  0.0949
 9912TIP3   OH251226   1.534   6.127  16.790 -0.4500  0.0510 -0.5606
 9912TIP3    H151227   1.541   6.048  16.843 -0.1413  0.2386 -0.3184
 9912TIP3    H251228   1.456   6.113  16.736 -1.1021  0.0825  0.3361
 9913TIP3   OH251229   5.584   5.184   2.960 -0.4194 -0.3485 -0.0304
 9913TIP3    H151230   5.558   5.249   3.025 -1.2968  1.4335 -2.0370
 9913TIP3    H251231   5.590   5.234   2.878  2.6641 -2.0545 -0.9996
 9914TIP3   OH251232   4.127   4.540  12.305  0.0335 -0.0348  0.0775
 9914TIP3    H151233   4.176   4.488  12.240  1.2205 -1.2038  1.8114
 9914TIP3    H251234   4.194   4.572  12.365 -1.0360  0.9603  0.7659
 9915TIP3   OH251235   5.907   4.173   2.286  0.1209  0.5413 -0.8973
 9915TIP3    H151236   5.938   4.149   2.199 -1.1968  0.2106 -1.3079
 9915TIP3    H251237   5.968   4.240   2.316  2.6289 -1.7349 -0.6292
 9916TIP3   OH251238   4.860   5.408  15.358  0.0823 -0.2594  0.4361
 9916TIP3    H151239   4.938   5.385  15.308  1.4397  1.9877  1.3674
 9916TIP3    H251240   4.857   5.504  15.355 -1.8459 -0.2184  1.6431
 9917TIP3   OH251241   5.919   1.289   2.785 -0.5585 -0.2091  0.4292
 9917TIP3    H151242   5.855   1.332   2.730 -0.1314 -1.0086 -0.7240
 9917TIP3    H251243   5.879   1.206   2.810 -0.9458  0.3498  1.7552
 9918TIP3   OH251244   6.417   2.897  15.285  0.3956 -0.2962  0.1537
 9918TIP3    H151245   6.507   2.863  15.286  0.1778 -0.9127 -0.6629
 9918TIP3    H251246   6.418   2.967  15.220  0.3612 -0.0725  0.3922
 9919TIP3   OH251247   6.216   4.899   0.665 -0.2497 -0.1651 -0.6655
 9919TIP3    H151248   6.150   4.966   0.644 -0.7699 -0.6684 -0.6467
 9919TIP3    H251249   6.191   4.868   0.753 -0.5515 -1.0198 -1.0420
 9920TIP3   OH251250   3.171   5.485   6.506 -0.5904  0.6311  0.1776
 9920TIP3    H151251   3.172   5.500   6.411  1.5320 -0.1348  0.0232
 9920TIP3    H251252   3.256   5.444   6.524 -1.5153 -0.4962  2.2193
 9921TIP3   OH251253   5.213   0.952   6.080 -0.5550  0.5745 -0.1433
 9921TIP3    H151254   5.278   0.990   6.139 -1.7536 -0.6667  2.1284
 9921TIP3    H251255   5.264   0.918   6.007  1.2047  0.9262  0.8542
 9922TIP3   OH251256   1.280   4.610   5.700  0.0913 -0.5773 -0.5163
 9922TIP3    H151257   1.254   4.582   5.787 -1.2671 -0.8543 -0.9827
 9922TIP3    H251258   1.318   4.531   5.660  1.6416 -0.2036  0.1207
 9923TIP3   OH251259   0.063   4.191  11.192  0.1840  0.0939 -0.0643
 9923TIP3    H151260  -0.024   4.198  11.232  0.7112 -0.5695  1.2630
 9923TIP3    H251261   0.063   4.259  11.125 -0.9799  0.8330  0.6298
 9924TIP3   OH251262   4.220   2.791  15.678 -0.3972  0.2968 -0.1282
 9924TIP3    H151263   4.195   2.804  15.769  1.6983 -1.4083  0.7744
 9924TIP3    H251264   4.143   2.820  15.628 -1.9178  0.5197  2.1786
 9925TIP3   OH251265   0.681   0.311   3.071 -0.1536  0.5283 -0.5294
 9925TIP3    H151266   0.640   0.388   3.032 -0.7491 -0.1865 -1.3550
 9925TIP3    H251267   0.693   0.251   2.997 -2.6150 -1.4592  0.5414
 9926TIP3   OH251268   5.376   3.719  14.483 -0.0193  0.1560  0.0923
 9926TIP3    H151269   5.326   3.747  14.406 -0.0493  0.7630  0.3250
 9926TIP3    H251270   5.339   3.634  14.506  1.4859 -1.1167 -1.8859
 9927TIP3   OH251271   0.141   2.141  15.231 -0.1950 -0.4437  0.4050
 9927TIP3    H151272   0.145   2.095  15.147 -1.1192  0.5685 -0.2172
 9927TIP3    H251273   0.065   2.198  15.224  0.5009  0.6543  1.4221
 9928TIP3   OH251274   2.276   6.473   1.164 -0.2331 -0.1585  0.0804
 9928TIP3    H151275   2.201   6.519   1.202 -2.2188 -3.7854  0.9690
 9928TIP3    H251276   2.249   6.451   1.075 -0.4164 -1.7525  0.5073
 9929TIP3   OH251277   5.287   1.433  14.995 -0.2199  0.2697 -0.0479
 9929TIP3    H151278   5.217   1.469  14.940 -0.8324  0.2234  0.6807
 9929TIP3    H251279   5.301   1.345  14.961 -1.8458 -0.4242  0.9542
 9930TIP3   OH251280   0.986   5.762  17.290  0.1464 -0.1582  0.3830
 9930TIP3    H151281   0.954   5.724  17.372 -1.7326 -0.5552 -0.4992
 9930TIP3    H251282   1.082   5.757  17.298 -0.0029 -1.0198  2.1533
 9931TIP3   OH251283   2.646   3.801  13.662  0.3347  0.0648  0.2333
 9931TIP3    H151284   2.596   3.864  13.715  0.7403 -0.1940  0.9408
 9931TIP3    H251285   2.636   3.832  13.572  1.7813  2.0589  0.6777
 9932TIP3   OH251286   1.476   5.979  15.927 -0.4453  0.0172 -0.2387
 9932TIP3    H151287   1.387   6.013  15.932 -0.7388 -0.8786  1.1882
 9932TIP3    H251288   1.477   5.906  15.989  0.5293 -1.7257 -2.1923
 9933TIP3   OH251289   1.972   3.584   4.584  0.1439  0.3217  0.0109
 9933TIP3    H151290   1.916   3.583   4.507 -0.9148  0.1301  0.7563
 9933TIP3    H251291   2.037   3.515   4.567 -0.5214 -0.2280 -0.3948
 9934TIP3   OH251292   1.463   3.421   5.104 -0.2255  0.1859  0.0984
 9934TIP3    H151293   1.472   3.514   5.082 -1.8357  0.0772 -1.1277
 9934TIP3    H251294   1.390   3.390   5.051  0.1690 -1.7609  0.6162
 9935TIP3   OH251295   0.827   3.387   5.270  0.0381  0.2026  0.5533
 9935TIP3    H151296   0.777   3.306   5.283  0.4796  0.1526  2.1696
 9935TIP3    H251297   0.765   3.456   5.294  0.1421  0.2541  0.6706
 9936TIP3   OH251298   6.000   0.522   6.057 -0.1581  0.0715  0.6391
 9936TIP3    H151299   5.931   0.583   6.086  2.1001  3.1735 -0.0069
 9936TIP3    H251300   6.013   0.465   6.133 -4.1162 -1.5146  0.4001
 9937TIP3   OH251301   4.476   2.817  12.116  0.0057 -0.5181 -0.1631
 9937TIP3    H151302   4.506   2.893  12.066 -0.2809 -0.5494 -0.3890
 9937TIP3    H251303   4.381   2.828  12.122 -0.0063 -0.7140  0.0453
 9938TIP3   OH251304   6.275   0.939   5.561  0.0841  0.5127  0.2360
 9938TIP3    H151305   6.210   0.943   5.631  0.7711  1.4172  0.8431
 9938TIP3    H251306   6.358   0.923   5.606  0.4093  0.2327 -0.4503
 9939TIP3   OH251307   2.699   2.354  16.013  0.5364  0.9146 -0.2793
 9939TIP3    H151308   2.695   2.441  16.052 -1.2173  1.7289 -2.1212
 9939TIP3    H251309   2.620   2.347  15.960  1.0365 -1.5061 -0.8547
 9940TIP3   OH251310   6.289   0.222   2.517  0.0705 -0.1629  0.2052
 9940TIP3    H151311   6.338   0.145   2.544  0.2418 -0.5947 -1.2205
 9940TIP3    H251312   6.288   0.217   2.421 -1.8410  0.4028  0.1480
 9941TIP3   OH251313   3.508   4.894  15.352 -0.3628 -0.3089  0.3264
 9941TIP3    H151314   3.582   4.832  15.352 -1.1430 -1.2652  0.4385
 9941TIP3    H251315   3.435   4.843  15.317 -0.7054  0.9619 -0.8869
 9942TIP3   OH251316   0.139   6.282   1.426  0.1985 -0.6614 -0.1114
 9942TIP3    H151317   0.081   6.260   1.354 -0.9169  1.5095  0.0749
 9942TIP3    H251318   0.143   6.377   1.427  2.3421 -0.6862  1.0382
 9943TIP3   OH251319   3.814   4.413   1.837 -0.6538  0.5400 -0.3606
 9943TIP3    H151320   3.894   4.460   1.859 -0.6712 -0.2997  1.7495
 9943TIP3    H251321   3.744   4.473   1.858 -0.6235  0.6870 -0.6690
 9944TIP3   OH251322   1.802   1.238   0.802 -0.3509 -0.2403  0.3757
 9944TIP3    H151323   1.752   1.280   0.732  1.8185  1.1191 -0.4967
 9944TIP3    H251324   1.781   1.145   0.794 -1.7043  0.1338 -0.7699
 9945TIP3   OH251325   5.154   6.786  11.521 -0.0846 -0.1129 -0.5633
 9945TIP3    H151326   5.157   6.743  11.435  0.6370  0.2250 -0.7167
 9945TIP3    H251327   5.186   6.874  11.504  1.2786 -0.4247  0.2608
 9946TIP3   OH251328   5.091   0.872  16.884 -0.5027  0.7669  0.7687
 9946TIP3    H151329   5.156   0.848  16.951 -0.0058  1.2799  0.4714
 9946TIP3    H251330   5.012   0.825  16.911  0.2668 -0.7344  0.5486
 9947TIP3   OH251331   6.065   6.726  15.010  0.0674 -0.3276 -0.8292
 9947TIP3    H151332   6.111   6.783  14.948 -0.6263 -0.6530 -1.6616
 9947TIP3    H251333   6.087   6.637  14.981 -0.1072 -0.4817 -0.4880
 9948TIP3   OH251334   5.036   2.244   1.663 -0.0654 -0.0208 -0.0122
 9948TIP3    H151335   5.105   2.271   1.723 -0.8956  2.2956 -0.0003
 9948TIP3    H251336   4.959   2.229   1.718 -1.0169  2.7634 -0.4420
 9949TIP3   OH251337   4.337   2.041   3.825 -0.2276  0.3508 -0.6906
 9949TIP3    H151338   4.391   2.101   3.876 -0.7655 -0.8748  1.4456
 9949TIP3    H251339   4.259   2.091   3.802 -0.7937  0.4478  1.2992
 9950TIP3   OH251340   1.424   0.999   1.718 -0.4153  0.3665 -0.0949
 9950TIP3    H151341   1.367   1.075   1.728  0.0082  0.6612  0.0580
 9950TIP3    H251342   1.510   1.035   1.696  0.3678  0.0750  2.2240
 9951TIP3   OH251343   4.014   1.762   2.610  0.2079  0.3441  0.0033
 9951TIP3    H151344   3.953   1.760   2.536 -0.8299  2.1104  0.7720
 9951TIP3    H251345   3.973   1.706   2.676 -0.2598  0.9987  0.2718
 9952TIP3   OH251346   6.006   5.573  11.473 -0.2552 -0.1571 -0.5556
 9952TIP3    H151347   6.080   5.534  11.519 -0.0575 -0.6653 -1.2902
 9952TIP3    H251348   5.940   5.504  11.471 -0.5706  0.1311 -0.3436
 9953TIP3   OH251349   6.306   3.912   0.917  0.0213  0.3617  0.7402
 9953TIP3    H151350   6.398   3.925   0.937  0.2179 -0.7287  0.6049
 9953TIP3    H251351   6.280   3.836   0.969 -1.2020  1.5083  1.9047
 9954TIP3   OH251352   3.479   5.693  11.407  0.2156 -0.2368  0.0033
 9954TIP3    H151353   3.465   5.717  11.316 -3.4009  0.4599  0.5866
 9954TIP3    H251354   3.453   5.770  11.457 -1.0274 -1.6218  1.6460
 9955TIP3   OH251355   3.847   5.085   1.105  0.2289 -0.2098 -0.3227
 9955TIP3    H151356   3.908   5.088   1.031 -2.2315 -0.3385 -2.5209
 9955TIP3    H251357   3.854   5.172   1.146  1.1295  0.1394 -1.1799
 9956TIP3   OH251358   3.179   2.296   6.492 -0.5086  0.3649  0.6566
 9956TIP3    H151359   3.121   2.370   6.475 -0.1432  1.3352  3.2245
 9956TIP3    H251360   3.139   2.249   6.565  1.0417  0.0946  1.3815
 9957TIP3   OH251361   4.834   5.558  15.611 -0.3202 -0.0594 -0.0442
 9957TIP3    H151362   4.800   5.647  15.605 -1.5000 -0.5528 -2.8400
 9957TIP3    H251363   4.759   5.503  15.588  1.0598 -1.5600 -1.1975
 9958TIP3   OH251364   5.695   5.386  16.566  0.1173  0.0458 -0.1493
 9958TIP3    H151365   5.602   5.381  16.584  0.2412  1.6704  1.2349
 9958TIP3    H251366   5.726   5.295  16.571 -1.3110 -0.4575 -0.2329
 9959TIP3   OH251367   2.753   4.815  14.952  0.0546  0.2650  0.2264
 9959TIP3    H151368   2.769   4.799  15.045 -2.6395  0.6210  0.8311
 9959TIP3    H251369   2.768   4.731  14.910 -0.3368 -0.3260  1.2413
 9960TIP3   OH251370   6.332   1.664  13.231 -0.0460 -0.1495  0.4120
 9960TIP3    H151371   6.419   1.653  13.268 -0.0353  1.1581  0.8276
 9960TIP3    H251372   6.300   1.746  13.268  0.3677  1.8490 -3.2498
 9961TIP3   OH251373   0.800   4.850   4.049 -0.0268 -0.3762  0.5444
 9961TIP3    H151374   0.794   4.840   3.954 -0.2771  0.0583  0.5163
 9961TIP3    H251375   0.883   4.896   4.063  0.4838 -1.2832  0.5984
 9962TIP3   OH251376   1.320   6.545  15.070 -0.0291 -0.4365 -0.1195
 9962TIP3    H151377   1.251   6.592  15.116  0.1641  0.5367 -0.7966
 9962TIP3    H251378   1.373   6.614  15.030  0.3241 -1.2328 -1.0488
 9963TIP3   OH251379   4.253   2.439   5.911  0.1494 -0.3572 -0.1227
 9963TIP3    H151380   4.297   2.509   5.864  1.0733 -0.7468  0.1518
 9963TIP3    H251381   4.160   2.457   5.898  0.3850  0.1898 -1.1188
 9964TIP3   OH251382   4.402   2.682  10.649  0.0381 -0.1705 -0.0124
 9964TIP3    H151383   4.390   2.675  10.554 -0.1648 -0.1073  0.0077
 9964TIP3    H251384   4.420   2.592  10.677 -0.4613 -0.2819 -0.0373
 9965TIP3   OH251385   1.337   6.811  15.346  0.0173  1.1554 -0.1616
 9965TIP3    H151386   1.415   6.757  15.335 -0.6768  0.3169 -1.0917
 9965TIP3    H251387   1.357   6.893  15.300  0.1636  0.7574 -0.8110
 9966TIP3   OH251388   1.826   2.519   5.212 -0.2829  0.4601  0.2823
 9966TIP3    H151389   1.835   2.432   5.173  0.4394  0.4093  0.5458
 9966TIP3    H251390   1.741   2.517   5.257 -0.8733  0.3323 -0.7902
 9967TIP3   OH251391   0.387   3.710  11.294 -0.3206  0.0013 -0.3631
 9967TIP3    H151392   0.371   3.803  11.280  0.1465  0.1630  0.1104
 9967TIP3    H251393   0.320   3.683  11.357  1.5031  0.8158  2.0895
 9968TIP3   OH251394   0.881   4.504  16.620 -0.4189  0.0679 -0.1087
 9968TIP3    H151395   0.786   4.515  16.615 -0.5928 -1.8569 -2.5226
 9968TIP3    H251396   0.904   4.454  16.542  2.6333  0.6183  0.3188
 9969TIP3   OH251397   1.816   6.234   5.368 -0.0031  0.3966  0.2366
 9969TIP3    H151398   1.766   6.254   5.447 -1.6373  1.9436 -1.1053
 9969TIP3    H251399   1.890   6.294   5.372 -0.1584  0.5761  0.5143
 9970TIP3   OH251400   4.938   1.980  15.562 -0.5250 -0.5507 -0.6225
 9970TIP3    H151401   4.913   1.982  15.654 -0.1382  1.5093 -0.5218
 9970TIP3    H251402   4.945   1.887  15.541 -0.2416 -1.0549  1.5242
 9971TIP3   OH251403   1.608   2.419  11.756 -0.0215 -0.1825 -0.2624
 9971TIP3    H151404   1.701   2.394  11.760 -0.3683 -1.7783 -1.2193
 9971TIP3    H251405   1.562   2.349  11.802 -0.7311  0.9690  0.8540
 9972TIP3   OH251406   4.865   3.232  16.728  0.1790  0.3842 -0.1838
 9972TIP3    H151407   4.847   3.211  16.820 -0.5304  1.3868 -0.0736
 9972TIP3    H251408   4.836   3.154  16.680  0.9927 -0.3342  0.4670
 9973TIP3   OH251409   6.589   4.511  15.712  0.1606 -0.2613  0.1918
 9973TIP3    H151410   6.641   4.480  15.639 -0.1738  0.3817 -0.3324
 9973TIP3    H251411   6.606   4.605  15.715 -1.1344  0.0049 -0.1432
 9974TIP3   OH251412   4.542   0.105  12.275  0.0241 -0.4848  0.1820
 9974TIP3    H151413   4.470   0.054  12.313 -1.0325  1.0041  0.2781
 9974TIP3    H251414   4.536   0.190  12.319  1.2549 -0.0166 -0.5232
 9975TIP3   OH251415   2.439   2.227   5.878  0.1248  0.3843  0.1963
 9975TIP3    H151416   2.474   2.179   5.803  0.8977  0.2617  0.6295
 9975TIP3    H251417   2.356   2.264   5.846  0.7106  0.8036 -0.8831
 9976TIP3   OH251418   2.412   4.695  16.505 -0.3955 -0.1746  0.3570
 9976TIP3    H151419   2.352   4.661  16.571  0.3506  1.2533  1.8192
 9976TIP3    H251420   2.449   4.616  16.465  0.7973 -1.1819  3.1821
 9977TIP3   OH251421   6.732   2.027   5.881 -0.3845 -0.0384  0.7643
 9977TIP3    H151422   6.651   1.997   5.839  0.4386 -0.1686 -0.7942
 9977TIP3    H251423   6.702   2.069   5.961 -1.9357 -0.8526  0.6701
 9978TIP3   OH251424   6.020   5.182   0.870  0.4936  0.2989 -0.0574
 9978TIP3    H151425   6.057   5.095   0.886 -0.8988 -0.4689 -0.8180
 9978TIP3    H251426   5.928   5.175   0.896 -0.3948  0.6524 -2.7664
 9979TIP3   OH251427   4.594   4.062  12.736  0.0477 -0.0641 -0.5600
 9979TIP3    H151428   4.638   4.131  12.686 -0.7955  0.1838 -0.9987
 9979TIP3    H251429   4.631   3.980  12.702 -0.9885  0.0663 -2.1295
 9980TIP3   OH251430   5.302   0.758   5.027  0.2093  0.5385 -0.3401
 9980TIP3    H151431   5.370   0.728   4.967  1.3056  0.4413  0.9130
 9980TIP3    H251432   5.324   0.850   5.043 -1.0499  1.0422 -1.3652
 9981TIP3   OH251433   3.421   1.238   4.230  0.3487 -0.4713 -0.1040
 9981TIP3    H151434   3.500   1.192   4.201 -0.1393 -2.4379  1.4259
 9981TIP3    H251435   3.356   1.220   4.162  0.0769 -2.4212  0.6148
 9982TIP3   OH251436   3.312   4.935  17.294 -0.1516  0.0312  0.1161
 9982TIP3    H151437   3.250   4.933  17.221 -0.9568  2.1561  0.6745
 9982TIP3    H251438   3.376   5.002  17.270  0.8149 -0.7366  0.4493
 9983TIP3   OH251439   6.309   0.331  15.454  0.1841 -0.1400 -0.3693
 9983TIP3    H151440   6.376   0.338  15.386 -1.5119 -1.1627 -2.2566
 9983TIP3    H251441   6.355   0.292  15.529  1.4090 -2.2033 -2.0894
 9984TIP3   OH251442   5.626   5.667  15.932  0.3556 -0.1286 -0.4596
 9984TIP3    H151443   5.645   5.725  15.858 -1.4535 -1.7258 -2.2916
 9984TIP3    H251444   5.531   5.654  15.929  0.3548 -0.8990  1.6518
 9985TIP3   OH251445   6.239   0.985  17.026 -0.0895 -0.5159 -0.8118
 9985TIP3    H151446   6.261   0.981  16.933  1.9916  1.6141 -0.5075
 9985TIP3    H251447   6.322   1.004  17.069 -1.1713 -0.5086  1.4113
 9986TIP3   OH251448   4.844   6.609  11.429 -0.0578 -1.1140 -0.3334
 9986TIP3    H151449   4.876   6.675  11.368  0.0664 -1.3788 -0.5539
 9986TIP3    H251450   4.913   6.543  11.432  0.3927 -0.6296  0.8470
 9987TIP3   OH251451   1.288   6.789   5.678 -0.4561 -0.4268  0.1307
 9987TIP3    H151452   1.332   6.757   5.600 -0.8781 -0.4937 -0.0858
 9987TIP3    H251453   1.268   6.710   5.729 -0.5357 -0.4176  0.1145
 9988TIP3   OH251454   5.649   0.665  15.743 -0.1274  0.3026  0.0665
 9988TIP3    H151455   5.578   0.608  15.714 -0.4016  0.5720  0.1976
 9988TIP3    H251456   5.671   0.634  15.830  0.5266 -0.3484 -0.3256
 9989TIP3   OH251457   6.456   0.982   4.572  0.4395 -0.3878  0.3839
 9989TIP3    H151458   6.491   0.917   4.634 -0.4042 -1.3871 -0.1425
 9989TIP3    H251459   6.363   0.986   4.593  0.2402 -0.3707 -0.4987
 9990TIP3   OH251460   4.554   2.222   1.725  0.1894  0.1224 -1.0193
 9990TIP3    H151461   4.510   2.296   1.769  0.6466  0.7088 -1.5315
 9990TIP3    H251462   4.485   2.183   1.670 -0.1551 -0.0771 -0.4547
 9991TIP3   OH251463   3.048   3.449  13.850  0.0663  0.2981 -0.1100
 9991TIP3    H151464   2.977   3.513  13.840 -0.0085  0.1257 -0.7094
 9991TIP3    H251465   3.069   3.422  13.761 -0.5316 -1.2069  0.1784
 9992TIP3   OH251466   3.590   6.446   0.316  0.1611  0.2777  0.1416
 9992TIP3    H151467   3.512   6.442   0.371  0.0407 -1.4732 -0.1242
 9992TIP3    H251468   3.643   6.516   0.356 -1.2417  1.0770  0.6783
 9993TIP3   OH251469   1.123   6.058   3.144  0.2270  0.4222  0.2156
 9993TIP3    H151470   1.069   5.987   3.178  0.8377 -0.4490 -0.6054
 9993TIP3    H251471   1.071   6.096   3.074 -0.2239  0.9978  0.8437
 9994TIP3   OH251472   6.235   5.533  12.801  0.4176  0.0581 -0.0939
 9994TIP3    H151473   6.149   5.516  12.840  1.3367 -1.2741  1.5024
 9994TIP3    H251474   6.273   5.601  12.856 -0.1077  1.6726 -1.6414
 9995TIP3   OH251475   6.066   0.083  13.339  0.4049  0.4520  0.0626
 9995TIP3    H151476   5.991   0.143  13.329  0.6357  0.7959  0.3850
 9995TIP3    H251477   6.049   0.038  13.422 -1.1871 -1.9493 -1.3985
 9996TIP3   OH251478   6.733   4.858  12.121  0.5428 -0.9158 -0.3955
 9996TIP3    H151479   6.675   4.914  12.070  0.2411 -1.7154 -0.9420
 9996TIP3    H251480   6.687   4.775  12.128  0.7892 -0.9778  0.7870
 9997TIP3   OH251481   5.782   2.546   3.061  0.2262 -0.2639 -1.0280
 9997TIP3    H151482   5.723   2.616   3.087  1.8145  0.5962  0.5338
 9997TIP3    H251483   5.742   2.507   2.983 -1.3268  1.5531 -1.1964
 9998TIP3   OH251484   6.132   3.307   1.793  0.0650 -0.5674  0.2436
 9998TIP3    H151485   6.174   3.228   1.759 -0.0626 -0.1348 -0.9673
 9998TIP3    H251486   6.182   3.329   1.872  1.6598 -0.4717 -0.7677
 9999TIP3   OH251487   3.987   2.947  12.256 -0.0556 -0.0372  0.0092
 9999TIP3    H151488   4.063   3.004  12.247 -0.6009  0.7180  0.0210
 9999TIP3    H251489   3.971   2.914  12.168  0.2632 -0.1675  0.0012
10000TIP3   OH251490   6.186   5.877  16.872  0.1130  0.3316 -0.0537
10000TIP3    H151491   6.098   5.884  16.908  0.1020 -1.3496  0.3064
10000TIP3    H251492   6.193   5.951  16.812 -2.1640 -0.4617 -1.3990
10001TIP3   OH251493   5.805   3.776   5.479  0.0621 -0.0229 -0.8049
10001TIP3    H151494   5.725   3.764   5.531  0.7929 -1.1625  0.1104
10001TIP3    H251495   5.799   3.865   5.445 -0.0149  1.1779  2.0763
10002TIP3   OH251496   0.061   1.077  14.533 -0.2403  0.2467  0.3823
10002TIP3    H151497   0.029   1.019  14.603 -0.2579  0.4119  0.5121
10002TIP3    H251498   0.113   1.143  14.578 -0.5739  0.5825  0.2831
10003TIP3   OH251499   0.836   4.170   1.433 -0.4199  0.3217 -0.1204
10003TIP3    H151500   0.895   4.243   1.413 -0.0683  0.3152  0.8432
10003TIP3    H251501   0.798   4.193   1.518  0.0467 -0.8353  0.4205
10004TIP3   OH251502   3.315   6.005  17.077 -0.3293  0.4231  0.8094
10004TIP3    H151503   3.408   6.026  17.067 -0.0704 -1.0932 -0.3812
10004TIP3    H251504   3.292   5.960  16.996 -2.1664  0.9196  1.0108
10005TIP3   OH251505   5.874   0.302   1.217 -0.1322  0.6229 -0.2284
10005TIP3    H151506   5.860   0.242   1.144 -0.2490  0.2095  0.1281
10005TIP3    H251507   5.799   0.287   1.275  0.4571  0.2554  0.4405
10006TIP3   OH251508   2.283   3.019  13.677  0.3598  0.1354 -0.5377
10006TIP3    H151509   2.214   3.015  13.743 -0.9873  0.3543 -1.8711
10006TIP3    H251510   2.347   2.955  13.706  0.9234  1.7279  2.1361
10007TIP3   OH251511   1.258   4.164  11.277 -0.3621 -0.1998  0.8836
10007TIP3    H151512   1.329   4.225  11.258  1.6192 -2.5367  0.2753
10007TIP3    H251513   1.261   4.100  11.206 -2.1706 -1.1878  1.6113
10008TIP3   OH251514   5.102   2.369  11.417  0.1115  0.4561 -0.5737
10008TIP3    H151515   5.163   2.328  11.478 -0.6944  1.1648  0.7592
10008TIP3    H251516   5.060   2.296  11.371 -0.2436 -0.1704  0.7091
10009TIP3   OH251517   2.726   2.638   0.564 -0.5401  0.2441 -0.6410
10009TIP3    H151518   2.682   2.652   0.648  1.1087 -0.0374  0.3029
10009TIP3    H251519   2.667   2.579   0.517 -1.4380  0.2942  0.3580
10010TIP3   OH251520   5.411   0.308   5.699 -0.5043 -0.5812 -0.4901
10010TIP3    H151521   5.437   0.398   5.682 -1.1796  0.0443  1.5884
10010TIP3    H251522   5.491   0.257   5.687  0.2173  0.4865 -0.2642
10011TIP3   OH251523   1.813   2.102  10.909 -0.4260 -0.2027 -0.5569
10011TIP3    H151524   1.843   2.011  10.912  0.4381  0.0912  0.8654
10011TIP3    H251525   1.871   2.144  10.845  1.0730 -0.0691  0.8055
10012TIP3   OH251526   1.170   6.798   2.092 -0.3818  0.1984  0.0198
10012TIP3    H151527   1.172   6.702   2.090 -0.1403  0.1436  1.6556
10012TIP3    H251528   1.083   6.819   2.126 -0.0729  0.5169  0.6242
10013TIP3   OH251529   6.499   6.490   2.180  0.4029 -0.5699  0.3409
10013TIP3    H151530   6.479   6.557   2.245 -0.6543 -1.9732  1.5230
10013TIP3    H251531   6.415   6.446   2.164  0.7021 -0.5078 -1.7186
10014TIP3   OH251532   4.060   5.280  14.368 -0.3101 -0.4070  0.3994
10014TIP3    H151533   4.085   5.206  14.312  0.2573 -1.7979  2.3561
10014TIP3    H251534   4.089   5.254  14.456  1.5079  2.9263  0.9481
10015TIP3   OH251535   4.438   4.601   2.800  0.5768  0.3226 -0.7250
10015TIP3    H151536   4.416   4.648   2.881  1.2507 -0.2260 -0.2187
10015TIP3    H251537   4.381   4.641   2.734 -2.0447 -1.0595  0.5221
10016TIP3   OH251538   4.255   1.454  10.478  0.0827  0.5547 -0.0058
10016TIP3    H151539   4.164   1.423  10.476  0.0662  0.6290 -0.4551
10016TIP3    H251540   4.305   1.376  10.502  0.2283 -0.3469 -2.8415
10017TIP3   OH251541   0.687   6.496   5.723 -0.1479  0.6067 -0.1171
10017TIP3    H151542   0.667   6.590   5.722  2.5040  1.2974  0.9573
10017TIP3    H251543   0.607   6.455   5.755 -0.8630  2.7118  1.0276
10018TIP3   OH251544   6.049   4.862   2.093  0.0731 -1.1587 -0.1919
10018TIP3    H151545   5.977   4.889   2.036  0.3247 -1.7689 -0.8146
10018TIP3    H251546   6.084   4.944   2.127  0.2933 -0.7338 -1.3842
10019TIP3   OH251547   5.174   2.371   3.338  0.0602  0.2651 -0.3739
10019TIP3    H151548   5.252   2.394   3.388  0.7942 -1.4652 -0.6483
10019TIP3    H251549   5.102   2.378   3.401  0.6198  0.5821  0.2418
10020TIP3   OH251550   1.694   1.807   2.424 -0.4005  0.1005  0.6850
10020TIP3    H151551   1.666   1.760   2.502 -0.9247 -0.6501  0.0589
10020TIP3    H251552   1.672   1.749   2.351  2.5077 -0.4521  0.1001
10021TIP3   OH251553   2.137   5.715   1.199 -0.2026  0.4721  0.1564
10021TIP3    H151554   2.127   5.757   1.284 -0.6409 -0.5112  0.6058
10021TIP3    H251555   2.225   5.740   1.170 -0.0560  0.8219  0.8897
10022TIP3   OH251556   6.642   5.848   2.843  0.0632 -0.0388 -0.3770
10022TIP3    H151557   6.572   5.893   2.796  0.3186  0.3503 -0.3817
10022TIP3    H251558   6.720   5.861   2.789  0.6067  1.3581  0.6988
10023TIP3   OH251559   5.250   5.762   3.549  0.2971 -0.1628 -0.3429
10023TIP3    H151560   5.194   5.714   3.610  0.7424  0.6462  0.7517
10023TIP3    H251561   5.214   5.743   3.463 -0.7785 -0.8068  0.2213
10024TIP3   OH251562   4.612   5.273   1.904  0.2973 -0.1704 -0.2401
10024TIP3    H151563   4.605   5.333   1.830 -0.6601 -0.1604 -0.1498
10024TIP3    H251564   4.569   5.193   1.875 -1.6467  0.4080  0.8757
10025TIP3   OH251565   2.418   5.978   0.892  0.3847  0.4480  0.2085
10025TIP3    H151566   2.436   6.015   0.806  0.4973  0.1820  0.1154
10025TIP3    H251567   2.396   5.886   0.874 -1.0702  0.7455  0.3078
10026TIP3   OH251568   3.060   6.147   3.022 -0.1821  0.1380 -0.3102
10026TIP3    H151569   2.982   6.202   3.018 -2.1702 -2.5277 -2.6526
10026TIP3    H251570   3.071   6.127   3.115 -1.4839  1.5865  0.1965
10027TIP3   OH251571   0.468   0.438   5.307  0.6931  0.1226 -0.7472
10027TIP3    H151572   0.540   0.407   5.362 -0.5476 -0.4751  0.6176
10027TIP3    H251573   0.438   0.518   5.350 -0.6924 -0.6848 -0.1612
10028TIP3   OH251574   4.444   6.529   0.554 -0.5315  0.6045 -0.1649
10028TIP3    H151575   4.529   6.485   0.560 -0.2549  1.3048  1.9090
10028TIP3    H251576   4.405   6.518   0.640 -2.0879  1.2448 -0.7485
10029TIP3   OH251577   3.937   3.980   4.821 -0.0682  0.1937 -0.3794
10029TIP3    H151578   3.897   3.906   4.867 -0.3866  0.7451  0.2447
10029TIP3    H251579   3.964   3.943   4.737 -2.0891 -0.1749 -0.9302
10030TIP3   OH251580   3.317   3.052   3.968 -0.0552 -0.0818  0.0111
10030TIP3    H151581   3.343   3.098   3.888  0.4132 -0.1020  0.1478
10030TIP3    H251582   3.244   3.103   4.001 -0.6686 -0.4418 -0.7668
10031TIP3   OH251583   1.999   6.712  12.304  0.3871 -0.0470  0.0086
10031TIP3    H151584   2.048   6.788  12.273  0.0957 -0.0681 -0.5146
10031TIP3    H251585   1.911   6.723  12.266  0.0804 -0.1808  0.6559
10032TIP3   OH251586   6.548   0.868   2.711 -0.0402  0.4424 -0.4570
10032TIP3    H151587   6.461   0.894   2.682 -0.8830 -1.0290  0.6513
10032TIP3    H251588   6.559   0.911   2.796  0.8454  1.5829 -1.1046
10033TIP3   OH251589   1.914   2.821  13.636 -0.4167  0.0388  0.2896
10033TIP3    H151590   1.931   2.888  13.703  2.0309 -1.2049  1.0558
10033TIP3    H251591   1.910   2.739  13.685  2.3321 -1.0329 -1.0467
10034TIP3   OH251592   1.668   3.140   0.552  0.4052  0.1685  0.0569
10034TIP3    H151593   1.751   3.187   0.557  1.0786 -1.0424  0.3454
10034TIP3    H251594   1.688   3.050   0.577 -1.0657 -0.0672  0.5065
10035TIP3   OH251595   4.692   1.249   3.245 -0.1728  0.1174  0.7293
10035TIP3    H151596   4.631   1.176   3.255  0.9751 -1.1324 -0.7663
10035TIP3    H251597   4.637   1.322   3.215 -0.8800 -1.2364 -1.5190
10036TIP3   OH251598   0.144   4.661   2.045  0.4149 -0.5748 -0.0981
10036TIP3    H151599   0.148   4.566   2.061  0.1491 -0.5793 -0.0479
10036TIP3    H251600   0.091   4.669   1.966 -0.1207 -0.4337  0.2691
10037TIP3   OH251601   5.327   1.706  14.710 -0.5581  0.0985  0.6584
10037TIP3    H151602   5.369   1.633  14.665  0.0023  0.2378  0.9349
10037TIP3    H251603   5.400   1.753  14.752 -1.0373  0.1342  1.4687
10038TIP3   OH251604   5.700   5.865   5.829  0.3965  0.2440 -0.0273
10038TIP3    H151605   5.608   5.839   5.840  0.7634 -1.1920 -0.1884
10038TIP3    H251606   5.737   5.798   5.772  1.0981  1.8385 -1.5611
10039TIP3   OH251607   0.383   2.897   2.766  0.2883 -0.2907  0.4184
10039TIP3    H151608   0.408   2.815   2.809 -0.6080  0.0096  1.5814
10039TIP3    H251609   0.305   2.926   2.814 -1.0505 -0.1494 -1.7078
10040TIP3   OH251610   1.338   0.280  12.109  0.2890  0.3380  0.3200
10040TIP3    H151611   1.311   0.368  12.083 -0.5397  0.0849  0.2832
10040TIP3    H251612   1.331   0.280  12.204 -1.0120 -0.0743  0.2468
10041TIP3   OH251613   6.047   3.253  16.471 -0.6218 -0.6316  0.4694
10041TIP3    H151614   6.118   3.310  16.501 -1.6248  0.2448  1.2636
10041TIP3    H251615   5.980   3.313  16.439 -1.3021 -1.4066  0.4014
10042TIP3   OH251616   4.427   0.989  14.401  0.3504 -0.1167  0.3425
10042TIP3    H151617   4.400   1.034  14.481 -0.4431 -0.9611  0.5654
10042TIP3    H251618   4.518   0.962  14.418  0.4417  0.3711  0.6507
10043TIP3   OH251619   4.283   5.651  10.960  0.0520 -0.1918  0.4513
10043TIP3    H151620   4.336   5.575  10.982 -1.9554 -1.2275  2.0900
10043TIP3    H251621   4.247   5.631  10.873  0.0393 -0.8438  0.6028
10044TIP3   OH251622   2.306   4.870   5.806 -0.0696 -0.0741 -0.1137
10044TIP3    H151623   2.227   4.923   5.815  0.1894  0.3094 -0.0673
10044TIP3    H251624   2.307   4.815   5.885  0.0932  0.4426  0.2538
10045TIP3   OH251625   4.529   4.889  15.872  0.2176  0.2830  0.2016
10045TIP3    H151626   4.551   4.948  15.800 -1.1259 -0.8316 -1.1813
10045TIP3    H251627   4.602   4.828  15.878  1.2584  1.5589  1.1391
10046TIP3   OH251628   4.492   5.406  14.557  0.3595  0.6282  0.5045
10046TIP3    H151629   4.550   5.375  14.626  0.5406  1.8086  0.9011
10046TIP3    H251630   4.505   5.501  14.556 -0.9707  0.8159  0.0540
10047TIP3   OH251631   4.676   0.885   4.805 -0.8029 -0.1382  0.1633
10047TIP3    H151632   4.768   0.910   4.795 -0.3459 -2.1383 -0.9981
10047TIP3    H251633   4.630   0.938   4.740  0.0475 -1.6437 -1.7493
10048TIP3   OH251634   5.933   3.138  16.141 -0.0747 -0.1176  0.1329
10048TIP3    H151635   5.988   3.215  16.146  1.2651 -1.0664  0.4830
10048TIP3    H251636   5.878   3.152  16.064  0.0407  1.2381  0.2883
10049TIP3   OH251637   3.506   6.557  11.172  0.5522  0.1370  0.4094
10049TIP3    H151638   3.468   6.559  11.260  2.6260  0.2822  1.3460
10049TIP3    H251639   3.474   6.638  11.131 -2.8738 -1.3342 -0.1379
10050TIP3   OH251640   2.380   5.476   4.782 -0.6415 -0.4516 -0.1137
10050TIP3    H151641   2.339   5.397   4.746 -1.4708  0.3954 -1.0959
10050TIP3    H251642   2.394   5.532   4.706  0.3792  0.1600  0.5107
10051TIP3   OH251643   0.323   4.121   1.447  0.2197  0.6882 -0.0875
10051TIP3    H151644   0.383   4.048   1.461 -0.9058 -0.2589 -0.0441
10051TIP3    H251645   0.312   4.160   1.534 -1.7552 -1.2001  0.5983
10052TIP3   OH251646   6.119   4.863   5.422  0.3069  0.0120 -0.2329
10052TIP3    H151647   6.137   4.819   5.505  0.5201  0.1519 -0.2043
10052TIP3    H251648   6.048   4.812   5.383  0.6460 -0.4515 -0.2653
10053TIP3   OH251649   0.712   1.004   2.085 -0.0320 -0.1634 -0.4311
10053TIP3    H151650   0.743   1.010   2.176 -0.9590 -0.8843 -0.0443
10053TIP3    H251651   0.792   0.996   2.033  0.7086  2.8036  0.0369
10054TIP3   OH251652   0.572   5.886  12.803  0.3447 -0.7237 -0.4233
10054TIP3    H151653   0.595   5.964  12.854 -0.7488  0.4418 -1.6149
10054TIP3    H251654   0.632   5.889  12.727  0.7696 -1.4465 -0.1210
10055TIP3   OH251655   1.142   4.216   0.390 -0.3433  0.4082 -0.6335
10055TIP3    H151656   1.081   4.169   0.447 -0.1571  0.5503 -0.3155
10055TIP3    H251657   1.184   4.147   0.339  0.3049  0.1689  0.2003
10056TIP3   OH251658   0.222   6.578   3.133  0.4792 -0.1217  0.0345
10056TIP3    H151659   0.300   6.524   3.122  0.0998 -0.6780  0.0083
10056TIP3    H251660   0.149   6.519   3.110 -0.0441 -0.0670  1.4371
10057TIP3   OH251661   3.452   5.130   0.331  0.2208  0.1083 -0.2874
10057TIP3    H151662   3.418   5.197   0.390  0.2905 -0.5706  0.5323
10057TIP3    H251663   3.517   5.176   0.277 -0.3650  0.8928 -0.3404
10058TIP3   OH251664   4.598   1.097   4.192 -0.4844 -0.3175 -0.1804
10058TIP3    H151665   4.629   1.008   4.175  1.6630  0.5267 -1.0584
10058TIP3    H251666   4.568   1.129   4.107 -1.1991 -0.1781  0.1204
10059TIP3   OH251667   2.141   4.469  16.397 -0.0575  0.1592  0.4381
10059TIP3    H151668   2.145   4.491  16.490  1.8384 -1.9236  0.9411
10059TIP3    H251669   2.166   4.376  16.393 -1.7943 -0.3145 -2.0069
10060TIP3   OH251670   1.642   2.858   2.404  0.5790 -0.4402  0.1388
10060TIP3    H151671   1.715   2.796   2.396  0.4310 -0.5995  0.0175
10060TIP3    H251672   1.635   2.875   2.498  0.4288 -0.8380  0.1994
10061TIP3   OH251673   3.512   1.500  10.467 -0.6306  0.2100 -0.1197
10061TIP3    H151674   3.475   1.588  10.458 -0.8018  0.3657  1.6358
10061TIP3    H251675   3.436   1.443  10.482 -0.4457 -0.0564 -0.1769
10062TIP3   OH251676   2.393   6.073   2.522  0.0496  0.3312 -0.1820
10062TIP3    H151677   2.382   6.087   2.616  1.3373  1.6805 -0.2046
10062TIP3    H251678   2.318   6.118   2.483  0.0610  0.6417  0.1453
10063TIP3   OH251679   3.557   4.396   0.222  0.4332 -0.4559  0.0819
10063TIP3    H151680   3.585   4.457   0.291 -1.3891  0.6370 -0.0691
10063TIP3    H251681   3.586   4.310   0.253 -0.2392  0.0119  2.1859
10064TIP3   OH251682   3.696   3.253   2.660 -0.5813  0.8947 -0.0136
10064TIP3    H151683   3.745   3.202   2.725  1.1532  2.0028 -0.3846
10064TIP3    H251684   3.604   3.240   2.683 -0.0350  0.6774  2.2077
10065TIP3   OH251685   3.596   5.110   1.803 -0.5243  0.3504  0.2177
10065TIP3    H151686   3.573   5.053   1.730 -1.0333 -1.3960  1.6697
10065TIP3    H251687   3.557   5.195   1.780 -2.1370 -0.6027 -0.7753
10066TIP3   OH251688   6.082   4.207  11.325 -0.0845 -0.4293  0.0009
10066TIP3    H151689   6.089   4.221  11.419  0.2717  0.0337 -0.0895
10066TIP3    H251690   6.108   4.291  11.286  1.7599 -1.2008 -0.5699
10067TIP3   OH251691   3.651   4.644   2.707  0.1412 -0.3436 -0.0158
10067TIP3    H151692   3.670   4.715   2.646  1.9924 -1.2516 -0.5635
10067TIP3    H251693   3.734   4.628   2.752 -0.4478 -1.5951  0.6852
10068TIP3   OH251694   4.449   3.772   0.263  0.0052 -0.0866 -0.1178
10068TIP3    H151695   4.372   3.719   0.242 -0.3669  0.7818 -1.0597
10068TIP3    H251696   4.441   3.789   0.357 -0.8191 -0.2254 -0.1497
10069TIP3   OH251697   6.502   6.595  14.019  0.3569 -0.0073 -0.1714
10069TIP3    H151698   6.523   6.511  14.060  0.3818 -0.0059 -0.1815
10069TIP3    H251699   6.478   6.573  13.929 -0.4678 -0.0965  0.0638
10070TIP3   OH251700   0.930   2.642  12.967  0.2129  0.4589 -0.0228
10070TIP3    H151701   1.021   2.662  12.944 -0.6084  1.4452 -2.8054
10070TIP3    H251702   0.924   2.547  12.956  0.2555  0.6859 -2.9884
10071TIP3   OH251703   6.485   2.195   0.642  0.0391  0.1321  0.3575
10071TIP3    H151704   6.558   2.191   0.580 -1.2045 -0.9387 -1.1123
10071TIP3    H251705   6.463   2.103   0.659 -2.0803  0.3858 -0.6577
10072TIP3   OH251706   0.500   0.910  14.682 -0.3196  0.2856  0.6389
10072TIP3    H151707   0.473   0.972  14.614  0.6751 -0.7809 -0.8042
10072TIP3    H251708   0.420   0.892  14.732 -1.1948  0.7705 -0.5359
10073TIP3   OH251709   4.153   3.502   6.413 -0.1340  0.4152 -0.1388
10073TIP3    H151710   4.092   3.543   6.474 -0.0954  0.5791 -0.2092
10073TIP3    H251711   4.236   3.547   6.429  0.2936 -0.6824  0.8667
10074TIP3   OH251712   4.523   0.458   4.269 -0.3168 -0.6226 -0.9507
10074TIP3    H151713   4.504   0.514   4.344  0.1234 -0.6353 -0.8324
10074TIP3    H251714   4.505   0.370   4.300 -0.0792 -0.6326 -0.8471
10075TIP3   OH251715   2.923   6.397   5.249 -0.2653 -0.5821  0.5310
10075TIP3    H151716   3.005   6.419   5.294 -1.0321 -0.7087  2.0110
10075TIP3    H251717   2.917   6.302   5.254 -0.9468 -0.5060  1.2197
10076TIP3   OH251718   0.338   1.061  17.181  0.2604  0.3219  0.5317
10076TIP3    H151719   0.365   1.004  17.109  0.7618  1.2058  0.0134
10076TIP3    H251720   0.242   1.064  17.174  0.1625 -1.0592  1.0410
10077TIP3   OH251721   2.110   4.106   2.430  0.7107 -0.6264 -0.3667
10077TIP3    H151722   2.086   4.014   2.442 -2.2858  0.3707  3.5192
10077TIP3    H251723   2.035   4.145   2.387  0.8280  0.4258  0.3516
10078TIP3   OH251724   3.863   6.504  13.393  0.1004 -0.4000 -0.1199
10078TIP3    H151725   3.891   6.543  13.310 -1.5343  2.2471  0.4818
10078TIP3    H251726   3.796   6.441  13.369  1.3126 -1.4369 -0.9389
10079TIP3   OH251727   6.671   3.364   5.476 -0.0356 -0.3107 -0.0242
10079TIP3    H151728   6.606   3.399   5.537 -0.1607  0.0647 -0.3647
10079TIP3    H251729   6.675   3.429   5.406 -1.7960 -1.8899 -1.7406
10080TIP3   OH251730   6.121   2.650   4.228  0.2434  0.2524  0.3830
10080TIP3    H151731   6.063   2.575   4.238  0.0474  0.3420 -0.0752
10080TIP3    H251732   6.209   2.612   4.228  0.1542  0.0461  0.3540
10081TIP3   OH251733   3.259   5.902  16.776 -0.2517  0.4173  0.3623
10081TIP3    H151734   3.249   5.991  16.745 -0.2872  0.3111  0.0724
10081TIP3    H251735   3.235   5.847  16.702  1.6085  0.1537 -0.0774
10082TIP3   OH251736   2.685   1.038  12.405  0.4975  0.1874  1.0291
10082TIP3    H151737   2.650   1.062  12.319 -1.2172 -0.2944  1.5362
10082TIP3    H251738   2.718   1.120  12.442 -1.1838  0.9416  0.9508
10083TIP3   OH251739   5.423   5.620  13.612 -0.1952  0.7491  0.0708
10083TIP3    H151740   5.387   5.648  13.695  0.0239 -0.5603  0.6299
10083TIP3    H251741   5.352   5.572  13.569 -0.3715  1.5784 -0.6049
10084TIP3   OH251742   4.419   4.038   6.815 -0.0071 -0.0390  0.2558
10084TIP3    H151743   4.409   4.123   6.859  0.5042 -0.5787  1.4610
10084TIP3    H251744   4.513   4.030   6.800 -0.0224 -0.5238  0.4153
10085TIP3   OH251745   1.811   4.982  16.234 -0.2995 -0.6554  0.1068
10085TIP3    H151746   1.898   4.968  16.195 -0.5202 -0.8574 -0.3118
10085TIP3    H251747   1.810   5.075  16.257  0.7895 -1.0495  1.9674
10086TIP3   OH251748   0.251   6.521   1.219 -0.5433 -0.5545 -0.0062
10086TIP3    H151749   0.322   6.570   1.178  0.0976 -2.0827 -0.7851
10086TIP3    H251750   0.258   6.541   1.312  0.7363 -0.4805 -0.1088
10087TIP3   OH251751   4.910   6.441  16.582 -0.2369 -1.1217 -0.3795
10087TIP3    H151752   4.851   6.368  16.601  0.2087 -1.5948 -0.7840
10087TIP3    H251753   4.894   6.460  16.489 -1.0224 -0.0876 -0.0489
10088TIP3   OH251754   3.482   1.579   4.905 -0.1244 -0.4602  0.0390
10088TIP3    H151755   3.526   1.569   4.990 -0.7802 -2.7876  0.1731
10088TIP3    H251756   3.390   1.562   4.923 -0.3002 -0.8019 -1.0963
10089TIP3   OH251757   6.353   4.550  15.045  0.6546  0.2204  0.0417
10089TIP3    H151758   6.367   4.561  15.139  1.7092 -0.3659 -0.0324
10089TIP3    H251759   6.372   4.458  15.028 -1.7797 -0.2677 -0.3839
10090TIP3   OH251760   5.727   5.313   4.038  0.1875 -0.3052  0.1565
10090TIP3    H151761   5.645   5.334   4.081 -0.2327 -0.7611 -0.3993
10090TIP3    H251762   5.731   5.218   4.038  0.5116 -0.2973 -0.1813
10091TIP3   OH251763   6.539   1.155   3.953  0.5391 -0.0883 -0.0337
10091TIP3    H151764   6.547   1.064   3.981 -1.6955 -1.1906 -2.4393
10091TIP3    H251765   6.585   1.159   3.869 -0.5874  0.5672 -0.6583
10092TIP3   OH251766   2.522   0.727  12.905  0.1866 -0.2521  0.2693
10092TIP3    H151767   2.590   0.793  12.913  1.1870 -1.2985  0.7715
10092TIP3    H251768   2.544   0.678  12.826  0.7290 -1.3263  1.0491
10093TIP3   OH251769   2.033   3.400   3.445 -0.0167  0.3509  0.0169
10093TIP3    H151770   2.122   3.396   3.480  0.1965  0.0162 -0.5581
10093TIP3    H251771   2.041   3.456   3.368 -0.0990 -0.5309 -0.6380
10094TIP3   OH251772   0.643   4.631   3.543 -0.4343 -0.3711  0.2555
10094TIP3    H151773   0.592   4.700   3.585 -1.0093 -1.4903  1.5097
10094TIP3    H251774   0.610   4.550   3.582 -0.7161 -1.4924 -2.1112
10095TIP3   OH251775   4.325   6.568   3.844  0.0591 -0.2311  0.1366
10095TIP3    H151776   4.407   6.580   3.892 -0.3705  2.7420  0.2794
10095TIP3    H251777   4.316   6.647   3.791 -1.6967 -1.4290 -1.4943
10096TIP3   OH251778   2.301   5.406   0.357  0.5267 -0.5905  0.6058
10096TIP3    H151779   2.258   5.421   0.441  0.4313  0.0977  0.4383
10096TIP3    H251780   2.248   5.455   0.294  0.5179 -1.2122  0.1225
10097TIP3   OH251781   2.218   0.862  15.034 -0.3177 -0.1107  0.2275
10097TIP3    H151782   2.166   0.814  15.099 -0.5440 -1.1433 -0.6982
10097TIP3    H251783   2.304   0.821  15.037  0.0325  0.6450  0.7257
10098TIP3   OH251784   4.499   5.205   6.131  0.0210  0.3677 -0.1601
10098TIP3    H151785   4.577   5.151   6.143  0.9328  1.4284 -1.0695
10098TIP3    H251786   4.433   5.144   6.098  1.8224  0.1577 -3.9188
10099TIP3   OH251787   1.725   4.016   3.118  0.0628  0.4125  0.1543
10099TIP3    H151788   1.762   4.024   3.206  1.9766  0.5405 -0.6046
10099TIP3    H251789   1.736   4.102   3.079  1.4413 -0.2321 -0.9817
10100TIP3   OH251790   5.039   0.929  11.167  0.4841 -0.5306  0.3337
10100TIP3    H151791   5.044   0.922  11.263 -0.1942 -0.0219  0.4120
10100TIP3    H251792   4.945   0.938  11.149  0.6552 -0.0471 -0.3349
10101TIP3   OH251793   0.191   0.094   2.030  0.6769  0.1618 -0.4683
10101TIP3    H151794   0.240   0.116   2.110 -1.2616  1.1983  0.4860
10101TIP3    H251795   0.197   0.172   1.976 -1.3240  0.9565  0.4034
10102TIP3   OH251796   6.507   2.281   3.064  0.2249 -0.1711  0.1003
10102TIP3    H151797   6.439   2.295   3.130  1.0073 -1.6456  1.3042
10102TIP3    H251798   6.504   2.359   3.009  0.2607  1.6672  2.5265
10103TIP3   OH251799   6.560   4.251  11.705  0.5125  0.1862  0.0360
10103TIP3    H151800   6.469   4.225  11.690  0.8132 -0.6636 -0.3571
10103TIP3    H251801   6.599   4.175  11.748  1.2135  0.2851 -0.4221
10104TIP3   OH251802   2.449   5.001  10.660 -0.2006 -0.6385  0.2586
10104TIP3    H151803   2.446   5.088  10.700 -0.0320  0.0154 -1.0901
10104TIP3    H251804   2.380   5.003  10.594 -1.0320 -1.9793  1.0261
10105TIP3   OH251805   1.153   6.564   0.172 -0.0330 -0.1176 -0.0089
10105TIP3    H151806   1.241   6.597   0.192  0.0655 -1.2361  1.5726
10105TIP3    H251807   1.095   6.634   0.199  0.3486  1.1129 -2.1138
10106TIP3   OH251808   3.169   5.516  12.948 -0.0327 -0.0919 -0.1301
10106TIP3    H151809   3.216   5.598  12.933 -2.1730  1.1817 -0.2314
10106TIP3    H251810   3.201   5.485  13.032  1.9570 -0.0274 -0.8037
10107TIP3   OH251811   4.711   1.534  17.093 -0.3364 -0.0596  0.1661
10107TIP3    H151812   4.645   1.473  17.059  0.9141 -1.1425 -0.4337
10107TIP3    H251813   4.777   1.538  17.024 -0.5082  2.2628  0.0644
10108TIP3   OH251814   6.627   0.434  11.615  0.3650 -0.3199  0.0010
10108TIP3    H151815   6.651   0.526  11.619 -1.7177  0.2487  0.7612
10108TIP3    H251816   6.586   0.415  11.700 -2.0479 -1.0495 -1.2193
10109TIP3   OH251817   2.265   2.675   1.569  0.3916  0.5716 -0.0040
10109TIP3    H151818   2.261   2.771   1.574 -1.0949  0.6657 -1.6658
10109TIP3    H251819   2.194   2.652   1.509 -0.6899 -1.7412  1.9933
10110TIP3   OH251820   5.850   2.869  14.915 -0.5571 -0.4860  0.4664
10110TIP3    H151821   5.873   2.807  14.845  0.5236  0.2166  0.1681
10110TIP3    H251822   5.783   2.824  14.966 -1.2851 -1.0633 -0.9554
10111TIP3   OH251823   0.747   2.425  17.009  0.8210 -0.1018 -0.2997
10111TIP3    H151824   0.689   2.422  17.085  2.3002  1.3023  0.9691
10111TIP3    H251825   0.689   2.440  16.935 -0.3926  3.2311  1.1105
10112TIP3   OH251826   1.171   2.671  15.421 -0.0181 -0.4925  0.1128
10112TIP3    H151827   1.193   2.630  15.337  0.6414  0.2651 -0.1045
10112TIP3    H251828   1.232   2.632  15.483  1.6272  1.1570 -0.3723
10113TIP3   OH251829   5.886   0.240  11.115  0.0262  0.4022  0.2875
10113TIP3    H151830   5.853   0.208  11.031  0.9864  0.7998 -0.2516
10113TIP3    H251831   5.916   0.329  11.097 -0.9995  0.9855  1.3734
10114TIP3   OH251832   5.784   4.219   5.463  0.5277  0.6526  0.7019
10114TIP3    H151833   5.697   4.256   5.476  0.3137  0.2616  0.4320
10114TIP3    H251834   5.774   4.162   5.387  0.2751 -1.6384  2.3391
10115TIP3   OH251835   2.030   1.582  11.497  0.1586  0.0571 -0.2878
10115TIP3    H151836   1.966   1.569  11.428  0.1692  0.3357 -0.3505
10115TIP3    H251837   1.988   1.548  11.576 -0.3129  0.8044 -0.2094
10116TIP3   OH251838   4.094   1.354   1.841 -0.2934  0.1521  0.1085
10116TIP3    H151839   4.078   1.426   1.780 -0.3537  0.8704  0.9417
10116TIP3    H251840   4.054   1.384   1.923  1.0599 -0.1426  0.8991
10117TIP3   OH251841   1.369   4.358   2.611  0.8160 -0.5921 -0.5081
10117TIP3    H151842   1.336   4.289   2.553 -0.2646  1.0341 -1.9249
10117TIP3    H251843   1.342   4.440   2.568  0.4171  0.7012  2.0388
10118TIP3   OH251844   5.415   6.714   2.689  0.0051 -0.1199 -0.4931
10118TIP3    H151845   5.395   6.641   2.630  1.2582 -0.5783 -0.3785
10118TIP3    H251846   5.489   6.759   2.648  0.7289 -0.2843  0.5904
10119TIP3   OH251847   0.440   4.241  13.874  0.2325 -0.3355 -0.2558
10119TIP3    H151848   0.516   4.276  13.828  0.1062  1.0707  0.5545
10119TIP3    H251849   0.453   4.267  13.966 -1.6590  0.7785 -0.2413
10120TIP3   OH251850   2.570   6.211  12.662 -0.1595 -0.2859  0.1776
10120TIP3    H151851   2.577   6.289  12.607 -1.1084 -1.5361 -1.8488
10120TIP3    H251852   2.533   6.243  12.745 -0.4528  1.4187 -0.5708
10121TIP3   OH251853   4.670   6.756  14.372  0.1093  0.2399 -0.2400
10121TIP3    H151854   4.603   6.762  14.304 -0.8691 -1.0962  0.5629
10121TIP3    H251855   4.644   6.681  14.425  1.3009  0.7484  1.1294
10122TIP3   OH251856   0.822   5.783   2.623 -0.0600 -0.3109  1.2385
10122TIP3    H151857   0.774   5.833   2.688 -1.1115 -1.7685  1.6312
10122TIP3    H251858   0.778   5.698   2.620  0.3664 -0.5250 -0.8890
10123TIP3   OH251859   1.528   6.766  14.415 -0.2373 -0.0043 -0.3504
10123TIP3    H151860   1.444   6.797  14.382 -3.0880 -2.3776  3.7044
10123TIP3    H251861   1.552   6.829  14.483 -0.6976 -1.1616  0.9291
10124TIP3   OH251862   2.603   1.668   0.138  0.1926 -0.2730 -0.5594
10124TIP3    H151863   2.538   1.643   0.203 -1.6264  0.4643 -2.0046
10124TIP3    H251864   2.593   1.763   0.129 -0.0878 -0.4355 -2.3697
10125TIP3   OH251865   2.184   4.643   6.172 -0.0443  0.0949  0.5056
10125TIP3    H151866   2.183   4.558   6.217 -0.3176  0.2070  0.7178
10125TIP3    H251867   2.266   4.643   6.123 -1.8918 -2.0694 -2.9497
10126TIP3   OH251868   6.579   5.954   2.012  0.3432 -0.2796 -0.4603
10126TIP3    H151869   6.643   6.025   2.000  0.4466 -0.4354 -0.8091
10126TIP3    H251870   6.577   5.908   1.929 -1.5302  0.7987 -1.0798
10127TIP3   OH251871   2.785   2.903   6.089  0.0668 -0.1031  0.0074
10127TIP3    H151872   2.880   2.918   6.091  0.3972 -1.6802 -1.4119
10127TIP3    H251873   2.769   2.846   6.165  0.7729 -2.0633 -1.2095
10128TIP3   OH251874   6.078   4.999   3.835  0.1825 -0.3286  0.2050
10128TIP3    H151875   6.162   4.971   3.798  1.0385  1.6670  0.5372
10128TIP3    H251876   6.093   5.088   3.866 -1.7398 -0.3435  1.3765
10129TIP3   OH251877   1.142   4.705   5.197 -0.2039 -0.2058  0.0158
10129TIP3    H151878   1.068   4.709   5.258  0.5706  1.5303  0.9092
10129TIP3    H251879   1.219   4.722   5.251  0.6204  0.2787 -1.2587
10130TIP3   OH251880   3.556   5.991  16.932  0.1865 -0.4173  0.9603
10130TIP3    H151881   3.649   5.978  16.952  0.8859  0.9524 -1.0032
10130TIP3    H251882   3.524   5.904  16.909  1.2883 -0.7452  0.5982
10131TIP3   OH251883   0.170   5.767   1.053  0.8487 -0.2662  0.1608
10131TIP3    H151884   0.266   5.769   1.063  0.6614 -0.1062  2.3627
10131TIP3    H251885   0.136   5.784   1.141 -1.2254 -1.0995 -0.4216
10132TIP3   OH251886   2.409   4.580  14.252 -0.0668  0.2337 -0.4844
10132TIP3    H151887   2.323   4.600  14.289  1.0472  2.8825  0.9269
10132TIP3    H251888   2.413   4.632  14.172 -0.2584 -0.9594 -1.2912
10133TIP3   OH251889   3.643   1.521  15.740 -0.1454  0.5982  0.0877
10133TIP3    H151890   3.563   1.546  15.786 -0.3558  2.2577 -1.0886
10133TIP3    H251891   3.709   1.516  15.808 -0.8508  1.0770  0.8320
10134TIP3   OH251892   6.807   2.568  15.906  0.3912  0.0865  0.1738
10134TIP3    H151893   6.886   2.598  15.951 -0.5722 -0.3660  2.2864
10134TIP3    H251894   6.839   2.521  15.829  2.2747 -1.2769  1.6925
10135TIP3   OH251895   2.184   0.181  11.637 -0.0494 -0.2081  0.2494
10135TIP3    H151896   2.226   0.259  11.673 -0.4647 -0.1136  0.5344
10135TIP3    H251897   2.231   0.108  11.677 -0.6138 -0.1058  1.1343
10136TIP3   OH251898   3.691   4.323  11.431 -0.6235 -0.5471  0.2335
10136TIP3    H151899   3.754   4.253  11.414 -0.6972 -0.3933 -0.6966
10136TIP3    H251900   3.630   4.320  11.358 -1.0480  0.0230  0.5534
10137TIP3   OH251901   5.261   6.399  16.837 -0.2199 -0.6184 -0.2882
10137TIP3    H151902   5.289   6.336  16.771  0.0445 -0.9146  0.1120
10137TIP3    H251903   5.313   6.379  16.914  1.2104  1.2463 -0.6838
10138TIP3   OH251904   3.430   3.956  15.503  0.0550  1.0230 -0.3892
10138TIP3    H151905   3.446   4.017  15.432  0.7990  1.3211  0.0230
10138TIP3    H251906   3.445   3.870  15.464  0.5031  1.1870 -0.5848
10139TIP3   OH251907   6.003   0.414   4.706 -0.4645 -0.6101  0.2929
10139TIP3    H151908   6.052   0.358   4.646 -2.9361 -1.8169 -0.7436
10139TIP3    H251909   5.914   0.380   4.704 -1.3361  1.2584  2.3199
10140TIP3   OH251910   5.064   5.761  13.514 -0.4778  0.6266  0.4153
10140TIP3    H151911   5.089   5.849  13.541  0.3481  0.3516  0.5595
10140TIP3    H251912   4.970   5.768  13.494 -0.0041  2.0422 -1.6389
10141TIP3   OH251913   6.344   5.143   3.861  0.3926 -0.0943 -0.3356
10141TIP3    H151914   6.260   5.187   3.871  0.2638 -0.6067  1.0202
10141TIP3    H251915   6.368   5.158   3.770 -0.3067  1.5734 -0.2719
10142TIP3   OH251916   2.590   2.228  14.107  0.4248  0.1355  0.3878
10142TIP3    H151917   2.509   2.265  14.071  0.0752 -0.2888  0.7347
10142TIP3    H251918   2.659   2.278  14.064  0.0233 -0.3970 -0.9454
10143TIP3   OH251919   2.690   6.271   2.986  0.2515 -0.0196  0.0406
10143TIP3    H151920   2.753   6.319   3.040  1.6978 -1.4914 -0.2827
10143TIP3    H251921   2.675   6.189   3.034  0.7182 -0.8729 -1.2327
10144TIP3   OH251922   2.337   6.454  14.866  0.3094 -0.4565 -0.3167
10144TIP3    H151923   2.324   6.375  14.919 -0.7216  0.9721  1.6621
10144TIP3    H251924   2.252   6.471  14.825  0.2962  0.0827 -0.0736
10145TIP3   OH251925   0.697   3.553   2.560 -0.8239 -0.1599 -0.5833
10145TIP3    H151926   0.611   3.593   2.571 -0.4212  0.9905 -1.4148
10145TIP3    H251927   0.757   3.627   2.549  0.6727 -0.7616  2.2435
10146TIP3   OH251928   5.610   4.583   1.310  0.3540 -0.2199 -0.2302
10146TIP3    H151929   5.646   4.653   1.364 -1.6008  0.0666  0.8026
10146TIP3    H251930   5.574   4.627   1.233  0.8924 -0.3364 -0.5533
10147TIP3   OH251931   2.181   5.076  15.737 -0.0218 -0.2998 -0.3980
10147TIP3    H151932   2.126   5.089  15.659 -0.1045  0.7237 -0.1782
10147TIP3    H251933   2.242   5.007  15.712 -0.9881 -1.0126 -0.8688
10148TIP3   OH251934   2.177   3.163   4.192 -0.8820  0.4825 -0.0493
10148TIP3    H151935   2.153   3.244   4.236  1.6292 -0.1154  2.7860
10148TIP3    H251936   2.130   3.095   4.240 -0.7024  0.0608 -0.4673
10149TIP3   OH251937   4.227   0.556  12.315 -0.4103 -0.1205 -0.0732
10149TIP3    H151938   4.275   0.519  12.389 -0.8165 -1.9848 -0.7111
10149TIP3    H251939   4.292   0.561  12.245 -0.2589  0.7973  0.1133
10150TIP3   OH251940   5.204   5.512  13.821  0.4109  0.0170  0.2098
10150TIP3    H151941   5.199   5.437  13.761  1.3599 -0.7528  1.0523
10150TIP3    H251942   5.131   5.568  13.795 -0.2689 -1.1518 -0.5146
10151TIP3   OH251943   0.823   5.865   3.277 -0.0152  0.0245  0.3759
10151TIP3    H151944   0.792   5.930   3.340 -1.4656 -0.9737  0.7349
10151TIP3    H251945   0.794   5.899   3.192  0.2609  0.4120  0.4309
10152TIP3   OH251946   2.785   3.467  11.202 -0.4501 -0.2758 -0.1451
10152TIP3    H151947   2.786   3.444  11.109 -2.0628 -1.0107 -0.0177
10152TIP3    H251948   2.707   3.522  11.212 -0.6195 -0.6878  0.8670
10153TIP3   OH251949   2.065   4.025   0.495 -0.2284  1.1972 -0.1619
10153TIP3    H151950   2.146   3.974   0.501 -1.5902 -1.2124 -0.7950
10153TIP3    H251951   2.083   4.104   0.546  2.3049  0.4942  0.2026
10154TIP3   OH251952   6.065   5.645   4.460 -0.1487 -0.6684 -0.1753
10154TIP3    H151953   5.974   5.613   4.465 -0.5291  0.2248 -1.0187
10154TIP3    H251954   6.109   5.601   4.533 -1.4552 -0.4838  0.7780
10155TIP3   OH251955   3.754   5.951  11.235 -0.0750  0.1204 -0.0446
10155TIP3    H151956   3.840   5.936  11.275 -1.5410 -2.8257  2.3654
10155TIP3    H251957   3.725   5.864  11.208 -2.4089  1.0209 -0.6431
10156TIP3   OH251958   3.803   3.087  12.635 -0.1338  0.0503 -0.3530
10156TIP3    H151959   3.851   3.005  12.623  0.2109  0.3941 -1.3374
10156TIP3    H251960   3.819   3.110  12.727  3.5990  1.3902 -1.1874
10157TIP3   OH251961   6.671   2.776   3.115 -0.2088  0.1237  0.2406
10157TIP3    H151962   6.581   2.807   3.124 -0.6840 -1.4401  1.4198
10157TIP3    H251963   6.725   2.847   3.150 -1.1133  0.3500  1.2147
10158TIP3   OH251964   0.022   3.519   6.497 -0.1290  0.0597  0.6054
10158TIP3    H151965   0.023   3.602   6.545 -1.8947  1.0786 -0.9574
10158TIP3    H251966   0.104   3.518   6.447 -0.1434  0.9384  0.5530
10159TIP3   OH251967   3.467   1.554   5.676 -0.0777  0.3224  0.1026
10159TIP3    H151968   3.461   1.488   5.745 -1.8207  0.0084 -0.3058
10159TIP3    H251969   3.513   1.627   5.716  1.9917 -1.1422  0.5402
10160TIP3   OH251970   2.130   4.713   3.310  0.0690  0.1666  0.2333
10160TIP3    H151971   2.174   4.738   3.229  1.6667 -0.9972  0.6909
10160TIP3    H251972   2.050   4.670   3.282  0.3117  0.3168 -0.7189
10161TIP3   OH251973   1.516   0.643   5.166  0.3241  0.2009  0.8325
10161TIP3    H151974   1.437   0.593   5.145 -0.0669  0.3164  1.9630
10161TIP3    H251975   1.585   0.577   5.174  0.0092 -0.0709  1.3810
10162TIP3   OH251976   2.968   0.715   4.960  0.2823  0.4572  0.4343
10162TIP3    H151977   2.987   0.770   4.884 -0.2033  1.3553  0.9560
10162TIP3    H251978   2.886   0.670   4.936  0.4482  0.2746  0.1923
10163TIP3   OH251979   2.812   5.508   5.887  0.0759 -0.1227  0.6226
10163TIP3    H151980   2.786   5.558   5.810  2.4915  1.3336  0.6554
10163TIP3    H251981   2.730   5.477   5.925 -1.4051  2.1758 -0.5178
10164TIP3   OH251982   4.555   1.748  12.254  0.0586 -0.0601 -0.0722
10164TIP3    H151983   4.574   1.656  12.272 -1.3632 -0.2852  0.3758
10164TIP3    H251984   4.550   1.753  12.158  4.6975  0.5467 -0.5038
10165TIP3   OH251985   3.411   0.870   4.793  0.1149  0.0725  0.8752
10165TIP3    H151986   3.493   0.860   4.743 -0.2180  0.6041  0.1960
10165TIP3    H251987   3.344   0.831   4.737 -0.2874  0.8105  0.8239
10166TIP3   OH251988   4.143   5.562   1.215 -0.3911 -0.2951  0.0195
10166TIP3    H151989   4.163   5.644   1.260  1.5566 -0.8204  0.2024
10166TIP3    H251990   4.088   5.588   1.141 -0.6020  1.0377  0.6162
10167TIP3   OH251991   0.533   3.755  12.461  0.3909  0.4711 -0.1968
10167TIP3    H151992   0.615   3.803  12.471 -0.5980  1.9999  1.0280
10167TIP3    H251993   0.545   3.678  12.517  0.4461  1.4839  1.2540
10168TIP3   OH251994   2.374   2.986   6.913 -0.1439 -0.0031 -0.0683
10168TIP3    H151995   2.372   2.992   6.818 -1.7494  1.6278  0.0067
10168TIP3    H251996   2.322   3.061   6.943  0.6947 -0.2047  2.1036
10169TIP3   OH251997   6.379   4.899  12.493  0.3738  0.1075 -0.4361
10169TIP3    H151998   6.352   4.990  12.505  1.6435  0.4869 -0.2641
10169TIP3    H251999   6.303   4.856  12.454 -0.2615  1.2268 -0.4737
10170TIP3   OH252000   3.325   5.540  11.706  0.6656  0.8334 -0.2444
10170TIP3    H152001   3.408   5.565  11.666  1.1297 -1.0899 -0.5737
10170TIP3    H252002   3.260   5.548  11.636  0.7000  1.5950 -0.1936
10171TIP3   OH252003   2.134   5.332  11.302  0.2033 -0.3932  0.8684
10171TIP3    H152004   2.204   5.320  11.239 -0.1393  0.1386  0.3755
10171TIP3    H252005   2.164   5.286  11.381  0.0298 -2.2628 -0.1041
10172TIP3   OH252006   5.716   4.940   3.037 -0.4981 -0.3711 -0.8070
10172TIP3    H152007   5.650   4.994   2.993 -2.8134 -0.9572  1.6694
10172TIP3    H252008   5.671   4.857   3.054  0.5129 -0.4869  1.7476
10173TIP3   OH252009   2.369   1.183  14.588 -0.3713 -0.0438 -0.0012
10173TIP3    H152010   2.325   1.265  14.562 -1.2018 -1.1871 -2.5495
10173TIP3    H252011   2.315   1.148  14.658 -0.0838  1.4934  1.0370
10174TIP3   OH252012   1.597   2.647   0.379  0.9865 -0.0982  0.0398
10174TIP3    H152013   1.662   2.690   0.323  1.1154  0.8193  0.8606
10174TIP3    H252014   1.518   2.700   0.369  0.6868 -0.5773 -0.1269
10175TIP3   OH252015   0.732   4.438   1.251  0.7261 -0.0672 -0.3137
10175TIP3    H152016   0.817   4.434   1.295  0.6768 -0.1988 -0.2287
10175TIP3    H252017   0.740   4.378   1.178  0.9718  0.5201 -0.7754
10176TIP3   OH252018   6.264   5.949   5.382  0.1727 -0.0642  0.9645
10176TIP3    H152019   6.345   5.914   5.418  0.7850 -0.5973 -0.8164
10176TIP3    H252020   6.260   6.039   5.413  1.5557  0.0335  0.9140
10177TIP3   OH252021   1.797   0.589  12.666  0.5242  0.4253  0.2739
10177TIP3    H152022   1.814   0.677  12.632  0.1701  0.2589 -0.3580
10177TIP3    H252023   1.878   0.564  12.710  1.3661  0.2974 -1.2496
10178TIP3   OH252024   5.319   2.765  13.410  0.4294  0.2459 -0.0222
10178TIP3    H152025   5.249   2.699  13.408  1.5394 -0.9756 -0.3997
10178TIP3    H252026   5.293   2.826  13.479 -1.9389  0.9170 -1.4259
10179TIP3   OH252027   0.211   3.325  17.251  0.7139 -0.2138  0.0884
10179TIP3    H152028   0.295   3.279  17.256  0.2472 -0.9656  1.6413
10179TIP3    H252029   0.160   3.290  17.324  0.0690  2.2871  0.9421
10180TIP3   OH252030   4.969   0.907  14.450 -0.4487 -0.2627 -0.0683
10180TIP3    H152031   5.039   0.882  14.511  0.6002 -0.9467 -1.5040
10180TIP3    H252032   4.995   0.992  14.416  0.0994 -0.8425 -1.1559
10181TIP3   OH252033   6.154   5.656  17.045  0.5954 -0.1658 -0.1129
10181TIP3    H152034   6.156   5.740  16.998  0.5221 -0.9478 -1.5763
10181TIP3    H252035   6.168   5.591  16.977  1.5670 -1.3090  1.1279
10182TIP3   OH252036   6.086   6.401  15.172 -0.3625 -0.2096  0.4020
10182TIP3    H152037   6.058   6.438  15.256  0.4488 -0.2628  0.7086
10182TIP3    H252038   6.006   6.392  15.121 -0.7759  0.5042  0.9075
10183TIP3   OH252039   0.246   0.819   0.251  0.0038 -0.0121 -0.1782
10183TIP3    H152040   0.309   0.824   0.180  0.5270 -0.0636  0.2776
10183TIP3    H252041   0.283   0.873   0.321  0.4185 -1.4093  0.7388
10184TIP3   OH252042   1.342   0.240  11.632  0.8545 -0.3193  0.0877
10184TIP3    H152043   1.338   0.221  11.538 -2.4450 -0.8623  0.2192
10184TIP3    H252044   1.429   0.211  11.658  1.1080 -2.2231 -2.4221
10185TIP3   OH252045   5.905   3.482   4.080  0.1725 -0.1460 -0.2364
10185TIP3    H152046   5.866   3.460   4.165 -0.5613 -1.0080 -0.7700
10185TIP3    H252047   5.985   3.529   4.102 -0.8828  1.2205  0.9058
10186TIP3   OH252048   0.421   3.583   2.861  0.6413  0.5227  0.2375
10186TIP3    H152049   0.515   3.587   2.876  1.2309 -2.7244 -1.6468
10186TIP3    H252050   0.390   3.517   2.923 -0.2289  0.8119  0.1214
10187TIP3   OH252051   3.603   0.461   0.251 -0.2491 -0.5609 -0.1983
10187TIP3    H152052   3.586   0.393   0.315 -1.0703 -0.0195  0.1692
10187TIP3    H252053   3.518   0.501   0.234  0.3844  1.2880  0.6241
10188TIP3   OH252054   1.522   5.317   0.438 -0.1266 -0.5261  0.0267
10188TIP3    H152055   1.488   5.334   0.350  0.3738  0.6511  0.0354
10188TIP3    H252056   1.460   5.361   0.496  0.3731  0.0401  0.1506
10189TIP3   OH252057   4.408   4.740  16.753  0.4145  0.0960 -0.4964
10189TIP3    H152058   4.350   4.814  16.738  0.8685  0.7857  0.9158
10189TIP3    H252059   4.361   4.685  16.815  0.2939 -0.5447 -1.1490
10190TIP3   OH252060   3.579   1.106   0.232 -0.2366 -0.5728 -0.8658
10190TIP3    H152061   3.637   1.181   0.248 -1.4451  0.5055 -1.4479
10190TIP3    H252062   3.560   1.110   0.139 -0.0529 -1.8272 -0.9698
10191TIP3   OH252063   0.308   1.796  10.608 -0.4704  0.0489  0.0333
10191TIP3    H152064   0.388   1.745  10.614 -0.8767 -0.5241  0.8117
10191TIP3    H252065   0.239   1.731  10.593 -1.1823  0.1527  2.3484
10192TIP3   OH252066   0.234   2.740   1.349 -0.5934  0.1591 -0.2142
10192TIP3    H152067   0.289   2.714   1.423  2.7795  0.6806 -2.3174
10192TIP3    H252068   0.175   2.666   1.336  0.5351 -1.0970  1.3839
10193TIP3   OH252069   3.212   2.304  15.854 -0.8271 -0.2083  0.0629
10193TIP3    H152070   3.244   2.268  15.771  0.7440 -1.6750  1.2315
10193TIP3    H252071   3.117   2.302  15.847 -0.7198 -0.8856 -1.4629
10194TIP3   OH252072   0.675   1.668   1.162  0.1245 -0.1809 -0.3797
10194TIP3    H152073   0.651   1.593   1.107  2.3114 -0.3580 -1.1894
10194TIP3    H252074   0.699   1.629   1.246  0.0745 -0.2429 -0.3939
10195TIP3   OH252075   1.860   0.186  14.858 -0.0690 -0.1937 -0.3302
10195TIP3    H152076   1.874   0.273  14.895  0.9816 -0.9755  1.2116
10195TIP3    H252077   1.944   0.163  14.817  0.3807 -1.2978  1.1268
10196TIP3   OH252078   5.330   5.851  12.988  0.2522 -0.0076  0.4092
10196TIP3    H152079   5.264   5.850  13.057  0.1235  0.9922  0.3184
10196TIP3    H252080   5.310   5.773  12.935  1.4031 -1.7868  2.4271
10197TIP3   OH252081   4.032   6.233  12.386 -0.1943 -0.4971  0.4578
10197TIP3    H152082   4.065   6.269  12.304 -0.8687  3.4263  1.6744
10197TIP3    H252083   3.961   6.174  12.360 -0.6555  0.9245 -1.7696
10198TIP3   OH252084   4.195   0.012  14.003 -0.1653  0.0139  0.4149
10198TIP3    H152085   4.202  -0.082  14.023  0.3434 -0.2774 -0.9736
10198TIP3    H252086   4.199   0.016  13.907  1.4940  1.5782  0.5010
10199TIP3   OH252087   1.646   6.618   5.131  0.4131 -0.3638  0.3277
10199TIP3    H152088   1.667   6.531   5.162 -0.9588 -0.7674  0.2174
10199TIP3    H252089   1.596   6.603   5.050 -0.4889  0.4705  0.7038
10200TIP3   OH252090   5.024   5.176   0.232  0.5768 -0.0669  0.0782
10200TIP3    H152091   5.095   5.170   0.296  1.7120  3.0573 -0.6804
10200TIP3    H252092   4.944   5.162   0.283  1.5967 -2.6809  1.1346
10201TIP3   OH252093   3.376   1.227   5.487 -0.6993 -0.8240  0.0807
10201TIP3    H152094   3.290   1.206   5.451 -0.0593 -1.2915 -1.2609
10201TIP3    H252095   3.389   1.163   5.557 -2.0301  0.1871  1.3135
10202TIP3   OH252096   5.013   3.367  14.518  0.4015  0.0488  0.0527
10202TIP3    H152097   4.922   3.371  14.547  0.7195  0.5636  1.0085
10202TIP3    H252098   5.031   3.453  14.481  0.3154 -0.2655 -0.7479
10203TIP3   OH252099   0.167   1.596  14.792 -0.5101  0.5472  0.6854
10203TIP3    H152100   0.097   1.620  14.732 -0.2537 -0.3329  0.0027
10203TIP3    H252101   0.198   1.511  14.759  1.8591  1.5772  0.0405
10204TIP3   OH252102   1.732   1.026   0.062  0.1515 -0.1394  0.3806
10204TIP3    H152103   1.750   1.089  -0.008 -1.7438  0.5229  0.4313
10204TIP3    H252104   1.784   1.056   0.136  0.8755  0.1373 -0.2320
10205TIP3   OH252105   5.741   4.964  10.760  0.1712 -0.1572 -0.2474
10205TIP3    H152106   5.770   4.876  10.735  3.9081  0.1165  2.3521
10205TIP3    H252107   5.764   5.019  10.685 -0.3122 -1.0385 -1.0712
10206TIP3   OH252108   1.078   6.592   5.549 -0.2629  0.0917  0.1968
10206TIP3    H152109   1.002   6.620   5.499 -0.1124  0.4681  0.1699
10206TIP3    H252110   1.147   6.581   5.483  0.1639  1.3900  0.3961
10207TIP3   OH252111   0.043   0.911   4.234 -0.2628  0.0558  0.1250
10207TIP3    H152112  -0.004   0.987   4.267 -1.5319 -0.7166  0.1945
10207TIP3    H252113  -0.026   0.852   4.204  0.6334 -1.4311  0.8514
10208TIP3   OH252114   3.087   5.073   1.543  0.3629 -0.6083  0.1281
10208TIP3    H152115   3.180   5.051   1.536  0.2970 -1.4727  1.4141
10208TIP3    H252116   3.081   5.126   1.623  0.2176  2.6256 -1.8721
10209TIP3   OH252117   0.947   0.945   1.927 -0.5882 -0.1658 -0.2974
10209TIP3    H152118   1.005   0.881   1.886 -1.0035 -0.2948 -0.6889
10209TIP3    H252119   0.921   1.002   1.855 -2.1875 -1.0393 -0.4464
10210TIP3   OH252120   2.111   3.577   3.156 -0.6814 -0.2428  0.1183
10210TIP3    H152121   2.136   3.647   3.216 -2.2704  0.7154 -0.2717
10210TIP3    H252122   2.042   3.616   3.102  0.1520 -1.3134 -1.8052
10211TIP3   OH252123   2.310   2.372  13.178  0.1327 -0.2068 -0.1186
10211TIP3    H152124   2.378   2.372  13.245  0.3357  1.6111 -0.2648
10211TIP3    H252125   2.355   2.396  13.097 -0.4482 -0.4013 -0.5107
10212TIP3   OH252126   0.634   4.176   6.480 -0.2604 -0.0104 -0.0979
10212TIP3    H152127   0.568   4.244   6.466 -0.1520  0.0363 -0.3963
10212TIP3    H252128   0.594   4.097   6.444  0.2695  0.2376 -1.2750
10213TIP3   OH252129   4.691   6.032   1.189  0.2586  0.0256  0.5626
10213TIP3    H152130   4.717   6.121   1.215  1.3880 -0.4103  0.9905
10213TIP3    H252131   4.603   6.043   1.152  1.8449  1.9891 -3.1451
10214TIP3   OH252132   4.259   4.977   2.772  0.4379 -0.3228  0.0472
10214TIP3    H152133   4.354   4.990   2.780  0.5637 -2.0111  2.1617
10214TIP3    H252134   4.249   4.884   2.753 -0.8269 -0.2730  0.3735
10215TIP3   OH252135   5.880   3.509   2.076  0.0805 -0.4470  0.6686
10215TIP3    H152136   5.819   3.439   2.052  0.6709 -0.8366  0.2710
10215TIP3    H252137   5.942   3.467   2.136  0.8031 -0.4310 -0.0531
10216TIP3   OH252138   0.449   1.130  14.507 -0.3449  0.0441  0.2087
10216TIP3    H152139   0.477   1.171  14.425 -0.2654 -0.7555 -0.1702
10216TIP3    H252140   0.374   1.183  14.535 -0.7530 -0.0222 -0.6953
10217TIP3   OH252141   6.190   3.421  14.971 -0.6705  0.0145  0.1618
10217TIP3    H152142   6.198   3.421  15.066 -1.1706  1.3261  0.2199
10217TIP3    H252143   6.219   3.508  14.944 -1.9444  0.1805 -0.7521
10218TIP3   OH252144   6.043   0.417  16.152  0.1625  0.3007 -0.0181
10218TIP3    H152145   6.067   0.392  16.063  1.0080  0.7905  0.0613
10218TIP3    H252146   6.119   0.394  16.205  0.4177  1.6885  0.2746
10219TIP3   OH252147   2.990   5.846  14.117  0.5156  0.4030  0.1197
10219TIP3    H152148   3.081   5.850  14.147  0.7971 -1.4424 -0.3482
10219TIP3    H252149   2.960   5.760  14.146 -0.9642  0.8379 -0.0760
10220TIP3   OH252150   4.627   2.417   2.198  0.1614 -0.1832  0.1346
10220TIP3    H152151   4.550   2.366   2.222  1.6148 -2.2378  0.6238
10220TIP3    H252152   4.695   2.390   2.259  2.3116 -1.1875 -2.4941
10221TIP3   OH252153   3.039   0.686   1.960  0.0007  0.3473 -0.8740
10221TIP3    H152154   3.098   0.684   2.035 -0.2912 -1.9185 -0.6286
10221TIP3    H252155   3.097   0.677   1.884  0.2240  1.7859 -0.9016
10222TIP3   OH252156   2.281   3.683  11.589  0.2300 -0.0632  0.6046
10222TIP3    H152157   2.325   3.623  11.530 -0.4848 -1.4016  1.3597
10222TIP3    H252158   2.339   3.690  11.665 -0.0233 -0.4196  0.8378
10223TIP3   OH252159   3.976   3.782  15.845  0.3121 -0.0332  0.1275
10223TIP3    H152160   3.998   3.758  15.754 -1.1520  2.3266 -0.9388
10223TIP3    H252161   3.881   3.778  15.849  0.2271  1.8227  0.9398
10224TIP3   OH252162   4.261   6.238  16.470  0.1654  0.1987 -0.0020
10224TIP3    H152163   4.318   6.219  16.544 -0.5642  0.0729  0.5330
10224TIP3    H252164   4.261   6.333  16.464 -0.4428  0.2496  0.6969
10225TIP3   OH252165   2.091   1.274  11.304 -0.0179  0.0189  0.5669
10225TIP3    H152166   2.060   1.221  11.231  1.6955  0.3707 -0.4674
10225TIP3    H252167   2.090   1.215  11.379 -0.7391 -0.6784  0.0174
10226TIP3   OH252168   2.086   6.729  15.687  0.5536 -0.4191 -0.0535
10226TIP3    H152169   2.125   6.698  15.605  1.1559  0.9441 -0.3089
10226TIP3    H252170   2.143   6.694  15.756  0.7125 -0.6085 -0.2796
10227TIP3   OH252171   2.545   4.108   1.809  0.4035  0.0710 -0.4790
10227TIP3    H152172   2.479   4.148   1.753 -1.1176 -1.0426  0.4506
10227TIP3    H252173   2.570   4.176   1.871  1.2186  0.9335 -1.7063
10228TIP3   OH252174   3.059   3.997  15.400 -0.2875  0.1589 -0.5222
10228TIP3    H152175   3.044   4.056  15.326  0.9330  0.7474 -0.3186
10228TIP3    H252176   3.099   3.919  15.360 -0.6280  0.0317 -0.6161
10229TIP3   OH252177   1.877   0.255   5.865  0.2057 -0.2472 -0.1203
10229TIP3    H152178   1.930   0.205   5.927 -0.7182 -0.6961  0.3309
10229TIP3    H252179   1.813   0.192   5.832  0.3584  0.1211 -1.1563
10230TIP3   OH252180   1.525   0.558   5.578  0.0398 -0.0191  0.6133
10230TIP3    H152181   1.603   0.600   5.544 -0.2479 -0.0506 -0.1052
10230TIP3    H252182   1.471   0.541   5.501 -0.6222 -0.1045  1.0811
10231TIP3   OH252183   5.633   6.180  16.304  0.4177 -0.1762 -0.2687
10231TIP3    H152184   5.652   6.198  16.212  2.3005 -0.6419 -0.0169
10231TIP3    H252185   5.614   6.266  16.342  0.1438  0.0831 -0.9752
10232TIP3   OH252186   0.655   5.756   0.962  0.3503  0.0668 -0.3323
10232TIP3    H152187   0.589   5.823   0.976 -1.6358 -1.8382  0.0031
10232TIP3    H252188   0.723   5.799   0.909 -0.2625  2.5981  0.7917
10233TIP3   OH252189   0.144   1.578  13.072  0.3511  0.5065 -0.1180
10233TIP3    H152190   0.072   1.580  13.009  0.6729 -0.0537 -0.5173
10233TIP3    H252191   0.136   1.492  13.114 -1.0043  1.5839  1.9808
10234TIP3   OH252192   4.271   2.349  14.326 -0.4416  0.0275  0.0301
10234TIP3    H152193   4.280   2.422  14.387 -3.0502 -1.0999  1.9977
10234TIP3    H252194   4.337   2.285  14.354  0.3123  0.6974 -0.2151
10235TIP3   OH252195   0.348   1.537   5.838 -0.0182  0.4466 -0.6105
10235TIP3    H152196   0.325   1.630   5.830 -0.3082  0.3635 -0.7517
10235TIP3    H252197   0.373   1.526   5.929 -1.4901  0.3318 -0.1945
10236TIP3   OH252198   4.759   4.339  10.755 -0.5562  0.8170  0.1250
10236TIP3    H152199   4.731   4.278  10.687  2.3084  0.0785 -0.5202
10236TIP3    H252200   4.786   4.417  10.707  0.8962  0.5183  0.4046
10237TIP3   OH252201   0.390   1.466   0.928 -0.3912 -0.3348 -0.0127
10237TIP3    H152202   0.355   1.440   0.843  0.3842  0.9554 -0.7768
10237TIP3    H252203   0.459   1.529   0.906 -0.1591 -0.0025  1.5792
10238TIP3   OH252204   6.362   6.581   2.883 -0.2305  0.3082 -0.6720
10238TIP3    H152205   6.421   6.636   2.934 -0.4818  2.1342 -2.2547
10238TIP3    H252206   6.420   6.529   2.827 -0.0167 -0.6476  0.4080
10239TIP3   OH252207   3.457   3.950   3.163  0.4968  0.2445 -0.3276
10239TIP3    H152208   3.396   3.893   3.210  0.8569  0.7487  0.7727
10239TIP3    H252209   3.403   4.023   3.133  0.5527  0.7034  0.6693
10240TIP3   OH252210   5.881   5.440   1.190 -0.5508  0.4785  0.0355
10240TIP3    H152211   5.911   5.493   1.116 -0.3760  1.2103  0.6142
10240TIP3    H252212   5.805   5.486   1.224 -0.1790  0.5770  0.7711
10241TIP3   OH252213   3.282   5.723   0.577 -0.1198 -0.6839  0.0331
10241TIP3    H152214   3.204   5.688   0.619 -0.0365  0.6543  1.4095
10241TIP3    H252215   3.349   5.721   0.645 -0.2943  2.6394  0.4730
10242TIP3   OH252216   6.656   0.655  13.736  0.6754 -0.0927  0.5492
10242TIP3    H152217   6.678   0.708  13.813 -0.7670  0.3206  0.6928
10242TIP3    H252218   6.577   0.695  13.701  0.8949 -0.7367 -0.7251
10243TIP3   OH252219   3.669   3.985   3.346  0.2996 -0.1095  0.0980
10243TIP3    H152220   3.590   4.018   3.303 -0.4368 -2.0697 -0.1470
10243TIP3    H252221   3.726   3.958   3.274  0.7380  0.2818  0.2954
10244TIP3   OH252222   3.935   4.137   6.195  0.3589 -0.5335  0.5234
10244TIP3    H152223   4.029   4.126   6.180  0.0603 -0.9541 -1.1960
10244TIP3    H252224   3.916   4.225   6.162  0.3192 -0.0307  1.8423
10245TIP3   OH252225   1.505   2.951  10.698 -0.0016  0.2221  0.3685
10245TIP3    H152226   1.449   2.884  10.661 -0.3642  0.2743  0.8150
10245TIP3    H252227   1.447   3.025  10.716  0.6548  1.2601 -1.5578
10246TIP3   OH252228   2.196   4.335  15.103  0.1700  0.1788  0.0673
10246TIP3    H152229   2.123   4.302  15.155 -0.2646  0.3878 -0.3980
10246TIP3    H252230   2.275   4.305  15.149 -0.2088 -1.0012 -0.0283
10247TIP3   OH252231   3.838   3.934  14.307  0.1944  0.4561 -0.6021
10247TIP3    H152232   3.869   3.860  14.359 -1.3319 -0.1889 -0.5719
10247TIP3    H252233   3.850   4.010  14.364 -0.7533 -0.1404  0.4338
10248TIP3   OH252234   1.733   4.722   0.981  0.4765 -0.3530 -0.5765
10248TIP3    H152235   1.650   4.693   0.943 -0.4264  0.6122  0.5754
10248TIP3    H252236   1.771   4.642   1.018  0.1818 -0.8474 -1.3078
10249TIP3   OH252237   5.126   5.634  16.568  0.0043  0.4031 -0.3450
10249TIP3    H152238   5.182   5.579  16.623 -0.8531  0.0934  0.2388
10249TIP3    H252239   5.181   5.709  16.545  0.5776  0.2253  0.4186
10250TIP3   OH252240   0.023   3.191   2.932  0.0368 -0.3519 -0.2642
10250TIP3    H152241   0.018   3.185   3.027  0.6384 -0.1429 -0.2144
10250TIP3    H252242  -0.051   3.245   2.907 -0.2629 -0.6063  0.0630
10251TIP3   OH252243   6.380   2.538  15.212 -0.2121 -0.2244  0.0047
10251TIP3    H152244   6.462   2.567  15.254  0.7629 -1.0816 -1.2179
10251TIP3    H252245   6.333   2.618  15.192 -0.2724  0.2453  1.8378
10252TIP3   OH252246   6.073   1.232  10.622 -0.6479  0.0989  0.6811
10252TIP3    H152247   6.015   1.169  10.665 -0.0569 -0.8278  0.1477
10252TIP3    H252248   6.036   1.245  10.535 -1.7115  1.7990  1.3299
10253TIP3   OH252249   4.149   2.447  14.817  0.0142  0.2900 -0.0390
10253TIP3    H152250   4.242   2.468  14.817 -0.4296  2.4821 -0.4754
10253TIP3    H252251   4.120   2.464  14.907 -0.1960  0.7577 -0.1945
10254TIP3   OH252252   5.029   2.084  14.177  0.4937  0.3668  0.0472
10254TIP3    H152253   4.980   2.059  14.098  2.3206  0.4311 -1.1819
10254TIP3    H252254   5.061   2.001  14.212 -0.7448  0.2895  1.0703
10255TIP3   OH252255   6.707   2.614  12.773  0.0549 -0.5696 -0.1606
10255TIP3    H152256   6.723   2.585  12.683  1.0615 -1.7701  0.3732
10255TIP3    H252257   6.772   2.568  12.825 -0.4682  0.1533  1.1917
10256TIP3   OH252258   5.427   1.345  12.480  0.8383  0.7574  0.3751
10256TIP3    H152259   5.335   1.322  12.488  0.7959  1.1449  1.1021
10256TIP3    H252260   5.470   1.263  12.454  0.1014  0.9353 -1.5272
10257TIP3   OH252261   4.557   0.795  14.640  0.0007 -0.2787  0.2291
10257TIP3    H152262   4.520   0.827  14.723 -0.3840 -0.0897 -0.0143
10257TIP3    H252263   4.591   0.708  14.661  3.8009  1.3320  1.6851
10258TIP3   OH252264   0.481   6.449  11.302 -0.8857 -0.3966  0.4953
10258TIP3    H152265   0.419   6.492  11.362  0.2556  3.4410 -0.8352
10258TIP3    H252266   0.428   6.424  11.227 -1.3489 -0.0446  0.7003
10259TIP3   OH252267   2.700   1.618  16.902 -0.0280 -0.2886 -0.5897
10259TIP3    H152268   2.684   1.594  16.811  0.1463 -2.8223 -0.0161
10259TIP3    H252269   2.795   1.622  16.909 -0.0197 -0.7658 -0.3833
10260TIP3   OH252270   1.127   2.424  14.085 -0.2168  0.3357  0.2255
10260TIP3    H152271   1.105   2.399  14.175 -0.6416 -1.2682 -0.2827
10260TIP3    H252272   1.046   2.408  14.036 -0.0973  1.5361 -0.3830
10261TIP3   OH252273   2.364   1.741  15.544 -0.0300 -0.1662  0.0871
10261TIP3    H152274   2.357   1.699  15.458  2.7713 -2.9097  1.0017
10261TIP3    H252275   2.315   1.684  15.603 -0.2914  0.5926  0.6105
10262TIP3   OH252276   0.298   3.540  16.982 -0.1094  0.1926 -0.2533
10262TIP3    H152277   0.360   3.607  17.010 -0.2424  0.4827 -0.6402
10262TIP3    H252278   0.218   3.588  16.961 -0.9565 -0.3240  1.6194
10263TIP3   OH252279   5.773   4.494  14.126  0.3542  0.0537 -0.0106
10263TIP3    H152280   5.856   4.512  14.081  0.2050 -1.4355 -0.9401
10263TIP3    H252281   5.706   4.513  14.060 -0.1408  2.0356  0.9879
10264TIP3   OH252282   1.391   0.748  11.023  0.1153  0.3683 -0.1058
10264TIP3    H152283   1.394   0.844  11.029 -0.5654  0.3919 -0.0891
10264TIP3    H252284   1.429   0.728  10.938 -0.4335  0.7026 -0.4349
10265TIP3   OH252285   3.859   3.565  12.638  0.1125  0.1261 -0.1367
10265TIP3    H152286   3.917   3.492  12.615  0.0665 -0.3460  1.1255
10265TIP3    H252287   3.912   3.643  12.627  1.5051 -0.3654  2.2788
10266TIP3   OH252288   1.628   2.761  16.830 -0.7001  0.0313 -0.2055
10266TIP3    H152289   1.600   2.802  16.748  0.0431  2.0064  0.4716
10266TIP3    H252290   1.651   2.834  16.887  2.1392 -1.3052  0.5695
10267TIP3   OH252291   5.433   1.355   3.849  0.1067  0.6259  0.3550
10267TIP3    H152292   5.341   1.375   3.859  0.0540  1.3153 -1.1628
10267TIP3    H252293   5.434   1.268   3.807  0.2346 -0.5208  2.6054
10268TIP3   OH252294   3.023   3.283   0.489  0.6107  0.5036  0.3595
10268TIP3    H152295   3.031   3.376   0.509 -0.6216  0.7367 -0.1604
10268TIP3    H252296   3.108   3.259   0.452  0.5824  1.6928 -0.5414
10269TIP3   OH252297   6.364   5.189   4.190  0.3966  0.3171  0.0204
10269TIP3    H152298   6.330   5.126   4.127  2.1022 -1.4296  0.7638
10269TIP3    H252299   6.307   5.266   4.180 -0.8347 -0.7717 -1.9402
10270TIP3   OH252300   4.946   1.010   5.335 -0.2474  0.4200 -0.8547
10270TIP3    H152301   4.970   1.064   5.410  2.8983 -1.3100 -0.4239
10270TIP3    H252302   4.878   0.951   5.368 -0.0253  0.7165  0.1573
10271TIP3   OH252303   2.139   4.646   5.676  0.0335  0.2301 -0.0553
10271TIP3    H152304   2.139   4.683   5.764 -1.7935  2.4374 -0.9022
10271TIP3    H252305   2.083   4.569   5.683  1.1697 -0.5458  1.0080
10272TIP3   OH252306   4.201   2.336  12.189 -0.0782  0.3956  0.2377
10272TIP3    H152307   4.261   2.331  12.115  0.1522 -1.2201  0.5036
10272TIP3    H252308   4.256   2.326  12.266 -0.3629  1.7221  0.6368
10273TIP3   OH252309   6.497   3.773   4.853 -0.0878  0.0954 -0.0803
10273TIP3    H152310   6.532   3.804   4.937 -0.3541 -0.9169  0.4292
10273TIP3    H252311   6.568   3.785   4.791  0.8936 -1.1094  0.7496
10274TIP3   OH252312   4.515   3.803   4.048  0.5799  0.2993  0.5609
10274TIP3    H152313   4.428   3.815   4.010 -0.2820 -1.6990  1.7140
10274TIP3    H252314   4.530   3.882   4.100 -1.2124  0.0806  1.4843
10275TIP3   OH252315   2.669   1.269  15.036  0.3099 -0.7638  0.2218
10275TIP3    H152316   2.647   1.322  15.113  0.1563  0.6342 -0.7647
10275TIP3    H252317   2.603   1.199  15.035 -1.7410  1.0946 -0.4782
10276TIP3   OH252318   0.288   3.287   1.372  0.3511  0.5720  0.1817
10276TIP3    H152319   0.337   3.292   1.290 -1.4617 -1.6420 -1.1675
10276TIP3    H252320   0.196   3.284   1.345 -0.2882 -0.7924  2.2406
10277TIP3   OH252321   0.910   4.351   5.954 -0.2104  0.0812 -0.3813
10277TIP3    H152322   0.930   4.442   5.976  0.5489 -0.0953 -0.3339
10277TIP3    H252323   0.879   4.355   5.863  2.2392  0.0888 -1.2824
10278TIP3   OH252324   0.779   6.225   0.730  0.0152 -0.0386 -0.0185
10278TIP3    H152325   0.764   6.136   0.697  1.4668 -2.1391  4.3058
10278TIP3    H252326   0.714   6.236   0.799  1.4734  1.2450  1.2022
10279TIP3   OH252327   5.814   3.774  14.029  0.0725  0.7009  0.3176
10279TIP3    H152328   5.756   3.700  14.045  1.4834 -0.0149  2.4762
10279TIP3    H252329   5.795   3.800  13.938 -0.9897 -1.8011 -0.2544
10280TIP3   OH252330   5.050   4.487   0.771  0.3732 -0.3505 -0.1048
10280TIP3    H152331   5.037   4.429   0.846 -1.9055  2.0166  1.4956
10280TIP3    H252332   4.997   4.449   0.702 -0.8544 -0.3808  0.8226
10281TIP3   OH252333   6.717   6.693   0.359  0.4591  0.0148 -0.0547
10281TIP3    H152334   6.668   6.765   0.399 -2.1824 -1.3429 -0.6150
10281TIP3    H252335   6.685   6.690   0.269  1.5227 -1.0225 -0.4233
10282TIP3   OH252336   1.252   0.982  16.303  0.1564 -0.0575  0.4385
10282TIP3    H152337   1.192   1.037  16.354  1.2468  2.5311 -0.9255
10282TIP3    H252338   1.254   1.022  16.216  2.3197 -1.2673 -0.1362
10283TIP3   OH252339   5.258   1.216  14.767  0.0149  0.1833 -0.3562
10283TIP3    H152340   5.204   1.151  14.812  1.1925 -0.8216 -0.3406
10283TIP3    H252341   5.213   1.299  14.782 -0.6559 -0.3993  1.0138
10284TIP3   OH252342   1.873   0.514  15.339 -0.9400  0.0655 -0.2725
10284TIP3    H152343   1.811   0.471  15.281 -0.3198 -0.6161 -0.4394
10284TIP3    H252344   1.911   0.444  15.391  2.3146 -0.1490 -2.6068
10285TIP3   OH252345   3.587   6.439   4.426  0.6047 -0.1645 -0.1106
10285TIP3    H152346   3.658   6.413   4.368  0.6079 -2.1487  0.6905
10285TIP3    H252347   3.507   6.412   4.381  0.3769  1.2659 -0.6158
10286TIP3   OH252348   5.631   2.917   5.275 -0.5328 -0.1065 -0.1763
10286TIP3    H152349   5.556   2.912   5.216 -2.5752 -1.0901  2.3125
10286TIP3    H252350   5.637   3.010   5.300  0.3644  0.3191 -1.8305
10287TIP3   OH252351   3.895   6.756  14.151  0.4412  0.2768  0.2472
10287TIP3    H152352   3.973   6.789  14.197  2.3926 -1.9659 -1.1692
10287TIP3    H252353   3.924   6.672  14.114 -2.6784 -0.6057 -0.4320
10288TIP3   OH252354   5.327   4.735  13.264 -0.0919 -0.0996 -0.4847
10288TIP3    H152355   5.255   4.708  13.321  0.0123 -0.7875 -0.6722
10288TIP3    H252356   5.321   4.830  13.262 -0.2939 -0.0819  0.4214
10289TIP3   OH252357   0.817   4.350   5.689 -0.0926 -0.0572  0.0945
10289TIP3    H152358   0.899   4.351   5.640  0.2832  3.6343  0.4800
10289TIP3    H252359   0.750   4.367   5.624  0.0318  1.4515  0.3166
10290TIP3   OH252360   0.188   2.003  14.213 -0.1838  0.6012  0.2241
10290TIP3    H152361   0.225   2.092  14.215  1.4085 -0.0273  0.3029
10290TIP3    H252362   0.246   1.955  14.154 -0.4492 -0.6347  0.9435
10291TIP3   OH252363   3.147   3.830  17.091 -0.1577 -0.3724 -0.4856
10291TIP3    H152364   3.153   3.735  17.094 -2.6325 -0.6725 -1.9251
10291TIP3    H252365   3.070   3.847  17.037  0.4544  2.4700 -0.6197
10292TIP3   OH252366   2.387   1.224  11.869  0.1749  1.1114 -0.3723
10292TIP3    H152367   2.477   1.196  11.855 -0.0200  0.6393 -0.7066
10292TIP3    H252368   2.391   1.278  11.948  0.6453  0.5745 -0.0238
10293TIP3   OH252369   5.767   2.551  15.149  0.3878 -0.3182 -0.1029
10293TIP3    H152370   5.709   2.624  15.126 -0.1791  0.0242  2.1506
10293TIP3    H252371   5.739   2.526  15.237  1.8916 -1.9656 -0.0511
10294TIP3   OH252372   3.822   3.227  13.848 -0.0380 -0.1655 -0.6428
10294TIP3    H152373   3.839   3.133  13.848 -2.3384 -0.6452 -1.0803
10294TIP3    H252374   3.727   3.234  13.837 -0.2453  2.1620  1.6189
10295TIP3   OH252375   6.543   5.430   3.092 -0.4814 -0.1434  0.1228
10295TIP3    H152376   6.526   5.416   3.185 -3.1045 -1.6413 -0.4741
10295TIP3    H252377   6.572   5.345   3.059 -0.5563  0.1084 -0.6125
10296TIP3   OH252378   0.150   2.332  16.708  0.6778 -0.4151 -0.3866
10296TIP3    H152379   0.091   2.341  16.634  0.5520  0.1450 -0.2180
10296TIP3    H252380   0.238   2.334  16.669  0.5979 -1.9104 -0.7117
10297TIP3   OH252381   1.952   2.848  10.973 -0.4646  0.1431 -0.3720
10297TIP3    H152382   1.903   2.846  10.891 -0.4627 -1.3366 -0.3676
10297TIP3    H252383   1.995   2.933  10.973 -0.5113  0.1964 -1.8861
10298TIP3   OH252384   3.179   2.809   4.593 -0.1033  0.0012  0.0315
10298TIP3    H152385   3.192   2.862   4.672  0.4707 -0.7707  0.4619
10298TIP3    H252386   3.218   2.724   4.614 -1.0392 -0.6164 -0.6329
10299TIP3   OH252387   3.992   1.246   3.680 -0.0438  0.5924 -0.3655
10299TIP3    H152388   4.086   1.258   3.687  0.0531 -0.8061  1.8071
10299TIP3    H252389   3.977   1.219   3.590  1.7552  0.0140 -0.5209
10300TIP3   OH252390   5.298   5.909   2.213 -0.5764 -0.0092 -0.1940
10300TIP3    H152391   5.392   5.901   2.198  0.0266 -0.8572  3.0599
10300TIP3    H252392   5.287   5.996   2.252 -0.7600 -0.6740  1.3081
10301TIP3   OH252393   2.659   2.517   0.822  0.5501 -0.3580  0.5693
10301TIP3    H152394   2.597   2.551   0.886  2.0158  0.5275  1.5788
10301TIP3    H252395   2.727   2.475   0.874  0.7141 -1.4991 -0.5193
10302TIP3   OH252396   0.755   4.767   0.576 -0.0523 -0.5867 -0.4039
10302TIP3    H152397   0.747   4.745   0.669 -0.4924  0.4978 -0.1603
10302TIP3    H252398   0.685   4.717   0.534 -0.0304 -0.8741 -0.1019
10303TIP3   OH252399   1.886   4.403  12.092 -0.2359 -0.0124  0.1701
10303TIP3    H152400   1.830   4.341  12.138  1.5491 -0.9903  1.1350
10303TIP3    H252401   1.904   4.361  12.007  0.9477 -0.8614  0.8106
10304TIP3   OH252402   1.561   3.655  14.815  0.7751 -0.1317  0.2450
10304TIP3    H152403   1.564   3.700  14.900  1.8308  0.2800  0.0115
10304TIP3    H252404   1.514   3.574  14.833  1.9754 -0.6004  1.5126
10305TIP3   OH252405   2.889   2.336  11.893 -0.0726  0.3224 -0.2600
10305TIP3    H152406   2.880   2.249  11.855  0.2791  0.4642 -0.6820
10305TIP3    H252407   2.983   2.345  11.911 -0.5771 -1.6564  5.3227
10306TIP3   OH252408   4.583   5.267   1.431  0.4347 -0.1868  0.3575
10306TIP3    H152409   4.584   5.244   1.338 -0.2127  1.5950 -0.1328
10306TIP3    H252410   4.668   5.237   1.464  1.0948  0.0455 -1.0462
10307TIP3   OH252411   4.749   5.562   1.514  0.0213 -0.3497 -0.4970
10307TIP3    H152412   4.793   5.533   1.434  1.3538 -0.0548  0.0920
10307TIP3    H252413   4.809   5.625   1.553  0.2763 -1.7891  1.6593
10308TIP3   OH252414   5.730   5.990  11.914  0.3218 -0.0427  0.4141
10308TIP3    H152415   5.743   6.065  11.857 -0.9053 -0.5048 -0.5120
10308TIP3    H252416   5.812   5.941  11.908  0.9791  0.9926  0.7107
10309TIP3   OH252417   4.047   0.640   2.606  0.1872 -0.0545  0.3703
10309TIP3    H152418   4.086   0.555   2.628 -0.4919  0.0136  2.0132
10309TIP3    H252419   3.995   0.623   2.528 -0.3597 -1.2992  0.9646
10310TIP3   OH252420   1.683   4.124  12.227 -0.4452 -0.2745  0.1965
10310TIP3    H152421   1.694   4.169  12.143 -0.9048 -0.3481  0.0963
10310TIP3    H252422   1.746   4.166  12.285 -0.7226  0.3614  0.0476
10311TIP3   OH252423   0.484   6.411   2.185  0.2641  0.1165 -0.3000
10311TIP3    H152424   0.560   6.362   2.153  0.2774 -0.1258  0.0931
10311TIP3    H252425   0.478   6.487   2.127 -0.0029 -0.5538 -1.1897
10312TIP3   OH252426   3.885   2.382  11.708 -0.3473  0.6336  0.9146
10312TIP3    H152427   3.870   2.372  11.614  1.2258  0.8706  0.6177
10312TIP3    H252428   3.889   2.292  11.741 -1.0251  0.5503  0.7969
10313TIP3   OH252429   3.453   6.291   1.559 -0.4750 -0.0270 -0.3309
10313TIP3    H152430   3.390   6.259   1.494  1.3410  0.5833 -2.5334
10313TIP3    H252431   3.471   6.215   1.614  0.1214 -1.4937 -2.4145
10314TIP3   OH252432   1.088   0.017   6.313 -0.6571  0.2197 -0.0241
10314TIP3    H152433   1.036   0.079   6.365  1.2934 -0.2330  2.6652
10314TIP3    H252434   1.132   0.072   6.248 -0.0573  1.5340  1.4072
10315TIP3   OH252435   1.399   2.985   6.232 -0.2367  0.0598  0.7015
10315TIP3    H152436   1.353   3.069   6.228 -1.0845 -0.4358 -0.8613
10315TIP3    H252437   1.480   3.005   6.278  0.3751  2.1485 -1.0919
10316TIP3   OH252438   4.498   0.915   2.547 -0.2024  0.8523  0.0507
10316TIP3    H152439   4.565   0.939   2.610 -0.1431  0.3554  0.1849
10316TIP3    H252440   4.532   0.835   2.505 -1.0353  0.1639  0.6494
10317TIP3   OH252441   5.217   4.908  13.545  0.0691 -0.0836 -0.2152
10317TIP3    H152442   5.260   4.985  13.510 -1.0180  0.6136 -0.0871
10317TIP3    H252443   5.210   4.925  13.639  0.5245 -0.6954 -0.0664
10318TIP3   OH252444   0.969   1.354  11.177 -0.0162 -0.2297 -0.2512
10318TIP3    H152445   0.909   1.330  11.106  0.4954  0.0013 -0.7661
10318TIP3    H252446   0.912   1.372  11.252 -0.5010 -1.8335 -0.1912
10319TIP3   OH252447   5.588   1.943   4.656 -0.0187 -0.2098  0.4291
10319TIP3    H152448   5.519   1.975   4.714 -0.2038  0.3116 -0.0681
10319TIP3    H252449   5.603   2.015   4.595  0.4409 -0.6065  0.0701
10320TIP3   OH252450   0.692   5.663   1.357  0.0303  0.3179 -0.1395
10320TIP3    H152451   0.643   5.650   1.276 -1.4276 -1.7308  0.9755
10320TIP3    H252452   0.686   5.579   1.402 -0.8578  1.9040  2.9700
10321TIP3   OH252453   1.661   3.047   6.332 -0.5620 -0.1782 -0.4437
10321TIP3    H152454   1.662   3.140   6.356 -2.9714 -0.1877 -0.1495
10321TIP3    H252455   1.713   3.005   6.400  0.6529  0.9222 -0.6335
10322TIP3   OH252456   6.348   3.016   1.007  0.9121 -0.2560 -0.2421
10322TIP3    H152457   6.283   3.087   1.014  0.6404 -0.4557 -0.6802
10322TIP3    H252458   6.304   2.949   0.955  1.1920 -0.7237  0.1200
10323TIP3   OH252459   1.185   1.807  13.438 -0.7286  0.1724  0.2171
10323TIP3    H152460   1.177   1.878  13.501 -1.8066  0.3665 -0.1042
10323TIP3    H252461   1.260   1.756  13.468  0.4537  1.7630  0.1256
10324TIP3   OH252462   1.757   0.230  16.207 -0.1821  0.0871 -0.1366
10324TIP3    H152463   1.676   0.279  16.224 -2.3564 -3.1705 -0.1639
10324TIP3    H252464   1.786   0.259  16.121 -1.1975  1.5035 -0.0306
10325TIP3   OH252465   2.818   2.062  15.282 -0.1998 -0.0086 -0.4125
10325TIP3    H152466   2.745   2.001  15.272  1.0565 -1.6363 -0.1409
10325TIP3    H252467   2.852   2.073  15.193 -1.5486  1.8576 -0.7691
10326TIP3   OH252468   1.128   0.652   2.629  0.4767  0.2148 -0.2800
10326TIP3    H152469   1.144   0.558   2.616  0.2756  0.1352  0.0214
10326TIP3    H252470   1.172   0.672   2.711  2.0330  0.7859 -1.2078
10327TIP3   OH252471   4.318   5.632   2.323  0.1524 -0.0850 -0.2903
10327TIP3    H152472   4.328   5.576   2.246 -2.0881 -0.5125 -0.3236
10327TIP3    H252473   4.278   5.575   2.389 -0.9159  1.1092  0.1227
10328TIP3   OH252474   0.270   6.631  11.434  0.4874 -0.0410  0.5016
10328TIP3    H152475   0.184   6.634  11.393  1.2452  2.4921 -1.1286
10328TIP3    H252476   0.331   6.659  11.365  2.2579  1.0021  2.3624
10329TIP3   OH252477   5.689   0.328   0.451 -0.3851  0.4329 -0.3858
10329TIP3    H152478   5.766   0.378   0.424 -0.6146  0.6957 -0.5611
10329TIP3    H252479   5.651   0.378   0.523 -1.6402  1.4920 -1.7315
10330TIP3   OH252480   0.416   3.813   3.265 -0.1587 -0.3521  0.1890
10330TIP3    H152481   0.357   3.882   3.295  1.1062  1.1352 -0.5976
10330TIP3    H252482   0.501   3.856   3.258  0.8538 -2.2181  0.4722
10331TIP3   OH252483   2.052   1.047   0.553  0.3703  0.2605  0.4424
10331TIP3    H152484   1.983   1.028   0.489  1.3507  1.9941 -1.2195
10331TIP3    H252485   2.121   0.984   0.534  0.6721  0.7914 -0.2644
10332TIP3   OH252486   1.356   4.954  15.095  0.3942 -0.2036  0.0735
10332TIP3    H152487   1.335   4.997  15.178 -0.0936 -0.7293  0.2272
10332TIP3    H252488   1.451   4.952  15.092  0.4723  1.6966 -0.3461
10333TIP3   OH252489   2.149   4.739   3.052  0.3139 -0.0876  0.0519
10333TIP3    H152490   2.095   4.672   3.009  0.9343 -1.2674  1.0307
10333TIP3    H252491   2.092   4.815   3.059 -0.5762 -0.6628 -0.6632
10334TIP3   OH252492   2.286   4.297   6.051 -0.7265 -0.5628  0.1959
10334TIP3    H152493   2.289   4.314   5.957 -1.1541 -0.5679  0.1805
10334TIP3    H252494   2.196   4.318   6.076 -1.5009 -3.3904  0.0567
10335TIP3   OH252495   0.950   1.076   5.702  0.1067 -0.8884 -0.0082
10335TIP3    H152496   1.018   1.054   5.639  0.7014  1.4024 -0.2839
10335TIP3    H252497   0.868   1.066   5.653  0.4833 -0.3257 -0.7853
10336TIP3   OH252498   3.366   6.405   0.469  0.0233 -0.3747 -0.1997
10336TIP3    H152499   3.385   6.325   0.516  0.2832 -0.1936  0.0088
10336TIP3    H252500   3.277   6.394   0.436  0.1882 -0.8908 -0.4732
10337TIP3   OH252501   3.055   3.548  16.434 -0.6321  0.3644 -0.0791
10337TIP3    H152502   3.149   3.563  16.445 -0.5985 -1.0004  1.8810
10337TIP3    H252503   3.017   3.636  16.430  0.4633  0.9843  1.9102
10338TIP3   OH252504   3.431   2.988   1.753  0.3439 -0.6777 -0.0564
10338TIP3    H152505   3.454   2.998   1.845  0.0078 -0.7087  0.0342
10338TIP3    H252506   3.499   2.931   1.717  0.1160 -1.1991  0.3284
10339TIP3   OH252507   2.246   5.941   4.232  0.2787 -0.0288  0.2520
10339TIP3    H152508   2.237   5.954   4.327  1.1653  0.6822  0.2522
10339TIP3    H252509   2.217   5.851   4.218  0.9033 -0.4170  1.3259
10340TIP3   OH252510   2.731   1.045   2.431  0.2179  0.2341  0.2514
10340TIP3    H152511   2.708   1.020   2.341  0.6344  1.0169 -0.0782
10340TIP3    H252512   2.765   0.964   2.470  1.3222  0.2058 -0.7216
10341TIP3   OH252513   4.486   6.104   2.886  0.1308 -0.8533  0.1939
10341TIP3    H152514   4.507   6.042   2.816  0.4837  0.9250 -1.3650
10341TIP3    H252515   4.392   6.091   2.902  0.0587 -1.3489 -0.5831
10342TIP3   OH252516   1.938   0.027   0.201 -0.0359  0.2161 -0.5709
10342TIP3    H152517   1.874   0.000   0.267  1.3289 -0.0546  0.7180
10342TIP3    H252518   2.021  -0.010   0.232  0.5518 -0.4907 -2.8183
10343TIP3   OH252519   2.212   4.256  16.907 -0.1277 -0.0051  0.0212
10343TIP3    H152520   2.208   4.210  16.823  0.3036 -0.8854  0.4721
10343TIP3    H252521   2.124   4.294  16.917 -1.4903 -3.0327  0.8750
10344TIP3   OH252522   1.515   6.252  13.341 -0.2161 -0.1678  0.0959
10344TIP3    H152523   1.572   6.220  13.410  1.9317 -0.9293 -1.9254
10344TIP3    H252524   1.487   6.173  13.294  0.0055  0.4631 -1.1225
10345TIP3   OH252525   5.442   1.541   6.442 -0.2930 -0.3982  0.2293
10345TIP3    H152526   5.355   1.580   6.449 -0.3182 -0.1032 -1.4464
10345TIP3    H252527   5.499   1.603   6.488 -0.6673  0.4975 -0.4810
10346TIP3   OH252528   2.996   3.314   3.246  0.1521  0.5857 -0.1720
10346TIP3    H152529   3.071   3.312   3.186 -0.1876  0.0367 -0.5906
10346TIP3    H252530   2.936   3.377   3.208 -0.7604 -0.9015 -1.2898
10347TIP3   OH252531   2.646   1.755  12.713 -0.3659  0.0439 -0.8895
10347TIP3    H152532   2.567   1.726  12.667 -2.6204  1.2609  1.9159
10347TIP3    H252533   2.653   1.848  12.691  0.0972  0.0210 -0.8382
10348TIP3   OH252534   3.192   3.683   1.691 -0.0324  0.4801 -0.0699
10348TIP3    H152535   3.182   3.651   1.781 -0.3234  2.3597  0.6184
10348TIP3    H252536   3.108   3.665   1.649  0.6153 -1.8432 -0.5084
10349TIP3   OH252537   2.946   4.259   2.454  0.1674  0.3113  0.4848
10349TIP3    H152538   2.914   4.176   2.420 -1.1896  1.1001 -0.2935
10349TIP3    H252539   3.014   4.286   2.391 -0.5643  0.5585 -0.2248
10350TIP3   OH252540   3.571   3.316   0.440  0.4843  0.0018 -0.2470
10350TIP3    H152541   3.655   3.347   0.404  1.1060 -0.7713  0.4856
10350TIP3    H252542   3.595   3.243   0.496 -0.7837 -0.7664 -0.6682
10351TIP3   OH252543   4.677   2.216   0.453 -0.6873  0.1750 -0.0579
10351TIP3    H152544   4.708   2.302   0.484  0.4252  0.2142 -1.1778
10351TIP3    H252545   4.755   2.175   0.416 -1.2438 -1.2642  0.2857
10352TIP3   OH252546   0.235   3.594  14.617  0.5068  0.0580 -0.2886
10352TIP3    H152547   0.319   3.548  14.624 -0.2690 -1.1871  2.7459
10352TIP3    H252548   0.170   3.524  14.615 -0.5351  1.0228 -1.6363
10353TIP3   OH252549   4.676   2.047   0.169 -0.0161  0.7724  0.8589
10353TIP3    H152550   4.594   2.040   0.216 -0.0191  0.8387  0.8637
10353TIP3    H252551   4.651   2.066   0.078 -0.1451 -2.0204  0.2067
10354TIP3   OH252552   0.366   1.342  17.225  0.2751  0.4827  0.5737
10354TIP3    H152553   0.297   1.372  17.165 -0.4614 -1.0294  0.6142
10354TIP3    H252554   0.367   1.247  17.215  1.6020  0.3829  1.4140
10355TIP3   OH252555   1.840   3.344   2.718 -0.1231 -0.3105 -0.1662
10355TIP3    H152556   1.766   3.386   2.762  0.5755 -0.2050  0.9345
10355TIP3    H252557   1.886   3.417   2.675 -0.2268 -0.2741 -0.2176
10356TIP3   OH252558   4.107   2.680  14.009  0.3355 -0.2965 -0.0222
10356TIP3    H152559   4.145   2.761  13.976  0.9649 -1.1875 -1.5895
10356TIP3    H252560   4.172   2.613  13.990  0.3170 -1.0631  2.2265
10357TIP3   OH252561   3.834   3.215   2.292  0.5758  0.4856  0.1133
10357TIP3    H152562   3.882   3.214   2.374 -0.8862 -0.5870  0.9991
10357TIP3    H252563   3.785   3.297   2.293  1.3272  0.9444 -0.1701
10358TIP3   OH252564   0.965   3.268  15.242 -0.2340 -0.0566 -0.2816
10358TIP3    H152565   1.032   3.290  15.177 -0.5003 -1.0887 -0.9136
10358TIP3    H252566   0.959   3.173  15.240 -2.6166  0.0459 -1.1753
10359TIP3   OH252567   1.791   3.241   1.360  0.4802  0.1594  0.1234
10359TIP3    H152568   1.782   3.336   1.357 -2.2277 -0.0301 -0.4818
10359TIP3    H252569   1.770   3.218   1.451 -0.6728  0.0384 -0.1622
10360TIP3   OH252570   6.305   2.403   3.752  0.4709  0.2697  0.0215
10360TIP3    H152571   6.311   2.435   3.662  2.4466 -0.8251 -0.2955
10360TIP3    H252572   6.211   2.403   3.771  0.1426  2.7005 -1.1942
10361TIP3   OH252573   2.793   2.126   1.818  0.9645  0.2736  0.2541
10361TIP3    H152574   2.747   2.092   1.741  0.5744  0.3326  0.4573
10361TIP3    H252575   2.859   2.186   1.782 -0.1073  1.3590  0.0198
10362TIP3   OH252576   1.959   2.391  12.533  0.2632 -0.0274  0.7774
10362TIP3    H152577   1.868   2.374  12.558  0.0746 -0.9430 -0.4456
10362TIP3    H252578   1.971   2.485  12.547 -1.2599  0.3438 -0.1901
10363TIP3   OH252579   2.424   2.856  11.875  0.1400  0.1906 -0.0475
10363TIP3    H152580   2.474   2.901  11.943 -1.9537  2.3266  0.1931
10363TIP3    H252581   2.442   2.763  11.889  2.0682  0.7454  1.5265
10364TIP3   OH252582   3.683   6.740   0.729 -0.6938 -0.5393  0.0086
10364TIP3    H152583   3.716   6.826   0.756  0.3336 -0.4558 -1.4257
10364TIP3    H252584   3.686   6.688   0.810 -0.4496  0.5040  0.6999
10365TIP3   OH252585   3.341   2.833  15.966  0.2226 -0.7565 -0.7496
10365TIP3    H152586   3.433   2.845  15.946 -0.0446  1.0046 -1.1537
10365TIP3    H252587   3.301   2.918  15.944 -1.0284 -0.5279  2.0375
10366TIP3   OH252588   2.753   5.178  15.562 -0.3992 -0.0018  0.5419
10366TIP3    H152589   2.801   5.163  15.644  0.1068  1.8233  0.6212
10366TIP3    H252590   2.805   5.132  15.496  0.7859  0.8602  0.8299
10367TIP3   OH252591   5.707   1.861  16.878 -0.0388 -0.0152 -0.0501
10367TIP3    H152592   5.709   1.839  16.971  1.9053 -1.5387 -0.3835
10367TIP3    H252593   5.613   1.865  16.857 -0.5493  1.5370  2.1723
10368TIP3   OH252594   6.479   0.455  14.304 -0.4001  0.1780  0.0151
10368TIP3    H152595   6.516   0.488  14.222 -0.7348  0.9570  0.1748
10368TIP3    H252596   6.509   0.364  14.308 -0.0635  0.2436 -0.7806
10369TIP3   OH252597   6.253   1.479   3.450 -0.5344  0.0476  0.1936
10369TIP3    H152598   6.170   1.432   3.459 -1.1932  1.5181  2.8821
10369TIP3    H252599   6.313   1.433   3.508 -0.5021  1.0435  0.9748
10370TIP3   OH252600   3.649   5.677   6.550  0.0727  0.5636 -0.1920
10370TIP3    H152601   3.603   5.655   6.631  0.1074  1.9974  0.2450
10370TIP3    H252602   3.589   5.735   6.503  0.2074  0.0400 -1.0303
10371TIP3   OH252603   1.648   0.941  16.482  0.5443 -0.1574  0.4870
10371TIP3    H152604   1.724   0.939  16.540  1.0290 -2.0024 -0.1506
10371TIP3    H252605   1.586   0.879  16.520 -0.3884  0.8301  0.6303
10372TIP3   OH252606   5.749   3.263   2.015  0.5285 -0.3596  0.3235
10372TIP3    H152607   5.786   3.175   2.010 -1.5485 -1.2747  0.0696
10372TIP3    H252608   5.670   3.253   2.067  0.3295  1.4081  0.4196
10373TIP3   OH252609   5.971   2.736   6.406  0.1873 -0.0235  0.9558
10373TIP3    H152610   6.017   2.687   6.338  0.5278  1.7365 -0.1160
10373TIP3    H252611   5.878   2.723   6.386  0.1881 -1.8461  1.8921
10374TIP3   OH252612   2.899   2.072   2.354 -0.3267  0.0819 -0.0698
10374TIP3    H152613   2.858   1.987   2.337 -2.0032  0.9531 -0.6349
10374TIP3    H252614   2.882   2.123   2.275 -0.8454  1.4704  0.8958
10375TIP3   OH252615   5.337   2.049   4.810  0.5894  0.2291  0.1350
10375TIP3    H152616   5.269   1.986   4.835  0.8540 -0.2718 -0.3798
10375TIP3    H252617   5.289   2.130   4.792 -0.1573 -0.6175 -2.1373
10376TIP3   OH252618   4.307   5.683  10.609  0.1603 -0.3448 -0.1722
10376TIP3    H152619   4.246   5.609  10.610  1.0212 -1.0794  0.7891
10376TIP3    H252620   4.253   5.760  10.626 -0.8110 -0.6854 -1.5702
10377TIP3   OH252621   5.551   4.174   1.513 -0.4048  0.1192 -0.4479
10377TIP3    H152622   5.500   4.254   1.497 -1.8855 -0.4738  1.0236
10377TIP3    H252623   5.638   4.205   1.538 -0.5830  1.2175 -1.0994
10378TIP3   OH252624   4.596   2.954  14.604  0.1445  0.2258 -0.1214
10378TIP3    H152625   4.691   2.964  14.598  0.0108  1.4496 -0.3212
10378TIP3    H252626   4.562   3.043  14.599 -0.9554 -0.0773  1.2398
10379TIP3   OH252627   5.049   1.095   3.496  0.1516  0.3938  0.5292
10379TIP3    H152628   5.141   1.104   3.521  0.6465 -0.9588 -0.6445
10379TIP3    H252629   5.006   1.064   3.575  1.2524 -1.6137  0.4120
10380TIP3   OH252630   1.200   5.882  15.357 -0.8023  0.3636  0.2625
10380TIP3    H152631   1.216   5.941  15.431  0.9913 -1.1812  1.1589
10380TIP3    H252632   1.217   5.795  15.391 -2.4584 -0.6397 -1.3090
10381TIP3   OH252633   1.627   1.336  14.980 -0.0362 -0.4334 -0.0781
10381TIP3    H152634   1.545   1.369  15.017 -1.0139 -0.4886 -2.0695
10381TIP3    H252635   1.684   1.413  14.976 -1.0925  0.3413 -1.4544
10382TIP3   OH252636   6.638   2.220  14.149  0.3536  0.7492  0.5205
10382TIP3    H152637   6.683   2.302  14.128  0.0589  0.9190  0.5460
10382TIP3    H252638   6.685   2.186  14.225  0.8714  0.5740  0.1298
10383TIP3   OH252639   3.912   6.574  15.529  0.0003  0.2360 -0.2596
10383TIP3    H152640   3.956   6.548  15.610  1.0472  1.0858 -0.5352
10383TIP3    H252641   3.974   6.634  15.486 -0.1495 -0.8489 -2.1020
10384TIP3   OH252642   5.894   2.150  13.566 -0.4476 -0.4123 -0.0528
10384TIP3    H152643   5.895   2.062  13.605 -0.7513 -0.7582 -0.8233
10384TIP3    H252644   5.843   2.141  13.486  1.5419 -0.0804 -1.4372
10385TIP3   OH252645   5.469   4.721   1.604  0.0555 -0.0830 -0.2193
10385TIP3    H152646   5.480   4.756   1.693 -0.8628  1.7469 -0.7882
10385TIP3    H252647   5.553   4.738   1.562 -0.6616  2.4942 -0.7839
10386TIP3   OH252648   4.793   1.178   6.317 -0.2910 -0.3309 -0.2743
10386TIP3    H152649   4.756   1.107   6.369 -0.3016  0.2305  0.5128
10386TIP3    H252650   4.831   1.238   6.382  1.6460 -0.6689 -1.0082
10387TIP3   OH252651   5.134   2.513  13.078  0.5193  0.1852 -0.3128
10387TIP3    H152652   5.119   2.604  13.052  0.9980  0.6531  1.0037
10387TIP3    H252653   5.214   2.488  13.031  1.6127  1.1574  0.9539
10388TIP3   OH252654   1.348   0.046  16.935  0.4406  0.1508 -0.0563
10388TIP3    H152655   1.257   0.037  16.908  0.9764 -2.8870 -1.3030
10388TIP3    H252656   1.350   0.008  17.023  0.5833 -0.3200 -0.2610
10389TIP3   OH252657   5.378   1.005  12.630 -0.1423  0.2035  0.0332
10389TIP3    H152658   5.376   0.909  12.632  2.3580  0.0828  0.8014
10389TIP3    H252659   5.424   1.027  12.549 -1.3029  0.8267 -0.4905
10390TIP3   OH252660   2.008   4.443  16.061 -0.8177 -0.5545 -0.3647
10390TIP3    H152661   2.024   4.535  16.039 -1.1033 -0.7027 -1.2250
10390TIP3    H252662   2.095   4.405  16.066 -0.7215 -0.3753 -0.6293
10391TIP3   OH252663   2.527   3.892  13.939 -0.3772 -0.3358 -0.5978
10391TIP3    H152664   2.494   3.803  13.932  0.9662 -0.8224 -1.2680
10391TIP3    H252665   2.459   3.941  13.986 -0.6183 -1.9817  0.8494
10392TIP3   OH252666   5.731   3.752   2.552  0.6188 -0.3570  0.1601
10392TIP3    H152667   5.644   3.720   2.575  0.1813  2.0252  2.2055
10392TIP3    H252668   5.790   3.681   2.578 -0.5492 -1.0350  1.0473
10393TIP3   OH252669   4.703   2.641   2.616  0.0257  0.1000  0.3348
10393TIP3    H152670   4.788   2.685   2.617  0.9797 -1.6581  0.0506
10393TIP3    H252671   4.723   2.550   2.596 -1.7064 -0.8859  2.6863
10394TIP3   OH252672   6.072   3.751   2.516  0.4925  0.5809 -0.5124
10394TIP3    H152673   6.027   3.802   2.449 -1.2105  0.3248  0.3863
10394TIP3    H252674   6.006   3.689   2.547  1.4700  0.2089  0.9038
10395TIP3   OH252675   0.413   4.136   2.369  0.0124  0.0754  0.1403
10395TIP3    H152676   0.400   4.161   2.460 -0.0063 -1.0581  0.4653
10395TIP3    H252677   0.372   4.050   2.362 -0.5381  0.4079 -1.0975
10396TIP3   OH252678   3.330   3.629  16.406  0.4364 -0.0702  0.4681
10396TIP3    H152679   3.384   3.644  16.483  2.0240 -3.6708  0.2624
10396TIP3    H252680   3.369   3.686  16.338  1.3875  0.3697  1.3573
10397TIP3   OH252681   6.534   4.985  11.960 -0.1798 -0.2003  0.7330
10397TIP3    H152682   6.481   4.914  11.924  0.7872 -0.9574  0.7571
10397TIP3    H252683   6.480   5.063  11.951  0.2348 -0.1855 -3.0515
10398TIP3   OH252684   2.012   1.291   2.264  0.2090  0.7677 -0.4864
10398TIP3    H152685   1.962   1.330   2.336 -0.4036 -0.8364  0.0200
10398TIP3    H252686   2.089   1.254   2.307  0.4260  0.8069 -0.8406
10399TIP3   OH252687   2.168   3.052  16.566  0.4061  0.3466 -0.5813
10399TIP3    H152688   2.188   3.054  16.660  2.8451 -1.6275 -0.9317
10399TIP3    H252689   2.081   3.090  16.559  0.3533  1.0480  2.4094
10400TIP3   OH252690   1.735   0.175   1.174 -0.2014 -0.2792  0.2698
10400TIP3    H152691   1.704   0.164   1.264  0.9834 -1.3307  0.5773
10400TIP3    H252692   1.686   0.250   1.140 -0.4960  0.2808  1.8674
10401TIP3   OH252693   6.683   1.880   3.369  0.1651 -0.5869  0.3916
10401TIP3    H152694   6.683   1.947   3.301 -0.7438  0.0840  1.0486
10401TIP3    H252695   6.594   1.880   3.404  1.4112  1.6926  4.1302
10402TIP3   OH252696   3.180   5.572   1.025 -0.3745  0.1315 -0.1033
10402TIP3    H152697   3.148   5.484   1.044  1.0160 -0.4023 -0.0813
10402TIP3    H252698   3.275   5.561   1.014 -0.4654  1.1910 -2.6916
10403TIP3   OH252699   1.108   3.125   1.120 -0.0344 -0.4175 -0.5764
10403TIP3    H152700   1.034   3.101   1.064  0.0468  1.1421 -1.4136
10403TIP3    H252701   1.181   3.074   1.085 -0.2515 -0.3450 -1.1529
10404TIP3   OH252702   3.647   3.914  15.232  0.3050 -0.1832 -0.6716
10404TIP3    H152703   3.585   3.982  15.259 -1.5717 -2.5716  1.5891
10404TIP3    H252704   3.722   3.925  15.290  0.5165  0.6230 -1.0878
10405TIP3   OH252705   0.311   0.886   4.376 -0.2136  0.0066  0.0165
10405TIP3    H152706   0.308   0.899   4.281 -3.5320  1.9406  0.2523
10405TIP3    H252707   0.355   0.964   4.409 -0.5567  0.1379  0.1632
10406TIP3   OH252708   2.457   1.338   4.148  0.5585  0.5811  0.6501
10406TIP3    H152709   2.494   1.327   4.061  2.7626 -1.4027  1.7111
10406TIP3    H252710   2.397   1.264   4.159  1.8910 -0.4092  1.5151
10407TIP3   OH252711   5.852   5.185  16.066  0.2011  0.0807 -0.1720
10407TIP3    H152712   5.774   5.131  16.056 -0.1623 -0.2321  3.2763
10407TIP3    H252713   5.924   5.122  16.066  0.2579  0.1335 -0.9755
10408TIP3   OH252714   2.027   5.393  12.640 -0.0260 -0.3187  0.6757
10408TIP3    H152715   2.031   5.482  12.605  0.9831 -0.7819 -0.4286
10408TIP3    H252716   1.935   5.381  12.666 -0.3651  0.7206 -0.0080
10409TIP3   OH252717   6.009   2.338  16.103  0.8168  0.6719  0.2314
10409TIP3    H152718   6.071   2.313  16.171 -0.1548 -1.4375  0.4282
10409TIP3    H252719   5.933   2.372  16.150  0.3050 -0.4061  0.2061
10410TIP3   OH252720   4.980   3.155   4.491  0.3298 -0.7117  0.3810
10410TIP3    H152721   4.963   3.250   4.492  0.8164 -0.4329 -3.3399
10410TIP3    H252722   4.913   3.118   4.548 -1.0749  1.7500  0.4858
10411TIP3   OH252723   2.941   1.518   3.457 -0.2112  0.0491  0.2954
10411TIP3    H152724   2.953   1.481   3.369 -1.3924  0.2204  0.0378
10411TIP3    H252725   2.935   1.441   3.514 -1.3105 -0.1441 -0.0505
10412TIP3   OH252726   4.024   1.787  12.901  0.3366 -1.2553 -0.2430
10412TIP3    H152727   3.991   1.874  12.882  0.7959 -0.2890  2.8267
10412TIP3    H252728   3.951   1.743  12.947  0.9611 -1.5185  0.5255
10413TIP3   OH252729   1.444   4.671   1.855  0.4236 -0.5231  0.4799
10413TIP3    H152730   1.514   4.704   1.911 -0.3981  1.3731  0.4691
10413TIP3    H252731   1.367   4.669   1.913 -0.1459  0.2202 -0.2331
10414TIP3   OH252732   2.375   3.234  15.538  1.1345  0.0588  0.3763
10414TIP3    H152733   2.309   3.260  15.473  1.6856 -0.1491 -0.2836
10414TIP3    H252734   2.359   3.140  15.552 -0.7851  0.6294  2.6781
10415TIP3   OH252735   2.735   4.480   3.639  0.0164  0.0719  0.4171
10415TIP3    H152736   2.749   4.568   3.604  0.3789 -0.0844  0.1671
10415TIP3    H252737   2.760   4.486   3.731  0.2873  0.1678  0.3385
10416TIP3   OH252738   1.336   3.622   3.418 -0.5598 -0.2113  0.4623
10416TIP3    H152739   1.337   3.608   3.323 -0.0379  0.1781  0.4077
10416TIP3    H252740   1.327   3.717   3.427  0.0171 -0.1853  0.7987
10417TIP3   OH252741   4.848   6.551  14.600  0.4741 -0.2236  0.0378
10417TIP3    H152742   4.912   6.516  14.662  0.1345 -1.7423 -0.4331
10417TIP3    H252743   4.897   6.613  14.546  1.0018  0.3441  1.1453
10418TIP3   OH252744   3.285   0.315   0.527 -0.1755  0.8007  0.1669
10418TIP3    H152745   3.197   0.306   0.564  0.1105 -0.4856  0.6085
10418TIP3    H252746   3.332   0.238   0.559 -0.4315 -1.6014 -4.3933
10419TIP3   OH252747   3.069   5.568   5.914  0.3599  0.1438  0.2762
10419TIP3    H152748   3.060   5.663   5.917 -0.7858  0.0940 -0.8073
10419TIP3    H252749   2.979   5.536   5.911  0.7192 -1.0046  0.9289
10420TIP3   OH252750   3.235   4.128   3.145  0.1771 -0.0118  0.0664
10420TIP3    H152751   3.199   4.193   3.205 -1.7970  0.0495 -1.1026
10420TIP3    H252752   3.185   4.048   3.165  0.1068 -0.2145 -0.9045
10421TIP3   OH252753   5.093   4.751  14.899 -0.0024 -0.7065 -0.5414
10421TIP3    H152754   5.173   4.804  14.909 -0.2501  0.0116 -2.0009
10421TIP3    H252755   5.068   4.729  14.988  0.1302  1.6650  0.1655
10422TIP3   OH252756   2.892   2.351   5.873  0.1757 -0.1656 -0.3627
10422TIP3    H152757   2.971   2.401   5.854  0.9571  0.4709  3.6670
10422TIP3    H252758   2.825   2.416   5.893 -1.0928 -0.7286 -2.4482
10423TIP3   OH252759   1.560   2.977  11.994 -0.6860  0.3164  0.3523
10423TIP3    H152760   1.521   3.022  12.068 -0.6895 -0.5027  0.8548
10423TIP3    H252761   1.569   2.886  12.022 -0.5448  0.0249 -0.5935
10424TIP3   OH252762   4.746   1.296  12.652 -0.2864 -0.3465 -0.5654
10424TIP3    H152763   4.654   1.303  12.626 -0.2934  2.1627 -0.1654
10424TIP3    H252764   4.794   1.325  12.574  0.2579 -2.2582 -0.9949
10425TIP3   OH252765   4.175   1.687  12.716 -0.5766 -0.7026  0.4873
10425TIP3    H152766   4.254   1.739  12.726 -0.2122 -0.9496 -0.9749
10425TIP3    H252767   4.114   1.723  12.780 -0.8957  2.5503 -1.4725
10426TIP3   OH252768   2.192   0.606  14.316  0.3869  0.1572  0.7752
10426TIP3    H152769   2.273   0.657  14.306 -0.0060  0.8119  0.9148
10426TIP3    H252770   2.174   0.572  14.229 -0.0864  1.3815  0.3862
10427TIP3   OH252771   2.663   5.300  16.936  0.1057 -0.0519  0.2497
10427TIP3    H152772   2.753   5.319  16.910 -0.2814 -1.4591 -2.4627
10427TIP3    H252773   2.668   5.286  17.031  2.6993  0.0706  0.1981
10428TIP3   OH252774   2.475   2.751   4.529  0.1929  0.0942 -0.3004
10428TIP3    H152775   2.416   2.697   4.582  2.3762 -1.3958  0.7267
10428TIP3    H252776   2.470   2.713   4.442 -3.2898  2.4523 -1.3514
10429TIP3   OH252777   6.380   1.458   1.910  0.9199 -0.0296  0.0891
10429TIP3    H152778   6.361   1.474   1.818  2.3049  0.8060 -0.0760
10429TIP3    H252779   6.321   1.516   1.958 -0.0445 -0.7182 -0.2481
10430TIP3   OH252780   3.370   1.612   1.958 -0.0318 -0.3229  0.0079
10430TIP3    H152781   3.373   1.672   2.033  1.6440 -0.6837  0.2859
10430TIP3    H252782   3.453   1.564   1.963 -0.9655 -2.1200 -0.6500
10431TIP3   OH252783   4.466   6.306   0.052 -0.7133 -0.3273  0.3209
10431TIP3    H152784   4.458   6.230   0.110  0.0097 -0.3790  0.3557
10431TIP3    H252785   4.461   6.381   0.111  0.1342 -0.3815  0.4691
10432TIP3   OH252786   5.967   5.795   1.409 -0.8896  0.4268 -0.3358
10432TIP3    H152787   5.905   5.868   1.407  0.6405  1.8042  0.2535
10432TIP3    H252788   5.976   5.769   1.317 -0.8180  1.5478 -0.6542
10433TIP3   OH252789   0.452   3.870  13.201 -0.3329  0.2070  0.7597
10433TIP3    H152790   0.406   3.908  13.276  0.4037  0.8624  0.8864
10433TIP3    H252791   0.398   3.893  13.126 -0.8182 -0.0343  1.0237
10434TIP3   OH252792   2.913   6.411   1.676 -0.4050  0.0365 -0.2360
10434TIP3    H152793   2.841   6.349   1.664  0.2627 -0.5911 -1.1826
10434TIP3    H252794   2.941   6.399   1.766 -0.5448 -0.7481 -0.2932
10435TIP3   OH252795   2.913   2.356  14.526  0.1210 -0.0485 -0.0498
10435TIP3    H152796   2.985   2.311  14.570 -0.2894  0.3325  1.0728
10435TIP3    H252797   2.906   2.314  14.440  1.1072 -0.6712  0.1582
10436TIP3   OH252798   0.893   5.965  13.589 -0.1089 -0.3921 -0.3104
10436TIP3    H152799   0.937   5.880  13.586  2.1480  0.7324 -0.8398
10436TIP3    H252800   0.960   6.028  13.563 -0.7616  1.9369  2.9768
10437TIP3   OH252801   3.845   2.104  14.588 -0.0698  0.3147  0.5893
10437TIP3    H152802   3.844   2.168  14.659 -1.7521  1.1343 -0.1237
10437TIP3    H252803   3.758   2.066  14.589 -0.4800  1.0540 -1.6231
10438TIP3   OH252804   3.060   5.383  14.010 -0.2223  0.3023  0.0154
10438TIP3    H152805   3.044   5.435  13.931  1.6417  1.7939  0.5236
10438TIP3    H252806   3.112   5.309  13.981 -1.8038 -0.6232 -0.5282
10439TIP3   OH252807   4.200   3.616  13.174  0.0789 -0.0314  0.5555
10439TIP3    H152808   4.130   3.554  13.194  0.3532 -0.4441  0.2529
10439TIP3    H252809   4.278   3.562  13.167  0.0665  0.1282 -1.2325
10440TIP3   OH252810   6.313   2.982  11.855 -0.4672  0.0023 -0.0091
10440TIP3    H152811   6.383   3.034  11.816  0.1144 -0.9467 -0.2499
10440TIP3    H252812   6.284   3.034  11.930  0.7150  0.2529  0.2901
10441TIP3   OH252813   6.556   6.332  14.608 -0.7430  0.3141  0.2534
10441TIP3    H152814   6.612   6.279  14.550  0.5256 -2.0128  3.3469
10441TIP3    H252815   6.575   6.423  14.584  2.7316 -0.4561 -0.3377
10442TIP3   OH252816   6.782   0.596   5.130 -0.4043 -0.3540 -0.0688
10442TIP3    H152817   6.852   0.599   5.196 -0.7663  0.6100  0.2908
10442TIP3    H252818   6.822   0.552   5.055  0.4267 -0.2927  0.3255
10443TIP3   OH252819   4.313   2.292  15.417 -0.1082  0.3057  0.0665
10443TIP3    H152820   4.309   2.382  15.386 -1.4749  0.4043  0.4681
10443TIP3    H252821   4.389   2.254  15.373  0.5026  1.6568 -0.0775
10444TIP3   OH252822   6.105   1.793   6.163 -0.4950  0.0313  0.3027
10444TIP3    H152823   6.159   1.849   6.220 -0.1478 -2.3933  2.5612
10444TIP3    H252824   6.060   1.734   6.224 -2.2257 -0.9681 -1.8346
10445TIP3   OH252825   2.030   4.746  16.392 -0.0113  1.0326 -0.3510
10445TIP3    H152826   1.952   4.694  16.373 -2.0630  1.8574  4.3592
10445TIP3    H252827   2.103   4.685  16.383 -1.4699 -0.5582 -2.1314
10446TIP3   OH252828   0.865   5.806  11.325 -0.2919 -0.1357 -0.5327
10446TIP3    H152829   0.865   5.741  11.255  0.0340 -0.2772 -0.4000
10446TIP3    H252830   0.874   5.890  11.280 -0.5351 -0.1938 -0.6910
10447TIP3   OH252831   5.750   3.000  14.564 -0.3770 -0.1284 -0.0177
10447TIP3    H152832   5.801   2.957  14.495 -0.1936  0.4408 -0.2468
10447TIP3    H252833   5.699   3.067  14.518  0.0951  0.5724  0.4383
10448TIP3   OH252834   5.872   5.371  16.829  0.3380 -0.3708  0.3294
10448TIP3    H152835   5.898   5.447  16.881  1.2670 -0.9190  0.7078
10448TIP3    H252836   5.945   5.358  16.768  0.6569 -1.5050  0.9084
10449TIP3   OH252837   1.446   4.014   5.335 -0.2419 -0.1896 -0.2138
10449TIP3    H152838   1.452   3.921   5.356 -0.5439 -0.0435  0.5401
10449TIP3    H252839   1.374   4.020   5.272 -1.3066 -0.2762  0.9670
10450TIP3   OH252840   5.064   0.245  16.075  0.6479  0.3520 -0.0355
10450TIP3    H152841   5.024   0.166  16.113  1.3805  0.4737  1.0158
10450TIP3    H252842   4.990   0.295  16.042  0.1991 -1.0225 -1.2349
10451TIP3   OH252843   1.305   1.780   3.779  0.1055  0.5812 -0.5958
10451TIP3    H152844   1.253   1.829   3.842 -1.7529 -0.9491 -0.8152
10451TIP3    H252845   1.374   1.840   3.751 -0.5845  2.1577  0.9454
10452TIP3   OH252846   4.587   6.038  11.777  0.3616 -0.8103  0.3922
10452TIP3    H152847   4.558   6.111  11.722  1.9419 -1.6435 -1.6554
10452TIP3    H252848   4.579   5.961  11.722 -0.9124 -2.1943  2.3932
10453TIP3   OH252849   5.113   5.283  15.326 -0.4048 -0.2030  0.2545
10453TIP3    H152850   5.190   5.290  15.382 -1.4498 -2.1500  2.0912
10453TIP3    H252851   5.125   5.201  15.278 -1.2994 -0.5188  0.5486
10454TIP3   OH252852   5.702   1.995  15.938  0.2259  0.1465 -0.0028
10454TIP3    H152853   5.721   1.907  15.908  0.0373 -0.5811  1.8631
10454TIP3    H252854   5.648   2.034  15.869  1.5367 -0.6590 -1.5141
10455TIP3   OH252855   6.192   4.246  16.974  0.4301 -0.1810 -0.1239
10455TIP3    H152856   6.153   4.325  17.010  0.7171  0.0842 -0.3873
10455TIP3    H252857   6.284   4.269  16.959  1.0089 -1.1872  1.6857
10456TIP3   OH252858   4.594   5.789   3.886 -0.1191 -0.0054 -0.3195
10456TIP3    H152859   4.658   5.803   3.816  2.6008  1.0330  2.1184
10456TIP3    H252860   4.639   5.732   3.948 -0.5845  2.4772  2.5435
10457TIP3   OH252861   4.068   3.183   3.842 -0.0228  0.2382 -0.1841
10457TIP3    H152862   3.982   3.218   3.819  0.2407 -0.0830 -1.7361
10457TIP3    H252863   4.126   3.213   3.772  1.3187  1.0988  1.2236
10458TIP3   OH252864   0.073   0.663   3.647  0.8470 -0.7849 -0.8306
10458TIP3    H152865   0.160   0.654   3.685  1.0289 -1.1743 -1.3380
10458TIP3    H252866   0.016   0.617   3.709  1.0637 -0.9485 -0.7500
10459TIP3   OH252867   6.096   2.683  14.184 -0.1321 -0.2996 -0.5740
10459TIP3    H152868   6.174   2.738  14.188 -0.2875 -0.1221  3.2615
10459TIP3    H252869   6.130   2.595  14.169  0.7445 -0.0733 -0.0288
10460TIP3   OH252870   3.168   4.966   4.153  0.1444 -0.2156  0.6690
10460TIP3    H152871   3.175   4.971   4.249 -0.4477  0.5088  0.6804
10460TIP3    H252872   3.076   4.944   4.137  0.5896 -1.9256  0.2993
10461TIP3   OH252873   2.476   1.608  16.297  0.4869 -0.1822  0.0122
10461TIP3    H152874   2.401   1.651  16.258 -1.3386 -1.1748  2.1839
10461TIP3    H252875   2.544   1.676  16.301 -0.7905  1.1756 -0.6401
10462TIP3   OH252876   2.680   5.696   1.297  0.3760  0.2001  0.8903
10462TIP3    H152877   2.614   5.695   1.366  1.5582  0.0959  2.0446
10462TIP3    H252878   2.749   5.638   1.328  1.3694  0.8910  0.0531
10463TIP3   OH252879   4.257   5.506  14.350 -1.0255 -0.0093  0.1823
10463TIP3    H152880   4.301   5.455  14.282 -1.3115 -0.1835  0.1249
10463TIP3    H252881   4.328   5.536  14.407 -0.7423  0.4983 -0.4340
10464TIP3   OH252882   0.578   3.594  16.097  0.2704 -0.4225  0.2660
10464TIP3    H152883   0.490   3.571  16.067  0.0185 -1.1096  1.4645
10464TIP3    H252884   0.565   3.669  16.156  0.7961  1.1514 -1.5195
10465TIP3   OH252885   5.492   4.945   4.222  0.1355 -0.9907  0.2801
10465TIP3    H152886   5.458   4.944   4.132  1.0332  0.4591 -0.1032
10465TIP3    H252887   5.525   4.856   4.236 -1.8858 -1.8382 -0.0569
10466TIP3   OH252888   1.028   3.997   1.402 -0.5378  0.0005 -0.3957
10466TIP3    H152889   0.935   4.022   1.407 -0.3043  0.6089  1.6033
10466TIP3    H252890   1.037   3.960   1.314 -2.3007  1.3863 -1.2436
10467TIP3   OH252891   2.365   0.249  12.768 -0.4390  0.8080 -0.2614
10467TIP3    H152892   2.336   0.228  12.857 -0.1895  1.1884 -0.0884
10467TIP3    H252893   2.351   0.168  12.719 -0.1292  0.4501  0.2363
10468TIP3   OH252894   0.902   4.979  13.905 -0.4442 -0.5535 -0.5335
10468TIP3    H152895   0.854   5.041  13.961  0.2101 -1.4596  1.0899
10468TIP3    H252896   0.841   4.961  13.834 -0.8888  1.4653 -0.7477
10469TIP3   OH252897   3.967   4.730   3.439  0.0879  0.3372 -0.0828
10469TIP3    H152898   4.051   4.686   3.442  0.0415  0.2952  0.7127
10469TIP3    H252899   3.987   4.823   3.450  0.0293  0.3292  0.0891
10470TIP3   OH252900   2.634   3.050   3.782 -0.2619  0.2425 -0.4140
10470TIP3    H152901   2.551   3.050   3.831  0.4908  0.6301  0.9121
10470TIP3    H252902   2.679   2.971   3.813 -0.7909 -0.8784 -2.3474
10471TIP3   OH252903   2.742   1.106   2.950 -0.1844  0.1610 -0.2254
10471TIP3    H152904   2.716   1.014   2.950  0.3182  0.0164 -0.4315
10471TIP3    H252905   2.824   1.108   2.999  0.7831  0.2099 -1.7932
10472TIP3   OH252906   6.455   4.046   4.724  0.0444  0.6198  0.4939
10472TIP3    H152907   6.509   4.026   4.801  1.7330  1.3875 -0.4504
10472TIP3    H252908   6.385   4.102   4.758  2.0518  2.8851  1.1716
10473TIP3   OH252909   3.864   0.066   1.999  0.7104 -0.0450 -0.1772
10473TIP3    H152910   3.819   0.038   1.920 -2.7172 -0.5082  1.7246
10473TIP3    H252911   3.948   0.022   1.996  0.2630 -0.8979 -2.9926
10474TIP3   OH252912   3.861   6.075   2.396  0.4060 -0.0595  0.0716
10474TIP3    H152913   3.893   6.084   2.485  1.1391  1.8226 -0.3279
10474TIP3    H252914   3.780   6.026   2.404  0.2622  0.4026  1.8082
10475TIP3   OH252915   4.640   2.029  14.216  0.1322 -0.3134 -0.1928
10475TIP3    H152916   4.674   1.972  14.147 -0.8234 -0.7623 -0.2990
10475TIP3    H252917   4.715   2.085  14.239  0.8673 -1.1079 -0.5939
10476TIP3   OH252918   2.453   3.648   0.837  0.4949  0.3731  0.2664
10476TIP3    H152919   2.462   3.653   0.741  1.8884  1.5971  0.4211
10476TIP3    H252920   2.544   3.646   0.868  0.0666  1.2542  1.6142
10477TIP3   OH252921   2.674   1.744   0.454  0.3301 -0.0563  0.3721
10477TIP3    H152922   2.699   1.680   0.387  2.1520 -1.6568  2.4312
10477TIP3    H252923   2.756   1.773   0.492 -0.6317  0.2398  2.3668
10478TIP3   OH252924   2.572   0.598  11.593  0.6303 -0.3421  0.4465
10478TIP3    H152925   2.654   0.551  11.607  1.1321  0.9830  2.2378
10478TIP3    H252926   2.504   0.536  11.619  1.0876 -1.1406 -0.2058
10479TIP3   OH252927   1.314   2.427  11.321 -0.3111  0.4745 -0.4787
10479TIP3    H152928   1.235   2.378  11.298  0.9702 -1.3318 -1.2773
10479TIP3    H252929   1.348   2.383  11.399 -0.2944  1.5215  0.1322
10480TIP3   OH252930   5.283   0.050  12.207 -0.3596 -0.2363 -0.6959
10480TIP3    H152931   5.249   0.133  12.239 -1.9001 -0.9093 -0.4864
10480TIP3    H252932   5.253  -0.014  12.272  1.3076 -0.9057 -0.5313
10481TIP3   OH252933   3.607   6.397   1.913 -0.1584 -0.2458  0.1088
10481TIP3    H152934   3.579   6.312   1.881 -0.7697  0.6097 -1.7749
10481TIP3    H252935   3.543   6.459   1.878  2.3849  1.4541 -1.9313
10482TIP3   OH252936   4.974   2.041   1.154  0.7907  0.1089 -0.1855
10482TIP3    H152937   5.054   2.065   1.201  0.2430  1.3360  0.1560
10482TIP3    H252938   5.003   1.978   1.089  1.8173 -0.5008  0.8155
10483TIP3   OH252939   5.975   6.063  14.129 -0.0488 -0.5162  0.2829
10483TIP3    H152940   5.887   6.044  14.096 -0.5025 -0.0527  1.1703
10483TIP3    H252941   5.988   6.156  14.109  0.0958 -0.4955  0.4761
10484TIP3   OH252942   1.261   0.614  14.547 -0.5101  0.3075 -0.3138
10484TIP3    H152943   1.265   0.531  14.594 -2.0890 -0.9973 -2.2946
10484TIP3    H252944   1.196   0.666  14.595 -0.0383  0.1334  0.5270
10485TIP3   OH252945   2.434   1.827   0.827  0.3870 -0.3131  0.1697
10485TIP3    H152946   2.398   1.747   0.867 -1.6738  0.5972  0.2249
10485TIP3    H252947   2.441   1.889   0.900 -2.9723  1.2118 -0.6322
10486TIP3   OH252948   2.664   0.610  13.986 -0.1796  0.4425 -0.4316
10486TIP3    H152949   2.668   0.609  13.891  0.4983  1.2700 -0.4196
10486TIP3    H252950   2.597   0.674  14.008 -0.1864  0.4061 -0.3423
10487TIP3   OH252951   4.428   0.173   1.141 -0.0771 -0.6033 -0.0815
10487TIP3    H152952   4.379   0.246   1.102 -0.0850 -0.7747 -0.3962
10487TIP3    H252953   4.520   0.198   1.132 -0.1163 -0.1322  0.8055
10488TIP3   OH252954   1.576   4.345  12.041  0.5299 -0.2887 -0.1690
10488TIP3    H152955   1.534   4.260  12.025 -0.3914 -0.0178  0.6772
10488TIP3    H252956   1.512   4.393  12.094  0.9918  0.9738 -0.7100
10489TIP3   OH252957   1.876   5.227   0.708  0.3417 -1.0063  0.6111
10489TIP3    H152958   1.849   5.214   0.616  1.0880 -2.0259  0.5200
10489TIP3    H252959   1.878   5.138   0.744  0.3017 -0.6256  1.5497
10490TIP3   OH252960   2.238   4.121   1.187 -0.2140  0.8966  0.1433
10490TIP3    H152961   2.173   4.075   1.241  1.3338 -1.9671 -0.2338
10490TIP3    H252962   2.304   4.151   1.250 -0.9590  2.2498  0.3270
10491TIP3   OH252963   3.453   3.671   4.170  0.3171  0.2878 -0.8661
10491TIP3    H152964   3.416   3.728   4.238  3.4622  0.2046  1.0984
10491TIP3    H252965   3.458   3.726   4.092 -1.1234  1.1626 -0.3790
10492TIP3   OH252966   5.612   0.856   4.180 -0.0354 -0.0535 -0.1188
10492TIP3    H152967   5.560   0.935   4.170  0.3653  0.6903  2.7127
10492TIP3    H252968   5.549   0.784   4.178 -0.8199  0.6066  0.3737
10493TIP3   OH252969   6.043   3.799   1.660  0.2529  0.4974  0.7502
10493TIP3    H152970   6.030   3.789   1.755  0.4629 -0.6089  0.6765
10493TIP3    H252971   6.090   3.882   1.651 -1.4216  1.5653  1.4630
10494TIP3   OH252972   5.018   5.964   4.938 -0.2486  0.4535  0.5361
10494TIP3    H152973   4.939   5.923   4.903  0.3650 -2.0565  1.8033
10494TIP3    H252974   5.090   5.920   4.893  0.4431  1.3875  0.7050
10495TIP3   OH252975   3.179   1.415  16.131 -0.0187 -0.3083  0.8309
10495TIP3    H152976   3.087   1.403  16.154 -0.0468 -1.2105  0.3128
10495TIP3    H252977   3.177   1.456  16.044  0.0646 -0.6214  0.6790
10496TIP3   OH252978   0.332   1.520   3.442  0.4023  0.0725  0.1355
10496TIP3    H152979   0.375   1.435   3.429 -0.3652 -0.2373 -0.4697
10496TIP3    H252980   0.300   1.544   3.356 -0.3839  0.4305  0.5161
10497TIP3   OH252981   1.116   3.971  15.352 -0.1651 -0.2975  0.4441
10497TIP3    H152982   1.108   3.913  15.427 -1.8459 -0.7937 -0.0791
10497TIP3    H252983   1.026   3.995  15.330  0.3986  1.3702 -0.2450
10498TIP3   OH252984   1.151   4.663  15.422  0.0028  0.3254 -0.4067
10498TIP3    H152985   1.205   4.674  15.343 -0.3034  0.6246 -0.5807
10498TIP3    H252986   1.067   4.632  15.389 -0.4004  1.2441 -0.2930
10499TIP3   OH252987   0.064   1.974   4.286  1.1833  0.0349  0.2341
10499TIP3    H152988   0.156   1.954   4.305  0.3715 -2.7710  1.6681
10499TIP3    H252989   0.027   2.003   4.369  0.1843 -1.4357  0.3316
10500TIP3   OH252990   0.781   6.640  13.756  0.2179 -0.2324 -0.2244
10500TIP3    H152991   0.876   6.628  13.758  0.2838  0.2525  1.0650
10500TIP3    H252992   0.746   6.555  13.781  0.3597 -0.1611  0.2322
10501TIP3   OH252993   4.317   2.645  13.681 -0.0591  0.0067  0.1524
10501TIP3    H152994   4.382   2.711  13.709 -0.5245  1.1481 -1.3336
10501TIP3    H252995   4.322   2.646  13.586 -1.5398 -0.6343  0.0534
10502TIP3   OH252996   0.783   0.395  13.321 -0.0826 -0.1846  0.7929
10502TIP3    H152997   0.762   0.489  13.320 -2.2600 -0.6252 -1.4162
10502TIP3    H252998   0.704   0.353  13.354 -0.3660 -1.4436 -1.3618
10503TIP3   OH252999   1.910   6.573   2.514  0.0380 -0.4655 -0.0504
10503TIP3    H153000   1.973   6.627   2.467 -0.8969  0.2843 -0.4741
10503TIP3    H253001   1.832   6.628   2.521 -0.3428 -1.1237  1.0605
10504TIP3   OH253002   1.852   1.695   0.895 -0.3838  0.6688 -0.3364
10504TIP3    H153003   1.886   1.689   0.984 -1.8136  1.0075  0.2753
10504TIP3    H253004   1.856   1.606   0.861  1.3158  0.7473 -0.4033
10505TIP3   OH253005   4.568   4.265  15.637  0.0436  0.5963  0.1438
10505TIP3    H153006   4.485   4.294  15.601 -0.7716 -1.1070  0.5776
10505TIP3    H253007   4.553   4.260  15.732  1.4157  2.6418  0.5379
10506TIP3   OH253008   1.084   3.505   0.769  0.2151 -0.3213  0.6701
10506TIP3    H153009   1.115   3.595   0.769  0.2962 -0.3465 -0.1094
10506TIP3    H253010   1.138   3.460   0.705 -1.1570 -0.4515 -0.4417
10507TIP3   OH253011   1.312   5.480  12.556 -0.2905  0.4660 -0.1883
10507TIP3    H153012   1.307   5.566  12.515 -1.0396  0.9477  0.8525
10507TIP3    H253013   1.386   5.437  12.514 -0.4368  1.2948 -1.3234
10508TIP3   OH253014   1.654   1.695   0.413 -0.4711  0.4596 -0.3408
10508TIP3    H153015   1.666   1.719   0.322  1.4546 -2.8175 -1.1089
10508TIP3    H253016   1.586   1.627   0.411 -0.0228 -0.0379  0.5537
10509TIP3   OH253017   1.955   6.033   4.312 -1.1637 -1.0415 -0.0527
10509TIP3    H153018   1.884   6.012   4.372 -1.5217  1.9559  0.7303
10509TIP3    H253019   2.024   5.970   4.333 -2.7044 -2.5160  0.7827
10510TIP3   OH253020   0.184   4.635  11.604 -0.6598 -0.2497 -0.4082
10510TIP3    H153021   0.255   4.585  11.563 -1.1658 -1.2136 -0.1340
10510TIP3    H253022   0.210   4.642  11.696 -0.3666  0.4019 -0.5384
10511TIP3   OH253023   1.050   6.153  14.914 -0.6387  0.7096 -0.3682
10511TIP3    H153024   1.137   6.182  14.942 -0.2194  1.4775 -2.3188
10511TIP3    H253025   1.009   6.120  14.994  1.4239  0.3513  0.6058
10512TIP3   OH253026   1.357   1.347   6.813  0.4708  0.7433  0.2682
10512TIP3    H153027   1.447   1.379   6.818  0.0862  1.6881  2.0325
10512TIP3    H253028   1.306   1.423   6.784  0.4900 -0.4593 -3.3928
10513TIP3   OH253029   4.957   5.425   5.542  0.1168  0.2571  0.3072
10513TIP3    H153030   4.982   5.412   5.633 -1.0399 -0.0595  0.5968
10513TIP3    H253031   4.974   5.518   5.526 -0.1944  0.4517  1.0305
10514TIP3   OH253032   0.445   1.526  13.117  0.2794 -0.3713  0.8364
10514TIP3    H153033   0.445   1.432  13.103 -2.3778 -0.1082 -1.8711
10514TIP3    H253034   0.353   1.550  13.128  0.8195  1.9681  0.9111
10515TIP3   OH253035   0.550   1.031  15.856 -0.1404  0.1341 -0.7358
10515TIP3    H153036   0.527   1.120  15.884  0.2989  0.4892 -1.4540
10515TIP3    H253037   0.552   1.037  15.760 -4.9794 -1.8151 -1.2512
10516TIP3   OH253038   3.630   2.424  14.760  0.3017  0.1126 -0.4612
10516TIP3    H153039   3.628   2.499  14.820 -0.1169 -1.1549  1.2059
10516TIP3    H253040   3.710   2.377  14.785  0.7621  0.1880 -1.7491
10517TIP3   OH253041   5.691   6.437  11.589 -0.4024 -0.3176 -0.1089
10517TIP3    H153042   5.690   6.439  11.493  1.5129 -0.3363 -0.1591
10517TIP3    H253043   5.764   6.495  11.613 -1.8070  0.9124  1.4092
10518TIP3   OH253044   4.237   1.323  10.785 -0.2527  0.3644  0.3003
10518TIP3    H153045   4.179   1.388  10.824  0.8916  0.5690  1.7262
10518TIP3    H253046   4.185   1.242  10.787 -1.1972  0.9305 -0.2849
10519TIP3   OH253047   3.995   4.037   3.141 -0.0614  0.1919 -0.1298
10519TIP3    H153048   4.009   4.131   3.138  2.1241 -0.0527  0.6002
10519TIP3    H253049   4.075   4.002   3.181 -0.2575 -2.0907 -1.5465
10520TIP3   OH253050   3.722   6.633   3.321  0.4357  0.1713 -0.3315
10520TIP3    H153051   3.657   6.691   3.282  1.4829  1.7455  0.1433
10520TIP3    H253052   3.693   6.623   3.412  0.4193  0.2314 -0.3298
10521TIP3   OH253053   4.826   1.256  13.871 -0.3383  0.4104 -0.4130
10521TIP3    H153054   4.862   1.250  13.782 -1.7884  2.1088 -1.1748
10521TIP3    H253055   4.817   1.350  13.887 -1.8188  0.1062  0.7978
10522TIP3   OH253056   1.619   4.544  11.454 -0.2139  0.3742 -0.2544
10522TIP3    H153057   1.693   4.577  11.505  0.8654 -2.6277  0.3232
10522TIP3    H253058   1.657   4.519  11.369 -0.8542  0.1627 -0.4895
10523TIP3   OH253059   0.654   3.452   1.613 -0.2384  0.3305 -0.3711
10523TIP3    H153060   0.601   3.445   1.693 -1.5913 -1.1288 -1.3213
10523TIP3    H253061   0.591   3.472   1.544  0.9060  1.5730 -1.0979
10524TIP3   OH253062   1.133   4.837  12.644  1.2173 -0.5379  0.4937
10524TIP3    H153063   1.226   4.851  12.662  0.6944  1.3446  1.9699
10524TIP3    H253064   1.091   4.920  12.664 -0.5349 -0.5960 -2.3618
10525TIP3   OH253065   6.170   0.399  13.390 -0.4207 -0.3374  0.0085
10525TIP3    H153066   6.156   0.430  13.301  0.6225  1.0707  0.3040
10525TIP3    H253067   6.261   0.369  13.392  0.2312  1.5381  1.0766
10526TIP3   OH253068   1.175   1.787  13.150  0.4882 -0.1029  0.1954
10526TIP3    H153069   1.180   1.780  13.245 -0.1894 -0.6291  0.2024
10526TIP3    H253070   1.266   1.781  13.120  0.8897  1.7391  0.8932
10527TIP3   OH253071   4.746   1.419   5.625 -0.0638  0.9435 -0.0015
10527TIP3    H153072   4.752   1.366   5.705  1.6557  1.4999  0.2811
10527TIP3    H253073   4.826   1.471   5.625 -0.4004  1.5209 -1.7051
10528TIP3   OH253074   5.407   6.638   5.535 -0.1196 -0.6741  0.2820
10528TIP3    H153075   5.323   6.633   5.491  0.2063 -0.2969 -0.4066
10528TIP3    H253076   5.470   6.658   5.465  0.3011  0.6831  1.0118
10529TIP3   OH253077   3.197   1.579  11.966 -0.0196  0.0597  0.5057
10529TIP3    H153078   3.264   1.627  11.917  1.0179  0.8496  2.6146
10529TIP3    H253079   3.219   1.487  11.951  0.3454  0.2791 -0.4024
10530TIP3   OH253080   4.856   4.694   0.794  0.3668  0.6675  0.2527
10530TIP3    H153081   4.945   4.659   0.798  1.9484  4.1184 -0.2570
10530TIP3    H253082   4.834   4.713   0.885  0.4740  0.5139  0.3117
10531TIP3   OH253083   1.111   3.435  17.254  0.5948 -0.0393 -0.3161
10531TIP3    H153084   1.154   3.455  17.337  1.2130 -0.0616 -0.6252
10531TIP3    H253085   1.059   3.356  17.273  0.9523 -0.2069 -0.0235
10532TIP3   OH253086   1.445   3.620  10.959  0.3907  0.3783  0.8580
10532TIP3    H153087   1.473   3.706  10.988 -0.4906  0.4026  1.6481
10532TIP3    H253088   1.438   3.628  10.864  0.6020  1.0837  0.8991
10533TIP3   OH253089   0.255   5.764   5.919 -0.0337  0.0674 -0.5996
10533TIP3    H153090   0.350   5.757   5.914 -0.0593  0.4878 -2.5331
10533TIP3    H253091   0.222   5.689   5.870 -0.7887 -1.2433  1.7789
10534TIP3   OH253092   0.672   1.844  11.358  0.0683 -0.1979  0.0522
10534TIP3    H153093   0.749   1.789  11.366  0.6869  0.7014  0.3630
10534TIP3    H253094   0.666   1.890  11.441 -0.5906  0.0305 -0.1103
10535TIP3   OH253095   3.236   0.079  16.544  0.1793  0.3465  0.0132
10535TIP3    H153096   3.331   0.074  16.529  0.3551 -0.8159  1.2061
10535TIP3    H253097   3.197   0.075  16.457  1.1954 -1.3332 -0.4181
10536TIP3   OH253098   0.738   0.298   5.928  0.8533  0.0692 -0.1166
10536TIP3    H153099   0.740   0.241   6.005  1.1950  0.4077  0.1224
10536TIP3    H253100   0.829   0.316   5.908  0.7744 -0.1677 -0.7171
10537TIP3   OH253101   4.386   3.438  15.821 -0.0595  0.3415 -0.5586
10537TIP3    H153102   4.343   3.355  15.801 -1.8105  1.6040 -2.5904
10537TIP3    H253103   4.437   3.458  15.742 -1.9317  2.4401 -1.3509
10538TIP3   OH253104   6.287   0.389   2.228 -0.1245  0.0634 -0.3057
10538TIP3    H153105   6.276   0.475   2.188  0.3941  0.8442  1.1561
10538TIP3    H253106   6.308   0.408   2.320  1.8308 -1.5636 -0.3612
10539TIP3   OH253107   6.580   3.064   0.060  0.4105  0.2328 -0.2871
10539TIP3    H153108   6.533   3.075   0.143 -2.1959  0.0703 -1.6485
10539TIP3    H253109   6.612   3.151   0.039  2.3413  0.0401  1.4974
10540TIP3   OH253110   4.012   2.062  13.139  0.1782 -0.4444 -0.4032
10540TIP3    H153111   4.040   1.976  13.169 -0.1314 -0.0871  0.9906
10540TIP3    H253112   4.010   2.055  13.044  1.4027 -1.5804 -0.3766
10541TIP3   OH253113   3.714   2.458   5.508  0.6225  0.1723 -0.1965
10541TIP3    H153114   3.751   2.378   5.546  0.5831  0.3426  0.2058
10541TIP3    H253115   3.649   2.426   5.445  0.0772 -0.1175  0.4924
10542TIP3   OH253116   6.421   6.086  13.526 -0.1618 -0.5923  0.1828
10542TIP3    H153117   6.386   6.050  13.608 -0.0939  0.4451  0.6911
10542TIP3    H253118   6.382   6.033  13.457 -1.0055 -0.8504  0.8462
10543TIP3   OH253119   6.690   5.395  15.632  0.2746  0.3984 -0.2496
10543TIP3    H153120   6.652   5.320  15.586  0.4590 -0.0962  0.3960
10543TIP3    H253121   6.622   5.421  15.694  0.5971  0.1282  0.2239
10544TIP3   OH253122   2.264   3.706  14.775 -0.3961 -0.0223  0.3539
10544TIP3    H153123   2.344   3.662  14.748  0.0237  0.5485  0.6432
10544TIP3    H253124   2.193   3.657  14.732  0.0674 -0.8614  0.5403
10545TIP3   OH253125   6.695   0.249  11.088  0.2860 -0.5723 -0.3589
10545TIP3    H153126   6.718   0.332  11.046  0.5336 -1.0074 -1.0958
10545TIP3    H253127   6.678   0.189  11.016  0.3584 -1.2389  0.1659
10546TIP3   OH253128   2.548   3.762   1.239 -0.7029  0.2143 -0.3676
10546TIP3    H153129   2.495   3.819   1.183  1.8380  3.3298  0.1258
10546TIP3    H253130   2.626   3.742   1.186  0.5380  1.0459  1.0953
10547TIP3   OH253131   3.892   1.967  16.333  0.5811 -0.5099 -0.8206
10547TIP3    H153132   3.831   1.900  16.365 -0.4791  0.7899 -0.0456
10547TIP3    H253133   3.911   2.021  16.409  2.0307 -0.3628 -1.2580
10548TIP3   OH253134   4.708   4.159   1.462  0.0676  0.6147  0.3918
10548TIP3    H153135   4.711   4.201   1.376 -0.0698  0.2587  0.2112
10548TIP3    H253136   4.732   4.068   1.445  2.4559  1.0381  1.0566
10549TIP3   OH253137   1.259   4.374   6.222  0.0016  0.2081 -0.0145
10549TIP3    H153138   1.336   4.417   6.259 -0.1945  1.2759 -0.8169
10549TIP3    H253139   1.186   4.407   6.274  0.0738 -0.9673  0.8872
10550TIP3   OH253140   5.213   2.710   1.903  0.2161  0.4626  0.0274
10550TIP3    H153141   5.261   2.628   1.905  0.7417  0.7667  1.5238
10550TIP3    H253142   5.129   2.689   1.862  0.7996 -0.5325 -0.7007
10551TIP3   OH253143   2.562   1.780   1.417 -0.1704 -0.2949  0.2540
10551TIP3    H153144   2.485   1.831   1.441 -0.7208 -0.4926 -1.0117
10551TIP3    H253145   2.527   1.697   1.384  0.6622 -1.0374  1.1760
10552TIP3   OH253146   2.899   4.996   2.117 -0.0750 -0.2764  0.0095
10552TIP3    H153147   2.957   4.926   2.148  0.2432 -0.4534 -0.9428
10552TIP3    H253148   2.924   5.072   2.168  0.4808 -0.5430  0.1481
10553TIP3   OH253149   4.459   2.621   5.803  0.5999  0.2250  0.2643
10553TIP3    H153150   4.385   2.657   5.754  2.9871  2.4763 -2.0063
10553TIP3    H253151   4.468   2.531   5.770  1.3163  1.2504 -2.6197
10554TIP3   OH253152   6.023   1.138   1.746  0.3730 -0.7505 -0.0075
10554TIP3    H153153   5.958   1.134   1.816  1.2911  0.0616  0.9283
10554TIP3    H253154   6.105   1.112   1.787  1.0505  0.3557 -0.6075
10555TIP3   OH253155   6.471   2.653   1.312  0.0209  0.2024  0.5274
10555TIP3    H153156   6.379   2.679   1.305  0.0087 -0.0158 -0.2527
10555TIP3    H253157   6.470   2.577   1.370 -0.3131  0.1148  0.4139
10556TIP3   OH253158   5.304   0.730  11.199 -0.3348 -0.1754 -0.3167
10556TIP3    H153159   5.335   0.677  11.125  0.0264 -0.2936 -0.0813
10556TIP3    H253160   5.271   0.666  11.262 -0.2950 -0.0955 -0.2154
10557TIP3   OH253161   1.514   2.534   0.632  0.1065 -0.2030  0.1767
10557TIP3    H153162   1.435   2.489   0.601 -0.9454  0.8146  1.2968
10557TIP3    H253163   1.559   2.561   0.552 -3.5935  4.2663 -0.8285
10558TIP3   OH253164   4.597   2.252  15.586  0.1576  0.0278 -0.5986
10558TIP3    H153165   4.650   2.249  15.665  1.3074  1.3304 -1.2644
10558TIP3    H253166   4.518   2.203  15.608  0.4565  0.3232  1.3316
10559TIP3   OH253167   4.747   3.115  11.749 -0.0283  0.1200  0.4275
10559TIP3    H153168   4.778   3.179  11.685 -0.6052  0.4344  0.4613
10559TIP3    H253169   4.660   3.146  11.774  0.4520  0.3597  1.8541
10560TIP3   OH253170   0.994   3.514   0.416  1.1715 -0.1702  0.2480
10560TIP3    H153171   0.930   3.509   0.486  1.9339  0.4611  1.0206
10560TIP3    H253172   0.965   3.588   0.361  1.9775  1.0537  1.4017
10561TIP3   OH253173   3.473   5.007  12.421 -0.0821 -0.2756  0.2795
10561TIP3    H153174   3.418   4.964  12.355  0.1026 -0.0935  0.0086
10561TIP3    H253175   3.436   5.094  12.430 -0.1408 -0.3193  0.4564
10562TIP3   OH253176   5.911   0.530  11.037 -0.4695 -0.2109  0.3185
10562TIP3    H153177   5.987   0.548  10.982  0.6238  0.4284  1.9479
10562TIP3    H253178   5.835   0.551  10.982  0.4358 -2.0891 -1.7920
10563TIP3   OH253179   3.951   2.021   3.866  0.1429  0.0365  0.5493
10563TIP3    H153180   3.972   1.934   3.831  0.2882  0.6897 -1.0346
10563TIP3    H253181   4.009   2.081   3.820 -1.8207  1.3094 -0.4344
10564TIP3   OH253182   0.115   6.230  13.568  0.1283  0.4093 -0.3093
10564TIP3    H153183   0.196   6.226  13.620  0.4374  1.0874 -0.7339
10564TIP3    H253184   0.088   6.138  13.560  1.4095  0.0673 -1.0135
10565TIP3   OH253185   0.743   0.524   2.199  0.6774 -0.1719  0.1154
10565TIP3    H153186   0.810   0.565   2.254 -1.6365  2.3067  1.3124
10565TIP3    H253187   0.675   0.591   2.190 -1.1141 -2.1123 -2.0506
10566TIP3   OH253188   0.940   0.052  14.103 -0.8338 -0.3206 -0.2088
10566TIP3    H153189   0.872   0.105  14.145 -2.8852 -2.4210 -0.6617
10566TIP3    H253190   0.983   0.112  14.042 -1.6310  1.3249  0.7955
10567TIP3   OH253191   6.295   2.979   3.639  0.0075  0.3268  0.3879
10567TIP3    H153192   6.217   2.954   3.588 -0.4759 -1.6135  1.9342
10567TIP3    H253193   6.269   3.059   3.685 -0.6667  0.3439 -0.0056
10568TIP3   OH253194   4.369   0.789  16.789 -0.4160  0.5440  0.1372
10568TIP3    H153195   4.304   0.802  16.859  1.1798  2.9183  1.3288
10568TIP3    H253196   4.354   0.862  16.729  1.4537  1.4768  0.7400
10569TIP3   OH253197   4.219   6.379   4.287  0.1325 -0.0911 -0.1875
10569TIP3    H153198   4.151   6.412   4.344  0.9801  0.1379  0.7214
10569TIP3    H253199   4.230   6.287   4.313  0.7678  0.1109  0.2859
10570TIP3   OH253200   4.984   1.151   5.960 -0.6843  0.7447 -0.3560
10570TIP3    H153201   5.019   1.089   5.895 -1.1448  0.0509  0.0370
10570TIP3    H253202   4.958   1.095   6.034 -0.2096  1.5185  0.4040
10571TIP3   OH253203   2.582   5.172  13.226 -0.1160 -0.0745  0.4438
10571TIP3    H153204   2.636   5.206  13.154  0.4829 -0.7793  0.5456
10571TIP3    H253205   2.640   5.176  13.302 -0.1436 -1.0097  0.5196
10572TIP3   OH253206   6.050   5.753   2.123  0.1569 -0.0911 -0.0322
10572TIP3    H153207   6.122   5.752   2.060  0.6258  1.1755  0.4454
10572TIP3    H253208   6.088   5.722   2.205 -0.2059 -0.8030 -0.1311
10573TIP3   OH253209   5.316   1.033  17.117  0.4928  0.0549 -0.1174
10573TIP3    H153210   5.337   0.941  17.134 -0.3807 -0.2522 -0.6453
10573TIP3    H253211   5.283   1.034  17.027  0.6136  0.9076 -0.1584
10574TIP3   OH253212   0.968   6.426   1.662 -1.0799  0.1047  0.0222
10574TIP3    H153213   1.014   6.456   1.741 -1.6669 -2.5424  1.4703
10574TIP3    H253214   1.026   6.451   1.590  0.4094  0.9052  1.4317
10575TIP3   OH253215   0.343   1.800   4.641 -0.5195 -0.0238 -0.1411
10575TIP3    H153216   0.248   1.801   4.628 -0.3504 -0.1971 -1.5890
10575TIP3    H253217   0.357   1.854   4.719 -1.8686 -0.7648  0.6427
10576TIP3   OH253218   3.906   0.640   1.886  0.3192 -0.3138 -0.0074
10576TIP3    H153219   3.986   0.667   1.841  1.1581 -0.0772  1.5578
10576TIP3    H253220   3.926   0.553   1.921 -0.2550 -0.4165  0.0832
10577TIP3   OH253221   0.168   2.550   5.071 -0.4757 -0.3454  0.4164
10577TIP3    H153222   0.241   2.610   5.056 -1.7318  0.6113 -2.6226
10577TIP3    H253223   0.098   2.607   5.105 -0.8144 -0.6128  0.1675
10578TIP3   OH253224   4.394   1.385   6.096  0.3124 -0.0314 -0.2264
10578TIP3    H153225   4.347   1.419   6.020  0.5709 -0.1616 -0.4456
10578TIP3    H253226   4.329   1.383   6.166 -0.6488 -2.3570 -1.0932
10579TIP3   OH253227   6.800   4.104  11.549  0.5313  0.0257 -0.4842
10579TIP3    H153228   6.754   4.093  11.633  1.7091  0.1944  0.1967
10579TIP3    H253229   6.730   4.127  11.487 -0.8094 -2.8666 -0.2061
10580TIP3   OH253230   5.422   2.530  11.550 -0.1664  0.1964 -0.1883
10580TIP3    H153231   5.391   2.556  11.463  0.2683 -0.8061 -0.6553
10580TIP3    H253232   5.422   2.612  11.601  0.3166  0.9454 -1.3487
10581TIP3   OH253233   0.567   0.951   1.034  0.1204 -0.4442  0.3956
10581TIP3    H153234   0.506   0.943   0.961  0.1479  1.2443  0.1511
10581TIP3    H253235   0.612   0.866   1.037  0.1141 -0.5597 -1.5240
10582TIP3   OH253236   4.696   2.545   3.461  0.5107 -0.2105 -0.3524
10582TIP3    H153237   4.637   2.617   3.486  1.2196  0.7612 -1.3492
10582TIP3    H253238   4.760   2.587   3.404  2.0394 -1.2788  0.5110
10583TIP3   OH253239   1.993   4.743  16.798  0.2238  0.4957 -0.0833
10583TIP3    H153240   2.021   4.832  16.818  1.1439  0.2595 -0.2747
10583TIP3    H253241   2.025   4.691  16.871 -0.8624  0.3936  0.3533
10584TIP3   OH253242   0.010   3.171  12.052 -0.0774  0.3393  0.2292
10584TIP3    H153243  -0.040   3.092  12.030 -0.5295  0.6983 -0.0371
10584TIP3    H253244   0.094   3.137  12.084 -0.5201 -0.2713  0.7770
10585TIP3   OH253245   0.483   6.750  14.579 -0.2958 -0.0330  0.4620
10585TIP3    H153246   0.435   6.812  14.634 -0.9047 -2.5950  2.9924
10585TIP3    H253247   0.442   6.666  14.595  1.1328 -1.3463 -2.1049
10586TIP3   OH253248   6.191   1.203  12.874  0.9234 -0.4221 -0.5307
10586TIP3    H153249   6.166   1.210  12.967 -1.1128 -1.1439 -0.9783
10586TIP3    H253250   6.270   1.257  12.867 -0.4280  1.9275  1.0567
10587TIP3   OH253251   4.331   0.446  12.565  0.5109  0.3799 -0.4224
10587TIP3    H153252   4.351   0.499  12.642  1.5474 -0.8893  0.2375
10587TIP3    H253253   4.242   0.414  12.580  0.0533  1.5267 -0.6085
10588TIP3   OH253254   1.611   1.606   5.844 -0.8036 -0.1655  0.0081
10588TIP3    H153255   1.549   1.598   5.917 -0.3414 -0.4173  0.3790
10588TIP3    H253256   1.693   1.571   5.879  0.3321  2.6723  0.4545
10589TIP3   OH253257   5.105   0.756  12.114 -0.4100 -0.3579  0.3137
10589TIP3    H153258   5.082   0.699  12.041 -1.6363  2.6444 -1.8586
10589TIP3    H253259   5.190   0.723  12.144 -0.8154 -2.9533 -1.0759
10590TIP3   OH253260   3.511   3.475  11.701  1.2898  0.3147  0.0680
10590TIP3    H153261   3.544   3.390  11.730  0.7209 -0.3010 -1.0327
10590TIP3    H253262   3.494   3.464  11.608 -1.4507  0.7444  0.4400
10591TIP3   OH253263   2.891   0.256   0.260  0.0048 -0.2156 -0.1565
10591TIP3    H153264   2.860   0.260   0.350  2.5762  3.3490  0.7861
10591TIP3    H253265   2.834   0.191   0.218 -2.9306 -0.2373  3.3490
10592TIP3   OH253266   5.670   0.050   0.536  0.1877  0.2935 -0.5983
10592TIP3    H153267   5.634   0.136   0.513 -0.8293  0.0794  0.1284
10592TIP3    H253268   5.613   0.017   0.605  2.0112  0.0841  0.9056
10593TIP3   OH253269   6.116   3.692   2.821 -0.2144 -0.5001 -0.5843
10593TIP3    H153270   6.143   3.693   2.729 -1.6857 -0.5432 -1.0302
10593TIP3    H253271   6.036   3.743   2.824 -1.0537 -1.8032  0.3998
10594TIP3   OH253272   3.334   4.723   2.796  0.2408  0.6689  0.1640
10594TIP3    H153273   3.369   4.812   2.806 -0.4053  0.9257  0.1887
10594TIP3    H253274   3.390   4.669   2.851  1.2393  0.9022 -0.5892
10595TIP3   OH253275   4.081   1.566  13.829  0.9105 -0.2999 -0.0465
10595TIP3    H153276   4.059   1.551  13.737 -0.4974 -0.7537  0.3417
10595TIP3    H253277   4.001   1.545  13.876  0.7066  2.6472  1.0743
10596TIP3   OH253278   3.583   4.302  11.680 -0.1236 -0.2131 -0.5146
10596TIP3    H153279   3.658   4.287  11.622  0.1249 -0.2091 -0.2005
10596TIP3    H253280   3.522   4.353  11.628  1.3637  2.4678  0.1290
10597TIP3   OH253281   0.948   1.402  16.377 -0.3400  0.6699 -0.4708
10597TIP3    H153282   0.903   1.483  16.403 -2.4460 -0.5595 -0.0253
10597TIP3    H253283   1.038   1.429  16.359 -0.9268  3.0680 -0.1514
10598TIP3   OH253284   0.906   6.168   3.930  0.2177 -0.1353 -0.0358
10598TIP3    H153285   0.885   6.189   4.021  0.8781 -0.0323  0.0950
10598TIP3    H253286   0.824   6.134   3.894 -0.2490  0.5051  0.3898
10599TIP3   OH253287   3.717   1.288   1.702  0.0678  0.5639  0.2666
10599TIP3    H153288   3.674   1.236   1.635 -1.6302  0.6224  1.2697
10599TIP3    H253289   3.777   1.345   1.653 -2.5138  2.0101 -1.4598
10600TIP3   OH253290   0.157   4.241   0.467 -0.2832  0.3505  0.3679
10600TIP3    H153291   0.116   4.165   0.427 -0.7270  1.4956 -1.4827
10600TIP3    H253292   0.222   4.205   0.527 -0.3943 -1.4629 -0.5395
10601TIP3   OH253293   1.054   3.963  15.981 -0.1403  0.0781  0.2783
10601TIP3    H153294   0.978   3.980  16.037 -0.0823  1.6269 -0.0540
10601TIP3    H253295   1.045   3.872  15.954 -1.7294  0.1527  0.4733
10602TIP3   OH253296   0.817   4.024  16.968 -0.2736 -0.1135  0.1157
10602TIP3    H153297   0.748   4.065  16.916 -0.9999 -1.3125  0.1141
10602TIP3    H253298   0.834   3.940  16.925  0.1632 -0.4672  0.9534
10603TIP3   OH253299   6.768   2.280  16.511 -0.2878  0.0526  0.5003
10603TIP3    H153300   6.770   2.243  16.423  1.5176  0.2918  0.4149
10603TIP3    H253301   6.675   2.278  16.535 -0.5559 -2.1323 -0.4878
10604TIP3   OH253302   2.572   2.615  12.632 -0.4243 -0.3940 -0.3629
10604TIP3    H153303   2.625   2.677  12.681 -1.7644  0.0222  0.6362
10604TIP3    H253304   2.609   2.529  12.654 -0.8990 -0.2151  1.3517
10605TIP3   OH253305   5.827   3.924  14.706  0.0229  0.2835 -0.0923
10605TIP3    H153306   5.877   3.933  14.625 -0.1984  3.8350  0.0187
10605TIP3    H253307   5.737   3.911  14.677  0.2013 -0.3347 -0.3777
10606TIP3   OH253308   4.047   3.601  16.554 -0.2039  0.6082  0.1508
10606TIP3    H153309   4.095   3.683  16.568 -0.4316  0.6718  0.5788
10606TIP3    H253310   3.957   3.629  16.536 -0.2429  0.4617  0.1153
10607TIP3   OH253311   4.241   1.138   0.761 -0.1353  0.3022  0.8951
10607TIP3    H153312   4.254   1.044   0.769  3.1546  0.5907  0.3515
10607TIP3    H253313   4.261   1.173   0.848  0.1377  0.6049  0.7141
10608TIP3   OH253314   5.710   1.499   1.860  0.5601 -0.0827  0.0682
10608TIP3    H153315   5.750   1.524   1.777  0.0803 -0.0405 -0.1510
10608TIP3    H253316   5.618   1.484   1.839  0.6729 -1.2869  0.3361
10609TIP3   OH253317   2.772   0.432   4.643 -0.3808  0.0321  0.5357
10609TIP3    H153318   2.837   0.458   4.707 -0.3292  1.0640  0.0804
10609TIP3    H253319   2.796   0.479   4.563 -2.3404  1.3671  0.6684
10610TIP3   OH253320   1.803   6.207  14.847  0.5006  0.6554  0.6732
10610TIP3    H153321   1.823   6.300  14.848 -2.0907  1.3337 -0.9408
10610TIP3    H253322   1.772   6.188  14.935  0.6233  1.4104  0.8848
10611TIP3   OH253323   2.860   1.945  16.028 -0.2535  0.0717  0.3259
10611TIP3    H153324   2.835   1.987  15.945 -1.6125  1.2545  1.2763
10611TIP3    H253325   2.818   1.999  16.095  1.2393 -0.5636  1.8303
10612TIP3   OH253326   5.315   4.998  13.235 -0.3371 -0.3016 -0.0332
10612TIP3    H153327   5.268   5.077  13.263 -1.8176 -1.3661  0.6204
10612TIP3    H253328   5.403   5.008  13.272  0.2696  2.0472 -1.8311
10613TIP3   OH253329   4.265   4.863   4.181  0.0881  0.4712 -0.0311
10613TIP3    H153330   4.360   4.853   4.179  0.1141  0.1086  1.4970
10613TIP3    H253331   4.238   4.861   4.089  1.6038  1.1894 -0.5130
10614TIP3   OH253332   1.590   0.479   4.353  0.6373  0.3580 -0.2581
10614TIP3    H153333   1.516   0.526   4.391 -0.0618 -2.0084  1.5630
10614TIP3    H253334   1.627   0.429   4.426  3.3885  0.6062 -1.3491
10615TIP3   OH253335   5.897   3.194  11.330  0.7690 -0.6290  0.1891
10615TIP3    H153336   5.908   3.210  11.424 -0.1761 -0.8931  0.3557
10615TIP3    H253337   5.927   3.275  11.289 -0.0626  0.0092  0.7950
10616TIP3   OH253338   0.808   6.191  13.754  0.3559 -0.2451  0.0194
10616TIP3    H153339   0.746   6.184  13.682 -0.5063  2.4294  0.3996
10616TIP3    H253340   0.894   6.186  13.713 -0.1165  1.5458 -1.2769
10617TIP3   OH253341   0.497   2.398  15.983 -0.2292  0.3151  0.1384
10617TIP3    H153342   0.526   2.489  15.972  1.2868 -0.0573  0.7658
10617TIP3    H253343   0.533   2.353  15.907 -1.8223  0.4009 -0.6947
10618TIP3   OH253344   6.803   3.732   2.399  0.0605 -0.2345  0.6269
10618TIP3    H153345   6.842   3.688   2.475 -0.0896 -1.4528  0.0328
10618TIP3    H253346   6.722   3.771   2.432  0.0584 -0.6476  1.1225
10619TIP3   OH253347   5.165   4.198   1.253  0.0904  0.0498 -0.1964
10619TIP3    H153348   5.209   4.247   1.183  0.4204  1.2617  0.8327
10619TIP3    H253349   5.141   4.265   1.317 -0.4843 -1.0084  0.7116
10620TIP3   OH253350   0.143   5.036   4.656 -0.3612 -0.0134  0.6086
10620TIP3    H153351   0.203   5.033   4.730  1.0562  0.8347 -0.4623
10620TIP3    H253352   0.158   5.122   4.616  0.9493 -1.4169 -2.2415
10621TIP3   OH253353   3.481   2.630   6.461  0.0569  0.2057  0.3087
10621TIP3    H153354   3.471   2.538   6.440  1.2638 -0.0979  0.9934
10621TIP3    H253355   3.423   2.675   6.399 -1.4956 -1.0610  0.7776
10622TIP3   OH253356   1.983   5.822   6.559 -0.0564  0.1166 -0.1558
10622TIP3    H153357   1.906   5.844   6.611 -0.9162  0.6410 -1.5863
10622TIP3    H253358   1.980   5.883   6.485  1.5094 -0.1350 -0.4663
10623TIP3   OH253359   0.784   2.632  12.331 -0.6766  0.0506 -0.4349
10623TIP3    H153360   0.724   2.589  12.269  1.2880 -1.7534 -1.2296
10623TIP3    H253361   0.844   2.681  12.275  1.4458 -2.0113 -0.1327
10624TIP3   OH253362   0.721   1.832   1.996  0.2544 -0.1354 -0.3022
10624TIP3    H153363   0.716   1.924   2.023  0.9545 -0.1908  0.0550
10624TIP3    H253364   0.756   1.835   1.907  1.6509 -0.0866  0.2068
10625TIP3   OH253365   4.476   4.216   3.197  0.1541 -0.1858  0.4342
10625TIP3    H153366   4.469   4.299   3.150  1.4770  1.1100  2.3655
10625TIP3    H253367   4.553   4.174   3.159  0.2531  0.0886  0.3250
10626TIP3   OH253368   0.986   3.749   1.777  0.0838 -0.3505 -0.0114
10626TIP3    H153369   0.912   3.736   1.717  1.5970 -0.0983 -2.0714
10626TIP3    H253370   1.021   3.661   1.791 -0.6072 -0.4739  0.9915
10627TIP3   OH253371   1.685   3.149   0.994 -0.1927 -0.1775  0.1179
10627TIP3    H153372   1.778   3.141   0.973  0.0024  0.7202  0.5985
10627TIP3    H253373   1.656   3.059   1.010  1.0139 -0.3122  1.7434
10628TIP3   OH253374   5.399   0.209   4.266  0.0855  0.0579 -0.7407
10628TIP3    H153375   5.349   0.171   4.194 -0.8434  0.2964 -0.2414
10628TIP3    H253376   5.337   0.269   4.309  1.2350  1.4985 -0.9961
10629TIP3   OH253377   1.785   5.135   1.680 -0.1381 -0.2750  0.1375
10629TIP3    H153378   1.823   5.071   1.740  0.9968 -1.6732 -1.9439
10629TIP3    H253379   1.691   5.134   1.700 -0.0969 -2.3141  0.4698
10630TIP3   OH253380   6.173   1.145  14.939  0.3480  0.0964 -0.4926
10630TIP3    H153381   6.129   1.133  14.855 -0.7208 -1.5599  0.2580
10630TIP3    H253382   6.108   1.186  14.996  0.8242  0.5538 -0.2721
10631TIP3   OH253383   1.911   4.608  17.196 -0.4072  0.3990 -0.5012
10631TIP3    H153384   1.861   4.562  17.129  0.1813  1.3948 -1.6803
10631TIP3    H253385   1.877   4.575  17.279  1.2674 -3.5895 -1.1711
10632TIP3   OH253386   2.191   4.074   2.693 -0.4845  0.0290 -0.0397
10632TIP3    H153387   2.160   4.097   2.605 -0.3019 -0.9309 -0.3741
10632TIP3    H253388   2.112   4.046   2.740 -0.5375  0.2554  0.0068
10633TIP3   OH253389   5.396   4.273   6.454  0.2637 -0.0435 -0.4534
10633TIP3    H153390   5.350   4.320   6.524  1.0823 -1.9326  1.4537
10633TIP3    H253391   5.328   4.217   6.415  0.7606 -3.1541  2.6394
10634TIP3   OH253392   0.720   5.842  15.462 -0.2196  0.6090 -0.1865
10634TIP3    H153393   0.801   5.809  15.500  0.1025  0.5615 -0.8996
10634TIP3    H253394   0.671   5.763  15.439 -1.7226  0.5578  2.7379
10635TIP3   OH253395   4.917   4.095  15.118  0.2453  0.0776  0.3340
10635TIP3    H153396   4.860   4.172  15.115  0.6287  0.3308 -2.2451
10635TIP3    H253397   4.962   4.095  15.034 -0.0794 -3.2344  0.0523
10636TIP3   OH253398   5.372   5.467   3.835 -0.1779 -0.0826 -0.2386
10636TIP3    H153399   5.420   5.484   3.754 -1.2513 -0.4232 -0.9689
10636TIP3    H253400   5.333   5.552   3.857 -1.7498 -0.4775 -1.3518
10637TIP3   OH253401   5.093   2.926  14.020  0.2745  0.0468 -0.2543
10637TIP3    H153402   5.037   2.850  14.000 -0.6249  0.4894  0.4922
10637TIP3    H253403   5.054   2.964  14.098  0.3298  1.6718 -0.9820
10638TIP3   OH253404   3.351   1.360  11.913  0.2975 -0.2326 -0.0720
10638TIP3    H153405   3.438   1.394  11.935  0.0925  1.2682 -1.4119
10638TIP3    H253406   3.369   1.292  11.848  0.4346  0.7662 -1.1031
10639TIP3   OH253407   6.093   6.060  11.589 -0.4015 -0.5847  0.3046
10639TIP3    H153408   6.047   5.982  11.559 -0.3679 -0.0640 -1.1558
10639TIP3    H253409   6.125   6.037  11.676  0.5168 -2.5612 -0.5061
10640TIP3   OH253410   3.891   3.489  13.706  0.3251 -0.0760  0.0859
10640TIP3    H153411   3.850   3.407  13.735  0.0592 -1.0155 -2.6856
10640TIP3    H253412   3.843   3.513  13.627  2.2161  1.2215 -0.7354
10641TIP3   OH253413   3.944   2.576  14.576 -0.5409 -0.1879  0.1037
10641TIP3    H153414   3.866   2.554  14.526 -0.9650  0.5734  0.4125
10641TIP3    H253415   4.012   2.592  14.511 -0.5780 -1.0759 -0.1586
10642TIP3   OH253416   1.566   2.193  15.177 -0.3291  0.4298  0.4987
10642TIP3    H153417   1.552   2.162  15.267  1.8065 -3.0270 -0.1581
10642TIP3    H253418   1.650   2.239  15.181  0.6534 -1.2318  0.0802
10643TIP3   OH253419   5.635   6.296  16.619  0.9063  0.4147 -0.0801
10643TIP3    H153420   5.723   6.331  16.604  0.4330  2.3387  1.2125
10643TIP3    H253421   5.577   6.368  16.594 -0.2394 -0.2786  0.5270
10644TIP3   OH253422   5.923   5.361   4.886 -0.3435 -0.1712 -0.2130
10644TIP3    H153423   5.980   5.285   4.872 -0.2407 -0.3385  1.0051
10644TIP3    H253424   5.921   5.373   4.981 -0.1947  1.4824 -0.3781
10645TIP3   OH253425   6.226   3.809   4.956 -0.2803 -0.1235 -0.0561
10645TIP3    H153426   6.251   3.721   4.983 -1.4037 -0.9390 -1.5313
10645TIP3    H253427   6.292   3.834   4.892 -0.5989 -0.3672 -0.4830
10646TIP3   OH253428   6.553   5.257   1.407 -0.2353 -0.0286  0.0996
10646TIP3    H153429   6.486   5.244   1.474  0.4015  2.1527  1.2860
10646TIP3    H253430   6.507   5.301   1.335 -0.4595 -0.2838  0.0858
10647TIP3   OH253431   0.321   4.542   5.552  0.1520  0.4533  0.3747
10647TIP3    H153432   0.289   4.549   5.642 -0.1594  1.5614  0.1920
10647TIP3    H253433   0.247   4.506   5.503  0.3566 -0.2491  0.5753
10648TIP3   OH253434   2.048   5.875  14.401  0.6147  0.5034  0.0639
10648TIP3    H153435   1.955   5.878  14.380  0.7970  0.3738 -0.8100
10648TIP3    H253436   2.063   5.785  14.431  0.3730  0.6546  0.6466
10649TIP3   OH253437   0.416   2.587  11.402  0.1398  0.0861  0.6993
10649TIP3    H153438   0.417   2.608  11.496  0.6057 -0.9890  0.9592
10649TIP3    H253439   0.423   2.491  11.400 -0.9085  0.0167 -0.4194
10650TIP3   OH253440   4.618   0.743   3.940  0.4412  0.2323 -0.4868
10650TIP3    H153441   4.578   0.765   3.856  0.1318 -2.1636 -1.0471
10650TIP3    H253442   4.593   0.652   3.954 -0.0603  0.7530  2.5535
10651TIP3   OH253443   5.100   2.199  14.560 -0.2229  0.3072  0.0478
10651TIP3    H153444   5.026   2.246  14.599 -0.0680  0.9348 -0.3957
10651TIP3    H253445   5.059   2.132  14.505 -0.4634  0.7004 -0.2559
10652TIP3   OH253446   1.077   1.240  15.708  0.1703  0.8684 -0.2845
10652TIP3    H153447   1.099   1.331  15.689  0.2931  1.0003  0.4487
10652TIP3    H253448   1.093   1.194  15.626 -0.9477  1.6825 -0.9771
10653TIP3   OH253449   3.642   3.202   1.402  0.5013  0.6476 -0.0292
10653TIP3    H153450   3.616   3.221   1.493  1.4924  0.1921  0.3698
10653TIP3    H253451   3.572   3.149   1.367 -0.5808  1.9939  0.0053
10654TIP3   OH253452   2.685   1.385  14.763 -0.3905 -0.2370 -0.6103
10654TIP3    H153453   2.650   1.380  14.852 -0.2039 -0.5844 -0.5534
10654TIP3    H253454   2.768   1.338  14.768  0.0416  0.4866 -0.7653
10655TIP3   OH253455   1.013   6.790   2.567  0.2324  0.1794 -0.1971
10655TIP3    H153456   1.014   6.706   2.520 -0.6437  0.5728 -0.9540
10655TIP3    H253457   0.999   6.766   2.659  1.7841 -0.5934 -0.1365
10656TIP3   OH253458   2.134   1.829  13.658  0.4390 -0.2320  0.1369
10656TIP3    H153459   2.055   1.799  13.613  0.7460 -0.5088 -0.2235
10656TIP3    H253460   2.160   1.755  13.713 -0.4032  0.3940  1.4194
10657TIP3   OH253461   4.198   6.609   2.336 -0.3666  0.1210 -0.1301
10657TIP3    H153462   4.267   6.649   2.282 -0.6016  1.2669  0.3749
10657TIP3    H253463   4.177   6.677   2.401 -1.6084 -0.4054  0.0395
10658TIP3   OH253464   0.301   5.822  16.035 -0.0163 -0.2359 -0.3660
10658TIP3    H153465   0.333   5.905  15.999  2.0204  0.8378  3.4039
10658TIP3    H253466   0.369   5.759  16.013  0.5001  0.0814  0.2867
10659TIP3   OH253467   5.902   2.034  15.339 -0.3768 -0.3800  0.5196
10659TIP3    H153468   5.912   1.944  15.372  0.2482 -0.8273 -0.8172
10659TIP3    H253469   5.985   2.076  15.360 -0.6339 -0.1337  1.0591
10660TIP3   OH253470   0.481   2.787  12.499 -0.1767 -0.1063  0.1660
10660TIP3    H153471   0.477   2.691  12.496  0.2800 -0.1169 -0.2246
10660TIP3    H253472   0.446   2.809  12.586 -1.2440 -0.5636 -0.1259
10661TIP3   OH253473   5.485   0.014  17.073  0.0112  0.1096 -0.0709
10661TIP3    H153474   5.441  -0.060  17.115  2.6874 -1.0079  1.0388
10661TIP3    H253475   5.537  -0.026  17.003  0.8961  1.0229  0.0390
10662TIP3   OH253476   4.509   0.914  13.330 -0.0635  0.0509  0.2627
10662TIP3    H153477   4.441   0.955  13.275  0.5469  0.4674 -0.1954
10662TIP3    H253478   4.463   0.892  13.411 -1.2131 -1.4371 -0.7401
10663TIP3   OH253479   6.460   2.617  13.948  0.3643  0.1129 -0.0420
10663TIP3    H153480   6.385   2.558  13.947 -0.5909  1.2928  0.1754
10663TIP3    H253481   6.428   2.697  13.907  2.2140 -0.1480 -2.1941
10664TIP3   OH253482   1.900   5.816   0.006 -0.0997  0.3429  0.5614
10664TIP3    H153483   1.896   5.804   0.101 -2.0207  0.0142  0.4823
10664TIP3    H253484   1.842   5.890  -0.012 -1.4739 -0.9291 -0.5230
10665TIP3   OH253485   5.538   3.684   5.592 -0.3981 -0.0276  0.2944
10665TIP3    H153486   5.465   3.647   5.542 -0.7783  0.9612  0.0903
10665TIP3    H253487   5.522   3.778   5.591  0.1918  0.1016  1.3488
10666TIP3   OH253488   0.727   5.423  11.253 -0.3117  0.0045  0.2040
10666TIP3    H153489   0.638   5.392  11.274 -0.9660  1.2681 -0.6489
10666TIP3    H253490   0.784   5.354  11.288 -1.5760 -0.4600  1.4800
10667TIP3   OH253491   3.509   4.189   1.935  0.1824 -0.2805  0.2423
10667TIP3    H153492   3.525   4.098   1.908 -1.5417 -0.4205 -0.4004
10667TIP3    H253493   3.595   4.221   1.962  0.9555 -1.8759 -0.2035
10668TIP3   OH253494   6.683   4.620  16.861  0.0356 -1.2949  0.0129
10668TIP3    H153495   6.591   4.600  16.842 -0.7449  0.8261  1.1755
10668TIP3    H253496   6.686   4.630  16.956  1.2011 -0.2060 -0.1094
10669TIP3   OH253497   4.693   6.809   5.379  0.4994 -0.2225  0.1368
10669TIP3    H153498   4.762   6.742   5.374  0.0476 -1.0193  2.8849
10669TIP3    H253499   4.615   6.764   5.345  0.5640 -0.5102  0.3631
10670TIP3   OH253500   1.202   0.405   2.548 -0.0129  0.1864  0.0555
10670TIP3    H153501   1.238   0.363   2.626 -1.2759  0.5639  0.8644
10670TIP3    H253502   1.194   0.333   2.484 -1.2456 -0.6557  1.0983
10671TIP3   OH253503   4.201   4.286  14.502 -0.2019  0.4213 -0.1495
10671TIP3    H153504   4.164   4.264  14.417 -1.8222  0.3020  0.5528
10671TIP3    H253505   4.158   4.227  14.563  1.3151  0.1422  0.7222
10672TIP3   OH253506   3.191   2.144  12.752 -0.2702 -0.3415  0.6863
10672TIP3    H153507   3.106   2.100  12.749 -0.1430 -1.2660  4.8792
10672TIP3    H253508   3.182   2.210  12.819  2.4279 -0.7918  1.6260
10673TIP3   OH253509   1.049   5.914  11.839 -0.5464  0.2492 -0.6747
10673TIP3    H153510   1.030   5.856  11.766  1.5947  0.9378 -1.8743
10673TIP3    H253511   0.997   5.993  11.822  0.5336  0.7296 -1.9729
10674TIP3   OH253512   5.368   6.372  15.388  0.5327  0.0926  0.0858
10674TIP3    H153513   5.288   6.386  15.438  0.8991  2.5759  0.0962
10674TIP3    H253514   5.432   6.344  15.452  0.1128 -0.1750  0.3914
10675TIP3   OH253515   1.762   0.306  15.926 -0.2925  0.0448 -0.2024
10675TIP3    H153516   1.820   0.382  15.923  1.0817 -0.9693 -1.8674
10675TIP3    H253517   1.807   0.240  15.872 -2.1942 -1.3937 -0.1417
10676TIP3   OH253518   1.587   0.211  14.957 -0.2377  0.2099 -0.4972
10676TIP3    H153519   1.675   0.200  14.921  0.4085  2.7878  0.0506
10676TIP3    H253520   1.533   0.232  14.881  0.3703  1.9854 -0.4934
10677TIP3   OH253521   3.374   4.360   4.955 -0.1845  0.4496 -0.5191
10677TIP3    H153522   3.288   4.372   4.995  0.3505  0.0194  0.8124
10677TIP3    H253523   3.423   4.438   4.979 -0.4479  1.1151 -2.0221
10678TIP3   OH253524   6.509   1.286   1.524  0.4046 -0.1479 -0.1606
10678TIP3    H153525   6.544   1.374   1.512 -0.6405  0.1005 -1.6230
10678TIP3    H253526   6.416   1.299   1.545  0.1221 -0.8855 -0.8618
10679TIP3   OH253527   5.488   1.287  15.849  0.4615 -0.0164  0.0597
10679TIP3    H153528   5.403   1.266  15.810  0.0662  1.6632 -0.0626
10679TIP3    H253529   5.493   1.231  15.926 -0.4858 -0.5776 -0.2601
10680TIP3   OH253530   3.216   5.620   1.768  0.6078 -0.2966  0.2907
10680TIP3    H153531   3.243   5.680   1.698 -1.1159  1.3081  0.9008
10680TIP3    H253532   3.132   5.656   1.798  0.1318 -2.3428  1.5505
10681TIP3   OH253533   0.491   6.601   2.001 -0.3580  0.4072  0.2068
10681TIP3    H153534   0.473   6.677   2.056  0.9013 -0.3083  1.6880
10681TIP3    H253535   0.431   6.610   1.927 -2.0236  1.4914  1.6033
10682TIP3   OH253536   1.326   2.201  13.621  0.2293  0.4844 -0.2294
10682TIP3    H153537   1.366   2.190  13.707 -0.3546 -0.8735 -0.1011
10682TIP3    H253538   1.400   2.218  13.562  0.6780  0.9452  0.4543
10683TIP3   OH253539   4.399   2.024   1.142 -0.6316 -0.5071 -0.0905
10683TIP3    H153540   4.384   2.099   1.085 -2.2193 -1.4162 -0.9655
10683TIP3    H253541   4.435   1.956   1.084 -0.8221 -0.9555  0.3065
10684TIP3   OH253542   3.385   6.403   2.556 -0.2118 -0.7056  0.1335
10684TIP3    H153543   3.322   6.389   2.485 -1.6736 -1.5317  1.5271
10684TIP3    H253544   3.357   6.484   2.599  0.3963 -0.4466  0.0604
10685TIP3   OH253545   1.181   4.377   1.198 -0.2936  0.0833 -0.7906
10685TIP3    H153546   1.257   4.340   1.243 -0.3862 -3.3163 -3.0385
10685TIP3    H253547   1.210   4.388   1.107 -2.6104 -2.3414 -1.9683
10686TIP3   OH253548   6.251   0.272   0.201 -0.1420 -0.7248 -0.1843
10686TIP3    H153549   6.183   0.224   0.155  0.3563 -0.9150 -0.7385
10686TIP3    H253550   6.333   0.230   0.174  0.1737 -0.7644  0.7872
10687TIP3   OH253551   2.262   0.437   5.139  0.2501  0.2694  0.6321
10687TIP3    H153552   2.297   0.399   5.220  0.6098  1.0116  0.8373
10687TIP3    H253553   2.188   0.491   5.167  1.1969  1.6095  0.6580
10688TIP3   OH253554   1.455   4.555   5.153  0.2428  0.5030  0.4963
10688TIP3    H153555   1.399   4.630   5.173  0.9728  1.7325 -1.6912
10688TIP3    H253556   1.544   4.589   5.161  0.5997 -0.3305  0.1427
10689TIP3   OH253557   2.595   3.034  12.016 -0.6266 -0.4515  0.5213
10689TIP3    H153558   2.635   3.039  12.103  4.1721  1.3465 -1.4522
10689TIP3    H253559   2.586   3.125  11.988  2.9046 -0.7880 -2.5534
10690TIP3   OH253560   0.330   3.094  13.150 -0.1788 -0.0976 -0.2247
10690TIP3    H153561   0.274   3.121  13.078  0.2495 -0.9733 -0.9082
10690TIP3    H253562   0.314   3.159  13.219 -1.2187  0.2699 -0.7914
10691TIP3   OH253563   2.814   6.554   5.711 -0.2803 -0.6691 -0.2780
10691TIP3    H153564   2.832   6.493   5.640  1.6426 -0.7044  0.1879
10691TIP3    H253565   2.801   6.499   5.788  2.7899 -0.5701  0.4309
10692TIP3   OH253566   6.248   6.767  11.217  0.2750  0.1749  0.0416
10692TIP3    H153567   6.156   6.766  11.242 -0.2798  2.7292 -1.5497
10692TIP3    H253568   6.250   6.725  11.131  0.7223 -0.4635  0.3538
10693TIP3   OH253569   4.646   3.958  13.174  0.1280  0.3729 -0.7004
10693TIP3    H153570   4.676   3.879  13.129 -0.9310 -1.8406  2.1833
10693TIP3    H253571   4.563   3.980  13.131  0.1943 -0.3636 -1.2288
10694TIP3   OH253572   0.004   1.979   0.767  0.2160  0.0957 -0.3609
10694TIP3    H153573   0.075   1.919   0.792 -1.7690 -2.2515 -0.0144
10694TIP3    H253574  -0.013   1.959   0.675 -0.6358 -0.0920 -0.1711
10695TIP3   OH253575   4.667   3.430  11.856  0.6927  0.3226  0.1233
10695TIP3    H153576   4.670   3.457  11.764  1.0723 -1.4870 -0.4369
10695TIP3    H253577   4.607   3.356  11.857  1.4198 -0.2754  1.1607
10696TIP3   OH253578   3.417   0.811   3.476 -0.3660 -0.2786  0.0991
10696TIP3    H153579   3.504   0.786   3.447 -1.0743 -0.0635 -2.5388
10696TIP3    H253580   3.422   0.811   3.571  1.9222 -2.2679  0.0805
10697TIP3   OH253581   6.298   2.799  13.168 -0.1269 -0.3541 -0.2960
10697TIP3    H153582   6.317   2.777  13.076 -0.3848 -1.2812 -0.1431
10697TIP3    H253583   6.225   2.860  13.163  0.3733  0.2195 -0.7359
10698TIP3   OH253584   0.158   3.705   4.893  0.7516 -0.6907 -0.1739
10698TIP3    H153585   0.130   3.628   4.943 -1.6987  0.3008  0.1443
10698TIP3    H253586   0.230   3.673   4.838  0.5388 -2.9210  0.7181
10699TIP3   OH253587   4.288   2.391   5.462 -0.0245 -0.0698  0.0267
10699TIP3    H153588   4.208   2.404   5.513  0.7677  0.5837  1.1583
10699TIP3    H253589   4.287   2.298   5.439 -0.5937 -0.3133  0.9497
10700TIP3   OH253590   2.293   6.552   4.496 -0.4979  0.0556 -0.1404
10700TIP3    H153591   2.203   6.578   4.514 -0.6694  0.0471 -0.9527
10700TIP3    H253592   2.305   6.568   4.403  0.8908  1.7103  0.2743
10701TIP3   OH253593   5.279   1.649  13.591  0.0465  0.1232 -0.6693
10701TIP3    H153594   5.326   1.658  13.508 -2.4661  1.2439 -2.1051
10701TIP3    H253595   5.237   1.563  13.585  0.2231  0.0143 -0.3486
10702TIP3   OH253596   4.269   3.949   0.687 -0.0350 -0.2618  0.0809
10702TIP3    H153597   4.176   3.961   0.668 -0.4611 -0.2722  1.9085
10702TIP3    H253598   4.290   4.020   0.748  1.6611  0.8589 -1.6967
10703TIP3   OH253599   1.804   1.796  12.647  0.4883 -0.5085 -0.1284
10703TIP3    H153600   1.827   1.813  12.556  2.6067 -2.4402 -0.0276
10703TIP3    H253601   1.853   1.861  12.697  0.1959 -0.1556 -0.2964
10704TIP3   OH253602   0.308   6.606  12.413 -0.4289 -0.2235  0.1098
10704TIP3    H153603   0.243   6.641  12.474 -1.2760 -1.6589  0.0879
10704TIP3    H253604   0.256   6.560  12.346  0.5424  0.0477 -0.8689
10705TIP3   OH253605   4.713   2.113   3.973  0.5688  0.1852  0.5393
10705TIP3    H153606   4.783   2.155   3.924  2.7283 -3.1192  0.4208
10705TIP3    H253607   4.753   2.089   4.056 -0.8825 -0.4507  1.0888
10706TIP3   OH253608   2.825   6.493  16.685 -0.3618 -0.1517 -0.2085
10706TIP3    H153609   2.914   6.519  16.664 -0.5325  0.0852 -0.6701
10706TIP3    H253610   2.806   6.535  16.769 -0.3636  0.5933 -0.5694
10707TIP3   OH253611   2.191   4.077  11.630  0.0760 -0.0088 -0.5018
10707TIP3    H153612   2.257   4.023  11.587 -1.0375 -0.6761 -1.4216
10707TIP3    H253613   2.118   4.080  11.569 -0.1522  2.0507 -0.2008
10708TIP3   OH253614   3.698   1.308   2.995 -0.2990  0.1890  0.4403
10708TIP3    H153615   3.694   1.403   2.996  1.7922  0.3486 -0.3018
10708TIP3    H253616   3.788   1.288   2.968 -0.4142 -1.9972  1.4402
10709TIP3   OH253617   4.513   0.612  11.669 -0.4712  0.7873 -0.0708
10709TIP3    H153618   4.528   0.541  11.731 -3.5071 -0.8510 -1.0160
10709TIP3    H253619   4.509   0.691  11.724  0.4132 -0.0982  1.3326
10710TIP3   OH253620   6.035   3.918  15.872 -0.1653  0.2853 -0.0932
10710TIP3    H153621   5.986   3.936  15.952 -0.2471  1.1901 -0.3335
10710TIP3    H253622   5.979   3.951  15.802  1.2572  2.4633 -0.2935
10711TIP3   OH253623   0.916   3.316   2.190 -0.3232  0.1383 -0.1788
10711TIP3    H153624   0.999   3.285   2.153 -0.2600 -1.8190  1.3861
10711TIP3    H253625   0.942   3.381   2.255  0.1301 -1.0416  0.8823
10712TIP3   OH253626   4.332   5.481   0.265  0.0934 -0.2830  0.1239
10712TIP3    H153627   4.372   5.395   0.253 -0.7056 -0.7737  0.9182
10712TIP3    H253628   4.375   5.536   0.199  0.3527 -1.3705 -0.6476
10713TIP3   OH253629   6.796   5.702   2.295 -0.4948 -0.0221  0.0114
10713TIP3    H153630   6.737   5.774   2.320  0.5899  0.8719  0.0642
10713TIP3    H253631   6.876   5.745   2.267  0.1978 -1.2257  0.0725
10714TIP3   OH253632   4.597   3.520  16.971  0.5243 -0.1691 -0.2119
10714TIP3    H153633   4.550   3.468  16.906  0.7505  1.2762 -1.6012
10714TIP3    H253634   4.672   3.555  16.924  0.0404  1.9214  0.4351
10715TIP3   OH253635   6.079   6.409   2.882 -0.7797  0.0566  0.0990
10715TIP3    H153636   6.175   6.408   2.889 -0.6299 -1.5423 -1.4349
10715TIP3    H253637   6.053   6.320   2.906 -1.8602  0.4099  0.2558
10716TIP3   OH253638   0.743   6.379   1.812 -0.8441 -0.2645 -0.2191
10716TIP3    H153639   0.777   6.407   1.897  1.6465 -0.1525 -1.1786
10716TIP3    H253640   0.806   6.412   1.749 -1.9180 -1.4816 -2.0213
10717TIP3   OH253641   2.318   3.225   3.780  0.3253 -0.2007  0.0175
10717TIP3    H153642   2.261   3.275   3.838  1.7171  0.1151  1.1914
10717TIP3    H253643   2.318   3.274   3.698 -1.6065 -0.5995 -0.2717
10718TIP3   OH253644   1.300   1.852   2.442 -0.5889  0.2864 -0.4288
10718TIP3    H153645   1.332   1.891   2.361 -0.0875 -0.3265 -0.5361
10718TIP3    H253646   1.345   1.900   2.511  1.0610 -0.9234 -0.5860
10719TIP3   OH253647   1.866   4.704  11.235 -0.3762  0.7183  0.0162
10719TIP3    H153648   1.916   4.711  11.154  0.8498  1.8161  0.8279
10719TIP3    H253649   1.841   4.794  11.256 -1.7023  0.3139  0.2568
10720TIP3   OH253650   4.886   1.992  11.679  0.1796  0.3890  0.4439
10720TIP3    H153651   4.939   2.007  11.757 -1.3038  0.2453  1.5154
10720TIP3    H253652   4.826   2.066  11.676  0.1846  0.3610 -0.5401
10721TIP3   OH253653   4.937   6.612   1.321  0.0460 -0.1214  0.5871
10721TIP3    H153654   5.005   6.654   1.374  0.4994 -0.2418  0.1099
10721TIP3    H253655   4.856   6.656   1.346  0.5049  1.0567  0.0815
10722TIP3   OH253656   3.096   0.037   5.800  0.0389 -0.2068 -0.1790
10722TIP3    H153657   3.166  -0.008   5.752  2.0682 -0.6921  2.9460
10722TIP3    H253658   3.133   0.123   5.822 -1.7391  0.9329 -1.4201
10723TIP3   OH253659   3.247   0.377   1.984  0.5179 -0.2830 -0.2463
10723TIP3    H153660   3.326   0.323   1.982 -0.1557 -1.2704 -1.1189
10723TIP3    H253661   3.241   0.408   2.075  0.8335 -1.8217  0.3196
10724TIP3   OH253662   4.926   1.470  13.701 -0.2408 -0.0424 -0.4830
10724TIP3    H153663   4.911   1.397  13.640 -0.0248  0.7810 -1.5510
10724TIP3    H253664   5.022   1.478  13.704 -0.2725  0.3369 -0.5340
10725TIP3   OH253665   5.167   1.726  12.852  0.2086 -0.1700  0.2216
10725TIP3    H153666   5.167   1.662  12.780  1.1692 -0.4070  0.4186
10725TIP3    H253667   5.212   1.802  12.817 -3.0094  1.4508 -0.8450
10726TIP3   OH253668   2.748   3.587   3.638 -0.1194  0.0762 -0.1820
10726TIP3    H153669   2.669   3.579   3.693 -0.1347  0.7944 -0.0909
10726TIP3    H253670   2.717   3.627   3.557 -0.1602 -1.3126 -0.8791
10727TIP3   OH253671   5.282   1.680   0.261  0.2814 -0.5537  0.1225
10727TIP3    H153672   5.324   1.758   0.297 -1.7337  0.3460  0.6909
10727TIP3    H253673   5.222   1.714   0.195 -1.5799 -1.4629  1.2680
10728TIP3   OH253674   0.447   5.807  15.107  0.1649  0.3425  0.4098
10728TIP3    H153675   0.433   5.769  15.194  0.6817  2.1188  1.3190
10728TIP3    H253676   0.541   5.825  15.104  1.0737 -3.6467 -2.2838
10729TIP3   OH253677   1.065   6.036  12.519 -0.2444 -0.1379 -0.3080
10729TIP3    H153678   1.037   5.973  12.453  0.5152  0.4205 -1.1757
10729TIP3    H253679   1.080   6.117  12.471 -0.6391  0.5608  0.6997
10730TIP3   OH253680   6.426   0.704  14.939  0.2441 -1.1461  0.6770
10730TIP3    H153681   6.347   0.741  14.899  0.7471  0.0860  0.7794
10730TIP3    H253682   6.427   0.613  14.911 -1.0568 -1.1010  0.4307
10731TIP3   OH253683   0.902   1.863   0.757  0.3600  0.6043  0.2695
10731TIP3    H153684   0.951   1.827   0.831  0.5082  1.3111  0.5273
10731TIP3    H253685   0.923   1.956   0.758 -1.2533  0.9906  0.5886
10732TIP3   OH253686   0.357   4.216   5.615 -0.1694 -0.4076 -0.1441
10732TIP3    H153687   0.312   4.133   5.627  0.6047 -1.0160 -1.2826
10732TIP3    H253688   0.312   4.258   5.543  0.3430 -0.5014 -0.5265
10733TIP3   OH253689   0.558   5.072  16.537 -0.1131 -0.4653  0.6559
10733TIP3    H153690   0.574   4.989  16.493 -0.7990  0.0007 -0.5244
10733TIP3    H253691   0.463   5.085  16.529 -0.1479 -0.0374  1.6808
10734TIP3   OH253692   3.130   1.107   5.438 -0.1270  0.3285  0.1065
10734TIP3    H153693   3.079   1.069   5.510 -0.7042  0.0625 -0.4264
10734TIP3    H253694   3.118   1.045   5.366  0.0369  0.8422 -0.3672
10735TIP3   OH253695   2.556   2.269   1.241  0.2580 -0.0568 -0.1763
10735TIP3    H153696   2.612   2.241   1.168  0.0847  0.6736 -0.6016
10735TIP3    H253697   2.613   2.262   1.318  0.8809  0.4714 -0.5725
10736TIP3   OH253698   2.509   1.776   2.446 -0.9591  0.0848  0.2239
10736TIP3    H153699   2.593   1.760   2.489 -1.6309 -0.0112  1.5491
10736TIP3    H253700   2.502   1.706   2.381 -0.9261 -1.1568  1.5081
10737TIP3   OH253701   6.547   2.830   1.046 -0.1998 -0.3782 -0.0848
10737TIP3    H153702   6.467   2.883   1.044 -1.0552 -1.6494 -1.2516
10737TIP3    H253703   6.617   2.893   1.067 -1.4290  0.8389  0.5016
10738TIP3   OH253704   0.440   3.150   5.172 -0.3217 -0.5403  0.5355
10738TIP3    H153705   0.485   3.088   5.114  0.9697 -0.4025  1.3437
10738TIP3    H253706   0.355   3.109   5.190  0.6482 -2.3031  1.3646
10739TIP3   OH253707   5.650   3.902  13.859  0.1789  0.2378 -0.0161
10739TIP3    H153708   5.608   3.981  13.823  1.2243  0.8017 -0.0446
10739TIP3    H253709   5.595   3.877  13.933  0.8762  2.1525  1.2206
10740TIP3   OH253710   5.621   3.007   4.171 -0.1984 -0.1653  0.5560
10740TIP3    H153711   5.601   2.943   4.103  0.1582  0.4476 -0.1431
10740TIP3    H253712   5.666   2.957   4.239  1.4291 -0.4017 -0.6391
10741TIP3   OH253713   6.694   4.459   1.921  0.0374  0.0632  0.0508
10741TIP3    H153714   6.685   4.506   1.839  0.9833  1.3015  0.6344
10741TIP3    H253715   6.769   4.500   1.965 -0.6751 -0.3077  1.6986
10742TIP3   OH253716   1.400   3.186  15.322  0.4055  0.2161 -0.0251
10742TIP3    H153717   1.318   3.206  15.276  1.2032  0.9581 -1.1852
10742TIP3    H253718   1.386   3.099  15.359 -0.2438 -0.4825 -1.8037
10743TIP3   OH253719   3.099   1.242   2.743 -0.2741  0.6866  0.4127
10743TIP3    H153720   3.115   1.162   2.794 -0.7573  0.0353 -0.4393
10743TIP3    H253721   3.144   1.311   2.792 -1.0762  0.1624  1.9432
10744TIP3   OH253722   1.116   5.274   3.782 -0.1720 -0.2956 -0.0722
10744TIP3    H153723   1.163   5.195   3.810  1.7319  0.7963 -0.0561
10744TIP3    H253724   1.035   5.273   3.833  0.0363 -1.9831  0.2658
10745TIP3   OH253725   3.200   5.802   4.169  0.1402 -0.2526  0.1142
10745TIP3    H153726   3.271   5.824   4.228 -0.3444 -1.1488  1.0725
10745TIP3    H253727   3.240   5.744   4.104  0.7460  0.9899 -0.6570
10746TIP3   OH253728   6.681   0.171   5.929 -0.3148 -0.1525 -0.0510
10746TIP3    H153729   6.656   0.259   5.903 -0.5463 -0.4857 -0.9978
10746TIP3    H253730   6.776   0.168   5.918 -0.5886 -0.9014 -2.9573
10747TIP3   OH253731   1.018   1.633   0.656 -0.3289 -0.3465  0.3213
10747TIP3    H153732   1.000   1.590   0.572 -2.6859  0.3682  0.4010
10747TIP3    H253733   0.973   1.717   0.651  1.4081  0.7315  1.4617
10748TIP3   OH253734   4.640   4.537   6.451  0.3208 -0.0566 -0.1258
10748TIP3    H153735   4.622   4.601   6.520  0.4134 -0.5615  0.3700
10748TIP3    H253736   4.611   4.454   6.487  1.8542 -0.5903 -0.0422
10749TIP3   OH253737   1.700   4.538  11.867  0.6123 -0.0432 -0.1466
10749TIP3    H153738   1.718   4.464  11.926 -1.8540 -1.6445 -1.2256
10749TIP3    H253739   1.605   4.545  11.865  0.7381  2.5890 -0.8663
10750TIP3   OH253740   0.945   1.398  15.957 -0.4863  0.3597 -0.2893
10750TIP3    H153741   1.009   1.335  15.990  0.1451  0.4185 -1.3502
10750TIP3    H253742   0.861   1.355  15.969 -0.1142 -0.3993 -0.3562
10751TIP3   OH253743   3.780   0.106  13.928  0.1842  0.6477  0.1207
10751TIP3    H153744   3.810   0.042  13.864 -2.0769 -0.3855  0.0188
10751TIP3    H253745   3.813   0.073  14.012  0.1808  0.1072 -0.0887
10752TIP3   OH253746   0.069   3.951   0.502 -0.4332  0.1971  0.2745
10752TIP3    H153747   0.132   3.885   0.472 -1.1300 -0.2224 -0.2733
10752TIP3    H253748   0.095   3.968   0.593 -1.3394 -2.1890  1.0579
10753TIP3   OH253749   3.998   3.012  15.141  0.4948 -0.4919 -0.6056
10753TIP3    H153750   4.028   2.934  15.094 -1.4314 -0.8574 -1.3248
10753TIP3    H253751   4.068   3.076  15.128  1.6954 -1.7941 -0.7714
10754TIP3   OH253752   0.290   3.221  11.997  0.5496  0.1687  0.0523
10754TIP3    H153753   0.265   3.145  12.049  1.4501  0.3069  0.7077
10754TIP3    H253754   0.376   3.246  12.030 -0.3938  2.4703  0.9578
10755TIP3   OH253755   6.771   3.414   2.423  0.5117  0.8810  0.6408
10755TIP3    H153756   6.737   3.493   2.381  0.1727 -0.1717 -1.1613
10755TIP3    H253757   6.776   3.350   2.353 -2.4381 -1.7940  2.5987
10756TIP3   OH253758   5.662   5.799  11.672 -0.2932 -0.3373  0.0578
10756TIP3    H153759   5.623   5.751  11.599 -0.1804 -1.2631  0.5848
10756TIP3    H253760   5.656   5.738  11.746  0.4073  0.2421  0.6038
10757TIP3   OH253761   6.339   3.445   0.962 -0.3387  0.1476 -0.1766
10757TIP3    H153762   6.326   3.527   1.010  0.2385 -0.2274  0.6528
10757TIP3    H253763   6.266   3.389   0.989 -1.8392  1.0092 -2.2148
10758TIP3   OH253764   3.649   2.316  14.234  0.6468 -0.4408  0.3354
10758TIP3    H153765   3.604   2.236  14.207 -2.2238  0.0135  3.1688
10758TIP3    H253766   3.599   2.387  14.193  0.9464  0.0269  0.7665
10759TIP3   OH253767   4.547   3.086  15.095  0.2307 -0.2165 -0.0862
10759TIP3    H153768   4.573   3.101  15.004  2.1073 -0.6374  0.3415
10759TIP3    H253769   4.589   3.157  15.144  0.9836 -1.1820  0.6990
10760TIP3   OH253770   6.321   4.728   1.407  0.2823  0.2565  0.5065
10760TIP3    H153771   6.375   4.659   1.447  0.9268  0.0014 -0.7688
10760TIP3    H253772   6.342   4.806   1.457  1.5102  0.0627  0.3238
10761TIP3   OH253773   3.488   2.219  15.127 -0.2865 -0.5007 -0.4735
10761TIP3    H153774   3.500   2.223  15.033 -1.5187 -0.9783 -0.6651
10761TIP3    H253775   3.544   2.146  15.156  0.9459  0.3473 -0.6654
10762TIP3   OH253776   4.967   2.589   1.819  0.1758  0.2556 -0.5187
10762TIP3    H153777   4.962   2.509   1.872  0.6697 -0.2948 -1.2807
10762TIP3    H253778   4.878   2.623   1.819 -0.3478 -1.0180 -1.2649
10763TIP3   OH253779   2.247   0.403  13.402  0.5447 -0.2199  0.2358
10763TIP3    H153780   2.308   0.329  13.395 -0.1188 -0.9465  1.7049
10763TIP3    H253781   2.169   0.365  13.443 -0.1795  1.0963  0.1106
10764TIP3   OH253782   5.320   4.372  15.347 -0.0490  0.0050 -0.4741
10764TIP3    H153783   5.333   4.287  15.390 -0.0002 -0.2177 -0.9210
10764TIP3    H253784   5.226   4.389  15.354 -0.0627 -0.1006 -0.4068
10765TIP3   OH253785   4.102   0.898   2.204  0.2890 -0.0073 -0.6343
10765TIP3    H153786   4.164   0.930   2.270  0.0955  0.2863 -0.5909
10765TIP3    H253787   4.016   0.915   2.242  0.1519 -2.2144  0.1814
10766TIP3   OH253788   3.378   2.146   6.016 -0.2529 -0.1992 -0.1837
10766TIP3    H153789   3.454   2.089   6.023  0.5149  0.7185 -0.7754
10766TIP3    H253790   3.348   2.158   6.107  0.6654 -0.1024  0.1102
10767TIP3   OH253791   5.901   3.975   0.307  0.5454  0.3648 -0.1552
10767TIP3    H153792   5.995   3.957   0.319  0.8563  1.1207 -1.2617
10767TIP3    H253793   5.899   4.045   0.242 -0.8015  0.2876 -0.2134
10768TIP3   OH253794   1.476   5.754  16.113  0.6040 -0.1507 -0.0410
10768TIP3    H153795   1.505   5.713  16.194  1.1067  0.7720  0.2535
10768TIP3    H253796   1.545   5.734  16.050  0.0926 -1.0830 -0.3184
10769TIP3   OH253797   4.445   3.380  12.325 -0.0990 -0.2390 -0.2380
10769TIP3    H153798   4.492   3.299  12.346  1.3604  0.6248 -0.0057
10769TIP3    H253799   4.398   3.360  12.244 -2.4913 -2.3435  1.4691
10770TIP3   OH253800   3.827   5.289  13.929  0.0265  0.2589 -0.5107
10770TIP3    H153801   3.911   5.256  13.962 -0.9386 -0.7450  1.0273
10770TIP3    H253802   3.851   5.367  13.878  1.7585  0.9506  1.2503
10771TIP3   OH253803   0.093   4.324   2.294 -0.2171  0.3831  0.0253
10771TIP3    H153804   0.179   4.362   2.276  0.2731 -1.3425 -1.5809
10771TIP3    H253805   0.033   4.397   2.287  1.0402  1.5200  0.5784
10772TIP3   OH253806   5.148   5.451   6.087  0.3644  0.1002 -0.7207
10772TIP3    H153807   5.090   5.432   6.013 -0.1953 -1.7880  0.1599
10772TIP3    H253808   5.103   5.415   6.163  3.3292 -3.0270 -0.1827
10773TIP3   OH253809   4.039   3.176  15.716 -0.3451 -0.1547  0.4172
10773TIP3    H153810   4.010   3.087  15.694  0.7534 -0.8198  1.5330
10773TIP3    H253811   3.958   3.224  15.733 -0.9691 -0.8886 -0.3725
10774TIP3   OH253812   0.962   2.393   2.742  0.2735  0.2129  0.2293
10774TIP3    H153813   0.907   2.414   2.818  1.3767 -0.4065  1.2284
10774TIP3    H253814   1.030   2.461   2.743  1.3123 -0.7938  0.8743
10775TIP3   OH253815   0.744   3.064  16.486 -0.5441 -0.4998 -0.1705
10775TIP3    H153816   0.802   3.139  16.474 -0.4741 -0.4115  0.6720
10775TIP3    H253817   0.664   3.101  16.524 -0.8883 -0.7203 -0.6674
10776TIP3   OH253818   3.481   6.360  10.992  0.6376  0.4312  0.3422
10776TIP3    H153819   3.521   6.430  11.043  1.0588  0.7049 -0.3531
10776TIP3    H253820   3.554   6.320  10.944  0.0074  1.4815 -1.5956
10777TIP3   OH253821   1.038   1.865  11.839 -0.4735 -0.1571  0.7080
10777TIP3    H153822   1.006   1.785  11.879 -0.5899  0.6680  2.3440
10777TIP3    H253823   1.089   1.907  11.908 -1.3302  1.7088  0.2582
10778TIP3   OH253824   2.719   0.288  15.924  0.2464  0.2049  0.0556
10778TIP3    H153825   2.724   0.202  15.964 -1.9572 -0.1657 -0.3408
10778TIP3    H253826   2.705   0.348  15.997  0.9099  0.1392  0.2457
10779TIP3   OH253827   3.733   3.816   6.242  0.1259 -0.2542  0.2371
10779TIP3    H153828   3.722   3.865   6.160 -2.3013  2.1443  1.8272
10779TIP3    H253829   3.652   3.766   6.251  0.1295 -0.0665  1.4402
10780TIP3   OH253830   1.886   0.220   6.310 -0.1784 -0.1757 -0.1588
10780TIP3    H153831   1.912   0.237   6.401  0.3687  1.4343 -0.5941
10780TIP3    H253832   1.796   0.187   6.316  0.2157 -1.1004  1.0278
10781TIP3   OH253833   3.804   0.301  16.272 -0.1225  0.0844  0.2109
10781TIP3    H153834   3.738   0.352  16.320  1.5396 -0.6151  3.5687
10781TIP3    H253835   3.872   0.365  16.250  0.0141  0.0931  0.6354
10782TIP3   OH253836   0.059   2.245  10.758 -0.2210  0.2033  0.4328
10782TIP3    H153837   0.092   2.164  10.719  0.1934  0.7150 -0.2950
10782TIP3    H253838   0.041   2.221  10.849 -0.5197 -0.8200  0.1284
10783TIP3   OH253839   6.301   0.251  11.928  0.1702  0.1567 -0.4002
10783TIP3    H153840   6.211   0.230  11.953 -0.7011  2.4608 -1.2730
10783TIP3    H253841   6.318   0.334  11.972  1.7716 -0.0979 -0.5076
10784TIP3   OH253842   6.145   5.906  15.631 -0.2654  0.2105 -0.1470
10784TIP3    H153843   6.121   5.891  15.722  0.4982  0.0248  0.0332
10784TIP3    H253844   6.181   5.822  15.601 -2.2400 -0.3164 -1.2103
10785TIP3   OH253845   2.911   0.076  10.396  0.3581  0.1874  0.3040
10785TIP3    H153846   2.948   0.108  10.478  1.6235  0.1083 -0.2240
10785TIP3    H253847   2.969   0.005  10.369 -1.1739 -1.1436  0.3393
10786TIP3   OH253848   6.455   4.921  16.970 -0.4783 -0.3851  0.0813
10786TIP3    H153849   6.438   4.899  16.878 -0.0773 -1.0483  0.1559
10786TIP3    H253850   6.548   4.945  16.973 -0.4276 -0.5976  0.3459
10787TIP3   OH253851   0.615   0.891   2.565  0.6902 -0.1842  0.7760
10787TIP3    H153852   0.583   0.955   2.627 -0.3987 -0.2128  0.2671
10787TIP3    H253853   0.633   0.813   2.617  1.8309  0.4367  1.3641
10788TIP3   OH253854   4.049   1.250   4.083  0.6116  0.0596  0.1644
10788TIP3    H153855   4.034   1.160   4.052  0.8949 -0.0438  0.3222
10788TIP3    H253856   3.963   1.292   4.077  0.2411 -0.5285  1.0892
10789TIP3   OH253857   6.051   5.381   1.768  1.4744 -0.0401 -0.4156
10789TIP3    H153858   6.064   5.354   1.859  0.8637 -0.7374 -0.5215
10789TIP3    H253859   6.084   5.471   1.764 -1.0452  1.0462  1.1857
10790TIP3   OH253860   6.411   0.191  11.072  0.0320 -0.5728 -0.8814
10790TIP3    H153861   6.500   0.163  11.048  0.0599 -0.4594 -0.9082
10790TIP3    H253862   6.361   0.183  10.991  0.5769  1.7294 -1.5253
10791TIP3   OH253863   1.518   3.986  13.029 -0.3905 -0.2077  0.4016
10791TIP3    H153864   1.473   4.032  13.100 -0.2066 -0.8067  0.9104
10791TIP3    H253865   1.598   4.037  13.014 -1.1378  0.7832 -0.4160
10792TIP3   OH253866   4.126   5.646   0.439 -0.2349  0.2928 -0.3337
10792TIP3    H153867   4.162   5.594   0.367 -0.8037  0.2598 -0.5955
10792TIP3    H253868   4.105   5.731   0.399 -0.4547  0.3116 -0.1789
10793TIP3   OH253869   3.702   1.460  13.078  0.6189 -0.0907 -0.4623
10793TIP3    H153870   3.685   1.389  13.016  1.2634  1.3808 -2.4393
10793TIP3    H253871   3.616   1.500  13.092  0.7402  0.8037 -2.0547
10794TIP3   OH253872   0.214   4.667  15.375  0.5258  0.3036 -0.9802
10794TIP3    H153873   0.283   4.604  15.395  0.1509 -0.6145 -2.4054
10794TIP3    H253874   0.257   4.752  15.379  1.2117 -0.0867  0.2594
10795TIP3   OH253875   3.697   2.086  17.105  0.1541 -0.3014 -0.4052
10795TIP3    H153876   3.672   2.178  17.096 -1.2017 -0.4246  1.4171
10795TIP3    H253877   3.619   2.037  17.078  0.2501 -0.8567  0.3001
10796TIP3   OH253878   2.854   5.575  10.567 -0.1893  0.3673 -0.1428
10796TIP3    H153879   2.905   5.514  10.514  0.3951  1.4560 -0.8768
10796TIP3    H253880   2.897   5.576  10.652  0.9276  1.1430 -0.7009
10797TIP3   OH253881   5.549   2.256   2.210 -0.0366 -0.1355 -0.3761
10797TIP3    H153882   5.554   2.234   2.303 -0.0238  0.7818 -0.1525
10797TIP3    H253883   5.546   2.352   2.208 -2.7400 -0.1407 -1.1616
10798TIP3   OH253884   5.052   3.438   2.702 -0.6980  0.2473  0.5762
10798TIP3    H153885   5.134   3.449   2.749 -0.8455  0.6287  0.7497
10798TIP3    H253886   5.029   3.346   2.715 -0.7265  0.3414  1.2317
10799TIP3   OH253887   3.693   1.039   5.148 -0.2102  0.3715  0.5857
10799TIP3    H153888   3.643   1.050   5.067 -1.1268 -0.9988  0.9301
10799TIP3    H253889   3.630   1.057   5.218  1.3038  4.8357  1.1477
10800TIP3   OH253890   6.290   3.732   1.970  0.4780  0.2164  0.4284
10800TIP3    H153891   6.225   3.803   1.963 -0.7545 -0.9214 -0.1314
10800TIP3    H253892   6.312   3.730   2.063 -0.6155  0.3751  0.7109
10801TIP3   OH253893   0.373   0.284   6.260 -0.0055  0.4284 -0.3034
10801TIP3    H153894   0.283   0.254   6.275 -0.4511  1.7724 -0.1933
10801TIP3    H253895   0.422   0.203   6.240 -0.9231 -0.4944  1.0373
10802TIP3   OH253896   2.443   1.306   0.573  0.3656 -0.3852 -0.4589
10802TIP3    H153897   2.522   1.253   0.574  0.2871 -0.4968  0.0269
10802TIP3    H253898   2.472   1.395   0.592  0.3759 -0.4204 -0.3141
10803TIP3   OH253899   6.675   4.004   0.694  0.2274 -0.7191 -0.3848
10803TIP3    H153900   6.629   4.077   0.653  0.1547 -1.2832 -1.3553
10803TIP3    H253901   6.728   3.966   0.623  1.4167 -0.6988  0.4621
10804TIP3   OH253902   1.136   3.238   3.628  0.0608 -0.2353 -0.6623
10804TIP3    H153903   1.120   3.325   3.590 -1.4499 -1.0029 -1.8565
10804TIP3    H253904   1.189   3.193   3.563  1.2772 -0.0831  0.1834
10805TIP3   OH253905   3.024   4.715   0.174 -0.1086 -0.0104 -0.4325
10805TIP3    H153906   3.025   4.733   0.080 -1.0294 -0.9523 -0.6461
10805TIP3    H253907   2.931   4.713   0.197  0.1096  0.2279  0.4996
10806TIP3   OH253908   3.794   1.441  16.031  0.4723  0.0962 -0.4980
10806TIP3    H153909   3.767   1.436  16.123 -0.3505  0.1013 -0.7360
10806TIP3    H253910   3.890   1.441  16.035  0.4986 -2.0282  0.2654
10807TIP3   OH253911   4.810   6.650  11.720  0.4366 -0.1815 -0.1892
10807TIP3    H153912   4.894   6.693  11.740 -0.5565  1.8092 -0.0497
10807TIP3    H253913   4.800   6.659  11.626 -0.3080  1.0136 -0.0215
10808TIP3   OH253914   4.651   0.780  15.325  0.1648 -0.4091 -0.4809
10808TIP3    H153915   4.705   0.702  15.337  1.7806  0.9208  1.6377
10808TIP3    H253916   4.682   0.818  15.243  0.7349 -0.9901 -0.5440
10809TIP3   OH253917   5.616   1.951   6.517  0.2704 -0.2992  0.2403
10809TIP3    H153918   5.599   1.867   6.559  3.1659 -1.0643  0.1327
10809TIP3    H253919   5.671   1.929   6.442 -0.0557  1.5795 -0.5980
10810TIP3   OH253920   6.182   4.593   1.202 -0.2742  0.0262 -0.4775
10810TIP3    H153921   6.088   4.610   1.209 -0.2256  0.9174 -1.5974
10810TIP3    H253922   6.218   4.620   1.286 -1.1763 -1.6332  0.4847
10811TIP3   OH253923   2.644   6.716   4.372 -0.3022  0.7271 -0.0114
10811TIP3    H153924   2.660   6.628   4.338 -0.6868  0.6978 -0.1103
10811TIP3    H253925   2.616   6.767   4.296  0.7883  1.1688 -0.1453
10812TIP3   OH253926   5.569   3.918   1.724 -0.5088 -0.0929  0.0973
10812TIP3    H153927   5.526   3.944   1.643 -1.6208 -0.6196  0.5041
10812TIP3    H253928   5.662   3.936   1.708 -0.9156  1.6206 -0.5830
10813TIP3   OH253929   3.774   1.878   0.884  0.2239  0.4369 -0.7234
10813TIP3    H153930   3.713   1.949   0.900  0.8448  0.3746  2.7099
10813TIP3    H253931   3.859   1.912   0.911  0.7574 -1.1425 -0.2533
10814TIP3   OH253932   6.109   4.092   4.516  0.6003  0.3875 -0.4113
10814TIP3    H153933   6.200   4.077   4.493  0.8199  0.6507  0.2880
10814TIP3    H253934   6.060   4.028   4.462  1.3217 -0.9790  0.5027
10815TIP3   OH253935   1.177   5.497   2.002 -0.5478 -0.5659 -0.5226
10815TIP3    H153936   1.160   5.437   1.929 -1.2713 -0.9500 -0.0439
10815TIP3    H253937   1.124   5.463   2.074  0.1791 -0.2018  0.1948
10816TIP3   OH253938   0.074   0.712  15.187  0.3294  0.2991 -0.0180
10816TIP3    H153939   0.026   0.709  15.105 -0.5606 -0.9983  0.5226
10816TIP3    H253940   0.013   0.676  15.252  1.8245 -0.8508  0.7951
10817TIP3   OH253941   3.766   6.216   2.126 -0.0417  0.2688  0.2731
10817TIP3    H153942   3.673   6.198   2.114 -0.5246  1.9693  1.1442
10817TIP3    H253943   3.785   6.184   2.214  0.2937 -0.3803 -0.0295
10818TIP3   OH253944   4.019   0.915   1.957  0.4754  0.0313  0.1100
10818TIP3    H153945   3.962   0.990   1.938  0.3733 -0.2807 -0.8819
10818TIP3    H253946   4.051   0.931   2.046 -0.2679  0.7826  0.2566
10819TIP3   OH253947   5.246   4.312   2.625 -0.0756 -0.0080  0.6952
10819TIP3    H153948   5.285   4.383   2.675  0.5673 -0.7103  1.2068
10819TIP3    H253949   5.314   4.284   2.565  0.5346 -1.7377  2.1069
10820TIP3   OH253950   3.961   4.880  13.525  0.1676 -0.3661 -0.2955
10820TIP3    H153951   3.932   4.934  13.599 -1.2417 -2.0564  0.4556
10820TIP3    H253952   4.053   4.863  13.543  0.3392  0.8147  0.0572
10821TIP3   OH253953   0.399   2.489  16.527  0.2667  1.3505 -0.2081
10821TIP3    H153954   0.382   2.486  16.432 -1.0506  0.0910  0.0387
10821TIP3    H253955   0.325   2.539  16.562 -0.9987 -0.8654  0.4621
10822TIP3   OH253956   0.172   4.244   3.540  0.3804  0.1522  0.1750
10822TIP3    H153957   0.235   4.174   3.558 -1.0277 -0.4655  3.5537
10822TIP3    H253958   0.218   4.324   3.566  1.0151  0.1858 -0.9852
10823TIP3   OH253959   1.528   2.213   5.095 -0.2138  1.0531 -0.5958
10823TIP3    H153960   1.482   2.133   5.070 -0.1415  1.5005 -2.2581
10823TIP3    H253961   1.472   2.253   5.162 -1.6755  1.0119 -1.7440
10824TIP3   OH253962   3.896   6.486  12.332 -0.4639  0.1681 -0.0343
10824TIP3    H153963   3.870   6.577  12.320  1.1974  0.4203 -2.8272
10824TIP3    H253964   3.983   6.491  12.373 -0.7317 -0.2148  0.5910
10825TIP3   OH253965   6.686   3.628   3.519  0.0139  0.5899 -0.3865
10825TIP3    H153966   6.726   3.715   3.514 -0.3805  0.7231 -1.8003
10825TIP3    H253967   6.601   3.639   3.474 -0.6196 -0.2176  0.5770
10826TIP3   OH253968   6.421   4.804  16.675 -0.2630  0.2034 -0.1237
10826TIP3    H153969   6.474   4.756  16.611  2.2354  1.0463  1.1917
10826TIP3    H253970   6.340   4.752  16.682  0.7488 -1.7112 -1.4965
10827TIP3   OH253971   0.355   4.802   2.657 -0.5100 -0.1372 -0.1840
10827TIP3    H153972   0.281   4.749   2.686  0.7125 -2.9213 -1.7108
10827TIP3    H253973   0.318   4.860   2.591 -1.6838  0.0218  0.5840
10828TIP3   OH253974   5.003   4.167   2.618 -0.4812 -0.4527 -0.1290
10828TIP3    H153975   5.027   4.075   2.626 -0.6090 -0.6071 -1.3577
10828TIP3    H253976   5.087   4.213   2.610 -0.4541 -0.6415 -1.0704
10829TIP3   OH253977   3.419   5.079  16.015 -0.3795  0.1952 -0.5581
10829TIP3    H153978   3.383   5.020  15.949 -0.3006 -1.5268  0.8568
10829TIP3    H253979   3.402   5.035  16.098  2.2886  0.7532  0.3907
10830TIP3   OH253980   3.512   0.751  13.597 -0.3659  0.1185 -0.4888
10830TIP3    H153981   3.474   0.663  13.604  2.0980 -0.9801  0.5256
10830TIP3    H253982   3.558   0.750  13.513  1.2443 -0.3415  0.3386
10831TIP3   OH253983   0.802   6.221  12.253  0.3407  0.5424  0.1269
10831TIP3    H153984   0.754   6.225  12.335  0.4209 -1.4458  0.3115
10831TIP3    H253985   0.892   6.244  12.276  0.0849  1.4290  0.2953
10832TIP3   OH253986   1.807   3.764  16.167  0.4114 -0.3052  0.0628
10832TIP3    H153987   1.737   3.803  16.116  2.0669  0.1180 -2.0227
10832TIP3    H253988   1.829   3.830  16.233  2.2596  1.9346 -2.5641
10833TIP3   OH253989   2.004   2.763   6.528 -0.4348  0.3127 -0.2493
10833TIP3    H153990   2.049   2.684   6.560  0.1892 -0.0673 -1.9447
10833TIP3    H253991   2.046   2.835   6.575  0.8575 -0.1793 -0.5835
10834TIP3   OH253992   0.088   4.377  12.608  0.5505 -0.2457  0.0484
10834TIP3    H153993   0.064   4.401  12.697  1.8714 -1.6525  0.8330
10834TIP3    H253994   0.160   4.437  12.586 -0.0280  0.3554 -0.2330
10835TIP3   OH253995   0.096   6.391   5.522 -0.6872  0.0706  0.0653
10835TIP3    H153996   0.149   6.325   5.568  0.8482  0.1808 -1.4575
10835TIP3    H253997   0.074   6.455   5.590  1.5970  0.2798  0.7022
10836TIP3   OH253998   3.854   6.453   3.983 -0.1121 -0.1159 -0.3677
10836TIP3    H153999   3.945   6.423   3.988 -0.1800 -0.3319 -0.4279
10836TIP3    H254000   3.820   6.412   3.904 -0.0261  0.6155 -0.7964
10837TIP3   OH254001   0.294   1.514   2.761  0.0160 -0.4562  0.0358
10837TIP3    H154002   0.271   1.510   2.853 -1.2844  0.7848 -0.1867
10837TIP3    H254003   0.361   1.582   2.756 -0.7348  0.3008 -0.0440
10838TIP3   OH254004   5.121   0.285   6.201 -0.1008  0.5875 -0.6655
10838TIP3    H154005   5.214   0.306   6.205  0.1606 -0.5727 -0.2828
10838TIP3    H254006   5.081   0.337   6.270  0.6017 -0.5122  0.6048
10839TIP3   OH254007   4.004   3.686  15.295 -0.1389 -0.6591  0.0297
10839TIP3    H154008   4.098   3.697  15.278 -0.3991  0.5001 -0.8160
10839TIP3    H254009   3.998   3.673  15.390  0.6647  2.7922  0.6956
10840TIP3   OH254010   4.940   5.277  15.049  0.4123  0.0417 -0.8323
10840TIP3    H154011   4.914   5.200  15.100 -1.8349  2.5370  2.2167
10840TIP3    H254012   5.035   5.280  15.055  0.3430 -0.6764  2.0471
10841TIP3   OH254013   0.859   6.112   3.406 -0.1582  0.3823 -0.6598
10841TIP3    H154014   0.953   6.120   3.391 -0.3154  0.9568 -1.3983
10841TIP3    H254015   0.825   6.200   3.395 -0.7567  0.2320 -0.1199
10842TIP3   OH254016   1.535   4.477   2.292  0.3310 -0.3885 -0.4410
10842TIP3    H154017   1.622   4.471   2.253  0.7966 -1.5849  0.7003
10842TIP3    H254018   1.549   4.527   2.373 -0.3120  0.5883 -0.9060
10843TIP3   OH254019   5.151   6.356  12.594 -0.3142 -0.3328  0.6668
10843TIP3    H154020   5.138   6.354  12.689 -1.7382  1.0282  0.5437
10843TIP3    H254021   5.084   6.416  12.562 -1.4478 -2.5576 -1.4747
10844TIP3   OH254022   3.770   0.181  12.636 -0.0432 -0.3880 -0.0812
10844TIP3    H154023   3.709   0.113  12.606 -1.5781  1.1070 -0.4648
10844TIP3    H254024   3.853   0.134  12.647 -0.7909 -2.1274 -1.2846
10845TIP3   OH254025   5.266   5.275  13.318 -0.0432  0.4146 -0.8223
10845TIP3    H154026   5.280   5.313  13.404 -0.3734  1.0567 -1.0443
10845TIP3    H254027   5.344   5.299  13.268  1.1037 -1.6623 -0.1462
10846TIP3   OH254028   1.028   3.254  15.532  0.0405 -0.4162 -1.2008
10846TIP3    H154029   1.013   3.249  15.438 -0.2730 -0.9100 -1.1282
10846TIP3    H254030   0.975   3.183  15.568 -0.1029 -0.0214 -0.6234
10847TIP3   OH254031   5.123   1.141   4.263 -0.4145 -0.4570  0.0292
10847TIP3    H154032   5.032   1.145   4.232 -0.4049  0.5633  0.0996
10847TIP3    H254033   5.153   1.231   4.259  1.5260 -1.1118 -2.6564
10848TIP3   OH254034   5.827   0.280   5.730 -0.4387 -0.4806  0.3004
10848TIP3    H154035   5.899   0.250   5.674  0.6381  0.2319  1.2278
10848TIP3    H254036   5.863   0.276   5.818 -1.7450 -0.6085  0.8452
10849TIP3   OH254037   5.760   6.746  13.295  0.1891  0.1953 -1.0707
10849TIP3    H154038   5.786   6.838  13.296  0.5790  0.0849 -0.8633
10849TIP3    H254039   5.664   6.749  13.293  0.2008  0.6034 -1.2294
10850TIP3   OH254040   3.589   4.635  16.645 -0.2904  0.5617  0.7930
10850TIP3    H154041   3.684   4.648  16.633 -0.2928 -1.2455 -2.3933
10850TIP3    H254042   3.583   4.557  16.700  0.2533 -0.9354 -1.1251
10851TIP3   OH254043   0.839   6.641   6.063  0.0406 -0.2384 -0.4151
10851TIP3    H154044   0.866   6.637   6.155 -0.9135  0.4967 -0.0842
10851TIP3    H254045   0.834   6.549   6.036  1.9322 -0.4358 -0.2452
10852TIP3   OH254046   1.332   5.237   2.209  0.6147  0.2868 -0.3325
10852TIP3    H154047   1.291   5.232   2.295  0.7749  0.5873 -0.2352
10852TIP3    H254048   1.290   5.168   2.157  3.1789 -2.5905  1.0801
10853TIP3   OH254049   5.251   2.599  16.138 -0.3361  0.7080  0.1515
10853TIP3    H154050   5.205   2.615  16.056 -0.3955 -2.9533 -0.7019
10853TIP3    H254051   5.344   2.608  16.116 -0.3668  0.0609 -0.2626
10854TIP3   OH254052   6.333   1.221   2.621 -0.6456  0.2580  0.4967
10854TIP3    H154053   6.324   1.304   2.667 -1.6459  0.2479  0.3407
10854TIP3    H254054   6.257   1.217   2.562  1.3770  0.9910 -2.3660
10855TIP3   OH254055   1.747   0.414   0.757 -0.5526  0.0606 -0.1109
10855TIP3    H154056   1.838   0.386   0.769 -0.7437  0.4518  2.7558
10855TIP3    H254057   1.705   0.340   0.712  0.8111 -0.7518 -0.1057
10856TIP3   OH254058   5.072   5.315  14.694 -0.6128 -0.1459  0.2414
10856TIP3    H154059   5.126   5.393  14.682  1.3372 -1.1704  1.7316
10856TIP3    H254060   5.019   5.335  14.771 -0.0422 -0.3068  0.6830
10857TIP3   OH254061   6.790   3.055  16.063  0.3442 -0.4813  0.0575
10857TIP3    H154062   6.714   2.999  16.075  1.0425 -1.9537 -1.8220
10857TIP3    H254063   6.755   3.136  16.025 -0.4511 -0.4563  0.8266
10858TIP3   OH254064   3.291   4.271  13.277 -0.1453 -0.0133 -0.4629
10858TIP3    H154065   3.282   4.345  13.337  1.3540  0.8696 -1.2520
10858TIP3    H254066   3.364   4.296  13.220 -1.0039 -1.1539 -2.1455
10859TIP3   OH254067   5.811   3.936  13.035  0.1137  0.1332  0.1935
10859TIP3    H154068   5.754   3.890  12.973 -1.1372  0.0486  1.3349
10859TIP3    H254069   5.882   3.875  13.053 -0.6166 -0.6896  0.3831
10860TIP3   OH254070   2.189   1.666  10.989 -0.3560  0.1760 -0.1972
10860TIP3    H154071   2.139   1.650  10.909  0.9368 -1.3107 -0.7502
10860TIP3    H254072   2.144   1.614  11.056 -0.2922 -0.1557 -0.4098
10861TIP3   OH254073   2.619   5.132   2.709  0.0479 -0.5172  0.0882
10861TIP3    H154074   2.685   5.074   2.671  1.0313 -0.1297  1.1610
10861TIP3    H254075   2.602   5.095   2.796 -1.2907 -0.7065 -0.2256
10862TIP3   OH254076   2.328   0.440   0.658 -0.2852 -0.2489 -0.2137
10862TIP3    H154077   2.334   0.347   0.680 -0.6124  0.2727  2.4073
10862TIP3    H254078   2.329   0.484   0.742 -0.4867  2.1341 -1.3873
10863TIP3   OH254079   3.455   6.606   1.797  0.0362 -0.8954  0.1827
10863TIP3    H154080   3.516   6.635   1.729  0.3944 -0.1319  0.8180
10863TIP3    H254081   3.394   6.680   1.807 -0.1841 -1.1185  0.4893
10864TIP3   OH254082   1.473   1.336  15.891 -0.2400  0.5991 -0.7234
10864TIP3    H154083   1.506   1.367  15.806 -0.9241  3.4449 -0.0639
10864TIP3    H254084   1.502   1.402  15.953 -1.6509 -0.2499  0.9121
10865TIP3   OH254085   4.431   0.708   2.367 -0.4972  0.1768  0.3216
10865TIP3    H154086   4.345   0.673   2.343 -0.8283  0.8309  0.5452
10865TIP3    H254087   4.416   0.800   2.385 -0.3908 -0.3632  3.6420
10866TIP3   OH254088   1.941   0.294   0.173 -0.1860 -0.3249 -0.2954
10866TIP3    H154089   1.945   0.198   0.181  0.1246 -0.4604 -1.7321
10866TIP3    H254090   1.894   0.309   0.090 -3.2455  0.8519  1.4874
10867TIP3   OH254091   0.515   4.207  16.843  0.0839 -0.3554 -0.4675
10867TIP3    H154092   0.435   4.259  16.841  1.2267  1.5037 -0.4868
10867TIP3    H254093   0.566   4.244  16.915  0.8402 -1.6526 -0.3062
10868TIP3   OH254094   1.863   0.246   2.961  0.0704  0.4538 -0.6124
10868TIP3    H154095   1.820   0.163   2.981 -0.3299  0.6280 -0.7450
10868TIP3    H254096   1.805   0.312   2.998  0.3901  0.6775 -0.5053
10869TIP3   OH254097   2.748   5.098   1.921 -0.1786  0.2085 -0.2471
10869TIP3    H154098   2.815   5.058   1.978  0.4534  0.4989 -0.7721
10869TIP3    H254099   2.729   5.030   1.856  0.7663  0.6705 -1.0336
10870TIP3   OH254100   6.038   6.434  13.831  0.2295  0.1882  0.1531
10870TIP3    H154101   6.006   6.349  13.801 -0.9001  0.8737 -0.6638
10870TIP3    H254102   6.101   6.460  13.765  0.0660  0.2897  0.0366
10871TIP3   OH254103   3.926   5.105   0.436 -0.0413  0.3130  0.4207
10871TIP3    H154104   3.840   5.136   0.407 -0.3696 -0.5612  0.4315
10871TIP3    H254105   3.988   5.165   0.394 -0.6651  1.1993  0.7428
10872TIP3   OH254106   5.196   3.679  11.068 -0.8523 -0.5236  0.0956
10872TIP3    H154107   5.291   3.675  11.078 -0.8402  1.0963  1.0546
10872TIP3    H254108   5.170   3.754  11.122 -2.5842 -0.4379 -0.7970
10873TIP3   OH254109   0.998   0.576   4.638  0.2552  0.0195 -0.8100
10873TIP3    H154110   0.971   0.560   4.547 -0.8019  0.5560 -0.6062
10873TIP3    H254111   0.978   0.494   4.684 -0.2374  0.1130 -0.8461
10874TIP3   OH254112   1.715   4.304  14.033 -0.0163 -0.8547  0.3634
10874TIP3    H154113   1.683   4.320  14.122  0.6501 -1.4120  0.7029
10874TIP3    H254114   1.717   4.392  13.994 -1.4612 -0.7353  0.4899
10875TIP3   OH254115   0.993   1.979   3.048  0.0566  0.0502  0.1672
10875TIP3    H154116   0.922   1.961   2.987  1.2433 -1.2552 -0.8781
10875TIP3    H254117   1.041   2.052   3.009 -0.6428  0.8810  0.8345
10876TIP3   OH254118   0.737   2.941  12.971  0.3419 -0.4096 -0.4563
10876TIP3    H154119   0.709   3.008  13.033  0.5413  0.6500 -1.4877
10876TIP3    H254120   0.664   2.880  12.967 -0.6756  0.8147 -0.9955
10877TIP3   OH254121   3.778   5.093  14.230 -0.2585  0.4459  0.1550
10877TIP3    H154122   3.872   5.102  14.216 -0.3797  1.7935  0.0993
10877TIP3    H254123   3.742   5.076  14.143 -0.1060  0.2489  0.1294
10878TIP3   OH254124   1.644   0.690  11.685  0.2996  0.0745  0.1774
10878TIP3    H154125   1.649   0.659  11.594  1.1594  1.4108 -0.2515
10878TIP3    H254126   1.550   0.690  11.705  0.1428 -0.8018 -0.4967
10879TIP3   OH254127   1.451   5.129  16.854 -0.0519 -0.2085  0.0514
10879TIP3    H154128   1.390   5.189  16.897  0.3099  0.5408 -0.4520
10879TIP3    H254129   1.396   5.065  16.811 -0.5519  1.0259 -1.2240
10880TIP3   OH254130   2.738   3.339  13.350 -0.4619  0.1965 -0.0460
10880TIP3    H154131   2.803   3.345  13.421  0.5311  0.0149 -0.9174
10880TIP3    H254132   2.720   3.430  13.327 -1.9329  0.3196  1.4244
10881TIP3   OH254133   0.474   4.332  12.554 -0.2541  0.4043 -0.3663
10881TIP3    H154134   0.449   4.331  12.461 -2.1008 -1.1982  0.0760
10881TIP3    H254135   0.535   4.406  12.562 -0.3951  0.8569 -2.7474
10882TIP3   OH254136   3.988   4.759   1.891  0.3260 -0.3198  0.6701
10882TIP3    H154137   3.961   4.822   1.959  2.1808  1.0856  0.1665
10882TIP3    H254138   3.924   4.771   1.821  0.7258  1.1614  0.5205
10883TIP3   OH254139   3.872   3.419  15.555 -0.4871 -0.2806  0.9081
10883TIP3    H154140   3.900   3.381  15.472 -1.0377  2.8666 -0.8897
10883TIP3    H254141   3.808   3.486  15.530  0.3698  1.7887  3.7340
10884TIP3   OH254142   0.022   2.283   3.892 -0.3427 -0.4483  0.3017
10884TIP3    H154143  -0.001   2.360   3.840  1.2209  1.2211  1.9527
10884TIP3    H254144  -0.032   2.289   3.970  1.3444  0.2807  1.4768
10885TIP3   OH254145   3.728   2.225  12.920  0.5208  0.5120  0.1908
10885TIP3    H154146   3.712   2.319  12.907  0.0752  0.1594 -2.2414
10885TIP3    H254147   3.642   2.184  12.906  1.2015 -0.4506 -1.3780
10886TIP3   OH254148   6.587   4.484   5.435  0.2533 -0.6569 -0.1185
10886TIP3    H154149   6.570   4.454   5.524  0.5529 -2.5885 -0.6659
10886TIP3    H254150   6.514   4.541   5.414 -1.3171 -2.3766  0.4111
10887TIP3   OH254151   4.541   2.087  12.197  0.1077 -0.1094  0.0859
10887TIP3    H154152   4.635   2.098  12.212  0.0350  1.1499 -0.2275
10887TIP3    H254153   4.528   2.115  12.106 -0.7366  0.9813  0.5173
10888TIP3   OH254154   4.291   5.891  15.983  0.8601  0.5655  0.0748
10888TIP3    H154155   4.278   5.920  15.893  0.0897  2.3343  0.7254
10888TIP3    H254156   4.363   5.945  16.016  1.8710 -0.8162  0.2245
10889TIP3   OH254157   2.819   5.169   1.518  0.1277  0.2810  0.1480
10889TIP3    H154158   2.842   5.258   1.543  0.2188  0.1300  0.6068
10889TIP3    H254159   2.900   5.119   1.529 -0.1554 -0.0472  0.7919
10890TIP3   OH254160   5.955   0.256  10.298 -0.0092  0.2018 -0.0926
10890TIP3    H154161   5.970   0.190  10.230 -0.4411  0.4276 -0.4136
10890TIP3    H254162   5.959   0.207  10.380  1.7720  0.1278 -0.1786
10891TIP3   OH254163   2.857   0.408   3.527 -0.2115 -0.1631  0.6915
10891TIP3    H154164   2.935   0.407   3.583  0.8482 -1.5954 -0.7140
10891TIP3    H254165   2.837   0.316   3.511 -1.6953  0.1915  0.3329
10892TIP3   OH254166   3.062   2.752  16.769 -0.0631 -0.0903  0.0445
10892TIP3    H154167   3.046   2.775  16.860 -1.9558 -0.4616 -0.1443
10892TIP3    H254168   3.069   2.836  16.723 -0.6284  0.1101  0.3133
10893TIP3   OH254169   1.847   5.193  12.419  0.2749 -0.1372 -0.1171
10893TIP3    H154170   1.855   5.260  12.351  0.7944 -0.4416 -0.3638
10893TIP3    H254171   1.789   5.232  12.484 -0.0306  0.2589 -0.6133
10894TIP3   OH254172   5.489   1.441  11.545 -0.2509 -0.1826  0.4143
10894TIP3    H154173   5.564   1.397  11.505  0.7009  2.5930 -1.1426
10894TIP3    H254174   5.427   1.453  11.472  0.0785  2.0603  0.4242
10895TIP3   OH254175   3.103   3.779   3.949  0.0326  0.0619 -0.4381
10895TIP3    H154176   3.045   3.707   3.926  0.2851 -0.3652  0.2383
10895TIP3    H254177   3.099   3.838   3.874 -0.1979 -0.6400 -0.9849
10896TIP3   OH254178   0.917   6.310   2.209 -0.0205  0.0139  0.1937
10896TIP3    H154179   0.832   6.266   2.210  0.5849 -1.2178  0.6387
10896TIP3    H254180   0.961   6.280   2.289  1.5105 -0.8217 -0.8957
10897TIP3   OH254181   6.531   4.578   1.730 -0.5710  0.5767 -0.0383
10897TIP3    H154182   6.512   4.574   1.637 -2.9630 -1.2385  0.4176
10897TIP3    H254183   6.500   4.665   1.757 -0.6477  0.7833 -0.7762
10898TIP3   OH254184   5.935   4.941   3.483 -0.2254  0.4444 -0.0490
10898TIP3    H154185   5.853   4.925   3.436 -1.7446  1.6171  1.9987
10898TIP3    H254186   5.930   4.884   3.560  2.0592 -1.2501 -1.0585
10899TIP3   OH254187   3.857   4.302  16.172  0.4159 -0.2632  0.0686
10899TIP3    H154188   3.911   4.328  16.248  2.9659 -1.6274 -1.1472
10899TIP3    H254189   3.921   4.284  16.103 -1.7872  0.3090 -2.2652
10900TIP3   OH254190   3.131   5.421   1.616 -0.0421  0.3410  0.0965
10900TIP3    H154191   3.069   5.384   1.678  0.6479 -0.3974  0.3528
10900TIP3    H254192   3.162   5.501   1.658 -1.2437  1.0415 -0.2923
10901TIP3   OH254193   1.764   3.975   5.408 -0.0103  0.1951 -0.1982
10901TIP3    H154194   1.739   4.058   5.449 -0.1388  1.1707 -2.1479
10901TIP3    H254195   1.697   3.961   5.341 -1.1624 -2.5526  1.3515
10902TIP3   OH254196   1.188   0.712   6.165  0.5385 -0.0645 -0.2198
10902TIP3    H154197   1.109   0.759   6.142  0.4249  0.0898  0.4502
10902TIP3    H254198   1.157   0.626   6.195  0.3889  0.7680  2.2343
10903TIP3   OH254199   1.477   2.545   4.290 -0.0568 -0.1523 -0.2014
10903TIP3    H154200   1.412   2.566   4.223 -0.2774 -0.7510 -0.1775
10903TIP3    H254201   1.549   2.506   4.241 -0.1373 -0.4126 -0.1120
10904TIP3   OH254202   4.294   2.357   3.200  0.1405 -0.3653  0.3817
10904TIP3    H154203   4.340   2.292   3.147 -0.4663 -0.5132  0.0230
10904TIP3    H254204   4.363   2.401   3.250  0.6307 -0.8011  0.0979
10905TIP3   OH254205   2.034   2.384  12.883  0.3071  0.2131  0.4364
10905TIP3    H154206   1.973   2.314  12.859  1.7339 -0.5637 -1.0841
10905TIP3    H254207   1.981   2.446  12.933 -2.1286  0.2863 -1.9867
10906TIP3   OH254208   5.279   5.386  14.382  0.2471 -0.7478 -0.4932
10906TIP3    H154209   5.188   5.395  14.413  0.5130 -0.6446  0.2685
10906TIP3    H254210   5.274   5.409  14.289 -0.6201 -1.3682 -0.6288
10907TIP3   OH254211   0.713   3.321  14.104 -0.4459 -0.3616 -0.5642
10907TIP3    H154212   0.791   3.306  14.157  0.9635 -1.7342 -2.8624
10907TIP3    H254213   0.681   3.408  14.131  2.6433  0.8520 -0.4263
10908TIP3   OH254214   2.429   0.826  16.976  0.2965 -0.5068 -0.1553
10908TIP3    H154215   2.436   0.797  16.885  0.1359 -1.2063  0.0517
10908TIP3    H254216   2.512   0.801  17.016 -0.3123 -1.8138  0.3342
10909TIP3   OH254217   0.137   4.932   2.068  0.3064 -0.8843  0.2859
10909TIP3    H154218   0.123   4.838   2.073  2.8665 -1.3137  0.5255
10909TIP3    H254219   0.232   4.943   2.060  0.0867  1.6753  0.0529
10910TIP3   OH254220   5.548   3.976   5.611 -0.0103  0.0648  0.3103
10910TIP3    H154221   5.546   3.999   5.704 -0.3489 -0.3307  0.3981
10910TIP3    H254222   5.507   4.051   5.567 -1.0622 -0.3299  0.5929
10911TIP3   OH254223   5.937   4.145  15.755 -0.4664 -0.1359  0.1045
10911TIP3    H154224   5.949   4.094  15.674  0.1956 -0.9137  0.6800
10911TIP3    H254225   5.993   4.222  15.744  2.2073 -1.8037  1.1237
10912TIP3   OH254226   1.578   5.474   3.367 -0.3094  0.4197  0.1771
10912TIP3    H154227   1.667   5.445   3.348  0.0145  1.0357  0.7199
10912TIP3    H254228   1.583   5.569   3.366 -0.7109  0.4725  1.3088
10913TIP3   OH254229   3.527   3.946   4.418 -0.5235  0.6165 -0.1565
10913TIP3    H154230   3.607   3.982   4.379  0.0393 -0.6197 -0.1740
10913TIP3    H254231   3.554   3.921   4.507 -0.7040 -0.4527 -0.3981
10914TIP3   OH254232   1.756   3.601   2.440 -0.7688 -0.6422  0.4182
10914TIP3    H154233   1.795   3.523   2.402 -2.0881 -1.7489  1.2550
10914TIP3    H254234   1.662   3.589   2.428 -0.9698  1.8801 -1.4315
10915TIP3   OH254235   0.700   6.612   3.076  0.1753  0.0195  0.2913
10915TIP3    H154236   0.751   6.622   2.995  0.6032 -0.3784  0.5121
10915TIP3    H254237   0.765   6.597   3.144 -0.1906  0.2881  0.7032
10916TIP3   OH254238   0.020   4.104  12.751  0.8277  0.0231  0.2785
10916TIP3    H154239   0.004   4.130  12.660 -0.5230 -1.1517  0.1375
10916TIP3    H254240   0.109   4.134  12.770  0.7334  1.2792 -1.0567
10917TIP3   OH254241   6.517   5.480  12.494  0.3380  0.1411  0.2904
10917TIP3    H154242   6.542   5.428  12.571  1.7988  0.9381  0.3872
10917TIP3    H254243   6.537   5.571  12.519  1.8591  0.3148 -1.4077
10918TIP3   OH254244   1.379   5.258  14.968  0.4636 -0.2402  0.5663
10918TIP3    H154245   1.398   5.270  14.875 -1.8850  1.8518  0.2583
10918TIP3    H254246   1.349   5.168  14.975 -2.4455  0.4609 -1.3902
10919TIP3   OH254247   1.626   3.651   1.093 -0.5361  0.3787 -0.7676
10919TIP3    H154248   1.719   3.665   1.079 -0.7534 -0.0264 -3.0772
10919TIP3    H254249   1.607   3.568   1.048 -2.1626  0.8800 -1.0943
10920TIP3   OH254250   1.271   1.214   1.726 -0.1329 -0.4058 -0.0487
10920TIP3    H154251   1.183   1.189   1.699  0.0449 -0.1421 -0.9123
10920TIP3    H254252   1.267   1.309   1.737 -0.1622 -0.4867  0.7529
10921TIP3   OH254253   4.201   5.198   5.754 -0.2381  0.3834  0.6295
10921TIP3    H154254   4.234   5.285   5.734 -1.0227  0.8425  1.3055
10921TIP3    H254255   4.238   5.142   5.684 -0.5420  1.4165 -0.3825
10922TIP3   OH254256   3.146   0.670   5.161 -0.0385 -0.4874 -0.1411
10922TIP3    H154257   3.091   0.678   5.082 -3.0124  1.4387  1.8976
10922TIP3    H254258   3.164   0.760   5.187  2.6983 -1.0804  0.3260
10923TIP3   OH254259   4.257   3.284  16.050  0.4907 -0.1087  0.5006
10923TIP3    H154260   4.263   3.230  15.971  1.0786 -0.8387  1.0323
10923TIP3    H254261   4.220   3.367  16.020  1.2102 -0.1837 -0.6349
10924TIP3   OH254262   3.337   1.808   6.116  0.0759  0.4827  0.2139
10924TIP3    H154263   3.335   1.730   6.060  1.0782  0.2550  0.4771
10924TIP3    H254264   3.317   1.774   6.203 -2.4461  0.9677 -0.0781
10925TIP3   OH254265   3.103   0.124   1.696 -0.0569 -0.3970 -0.6345
10925TIP3    H154266   3.087   0.218   1.698 -0.9305 -0.5366 -0.6295
10925TIP3    H254267   3.123   0.105   1.604  3.3575  0.2657 -0.1670
10926TIP3   OH254268   2.086   6.065  12.826  0.3041  0.0188 -0.0454
10926TIP3    H154269   2.142   6.118  12.882 -0.3023 -0.7548  1.3499
10926TIP3    H254270   2.108   6.092  12.736  2.2586  0.3392  0.4937
10927TIP3   OH254271   4.110   3.366  14.406 -0.4403 -0.2523 -0.4761
10927TIP3    H154272   4.020   3.354  14.376 -1.0892  1.3481  0.7482
10927TIP3    H254273   4.145   3.435  14.349 -0.1000 -0.5956 -0.6886
10928TIP3   OH254274   6.544   4.056   1.925 -0.4048  0.6467 -0.4618
10928TIP3    H154275   6.613   4.037   1.988  1.0385  0.4401 -2.0415
10928TIP3    H254276   6.463   4.049   1.975  0.6995  0.7669  1.4129
10929TIP3   OH254277   6.704   6.727   2.720  0.1824  0.2576  0.0453
10929TIP3    H154278   6.720   6.746   2.812 -0.0961 -1.2716  0.4328
10929TIP3    H254279   6.778   6.768   2.674  2.3667 -2.0079  1.2869
10930TIP3   OH254280   3.680   1.617  16.239  0.7901 -0.1747 -0.7667
10930TIP3    H154281   3.701   1.694  16.186 -0.9278 -0.0004 -1.2546
10930TIP3    H254282   3.585   1.606  16.229  1.0869 -2.9776 -1.5969
10931TIP3   OH254283   1.979   0.971   1.061  0.3213 -0.3750  0.0261
10931TIP3    H154284   2.071   0.950   1.079  0.4680 -1.7103 -1.9991
10931TIP3    H254285   1.982   1.026   0.983 -0.6452 -1.5101 -0.8353
10932TIP3   OH254286   6.751   3.030  12.328  0.4431  0.6316 -0.0189
10932TIP3    H154287   6.774   3.033  12.421  1.6082 -0.0493 -0.2678
10932TIP3    H254288   6.726   3.120  12.307 -1.0837  0.5553  1.2299
10933TIP3   OH254289   2.740   0.125  14.038  0.1097  0.3015  0.0350
10933TIP3    H154290   2.725   0.114  13.944 -1.3117  1.2253  0.1204
10933TIP3    H254291   2.654   0.146  14.074  0.4568 -0.8848  1.6919
10934TIP3   OH254292   5.766   0.556  13.223 -0.3104 -0.3170  0.5654
10934TIP3    H154293   5.769   0.595  13.136 -2.4626  1.2227  1.0984
10934TIP3    H254294   5.753   0.463  13.208  0.5473 -0.2417 -0.7366
10935TIP3   OH254295   0.797   1.155   4.823 -0.1087  0.0678  0.3106
10935TIP3    H154296   0.823   1.096   4.894 -0.7972  0.4617  0.9090
10935TIP3    H254297   0.876   1.206   4.804 -0.7540  2.4913  3.3289
10936TIP3   OH254298   2.231   2.275   4.640  0.6411 -0.5161  0.4363
10936TIP3    H154299   2.278   2.243   4.717  0.4646 -0.9425  0.3710
10936TIP3    H254300   2.142   2.291   4.673  0.7642  0.0458  0.5016
10937TIP3   OH254301   2.026   2.815  12.294 -0.0539 -0.1649 -0.1387
10937TIP3    H154302   2.098   2.858  12.249 -0.0567  0.9966  0.9035
10937TIP3    H254303   1.947   2.859  12.261 -0.2920 -1.2729 -1.1054
10938TIP3   OH254304   4.912   1.204   5.547  0.1379 -0.2212 -0.8539
10938TIP3    H154305   4.864   1.277   5.508 -0.2234  0.3565  0.6070
10938TIP3    H254306   4.972   1.245   5.609 -1.0606 -1.1970  1.0495
10939TIP3   OH254307   1.090   0.386   1.638  0.0594  0.2320  0.1086
10939TIP3    H154308   1.151   0.404   1.709 -0.9691  2.6351  0.4812
10939TIP3    H254309   1.146   0.375   1.561  1.0561  0.5174  0.7711
10940TIP3   OH254310   1.481   4.735  15.776  0.1362 -0.7766  0.0529
10940TIP3    H154311   1.479   4.642  15.754  0.9063 -1.5984  2.9826
10940TIP3    H254312   1.483   4.737  15.872  0.3144  2.2671  0.0846
10941TIP3   OH254313   1.313   6.131  11.589  0.0032 -0.2660  0.2924
10941TIP3    H154314   1.274   6.093  11.510 -1.5982 -1.0777  1.4319
10941TIP3    H254315   1.248   6.194  11.621  1.7982  2.1273 -0.4843
10942TIP3   OH254316   1.596   0.133  16.827  0.6469  0.8262 -0.0871
10942TIP3    H154317   1.504   0.128  16.854  0.0033  0.5760 -2.0982
10942TIP3    H254318   1.623   0.222  16.850  0.4242  0.4109  1.9457
10943TIP3   OH254319   5.188   3.389   1.313 -0.0623  0.0990  0.3053
10943TIP3    H154320   5.126   3.326   1.277  1.0937 -0.3324 -1.0025
10943TIP3    H254321   5.163   3.473   1.274 -0.5628  0.1483  0.7301
10944TIP3   OH254322   0.456   5.340  11.315  0.2340 -0.2626  0.1018
10944TIP3    H154323   0.415   5.318  11.231  0.6192  1.2673 -0.5245
10944TIP3    H254324   0.389   5.323  11.380 -1.2587  1.6468 -0.8518
10945TIP3   OH254325   1.153   5.131   3.526 -0.6989 -0.0878  0.0925
10945TIP3    H154326   1.177   5.194   3.593  1.5043 -0.8021  0.0800
10945TIP3    H254327   1.152   5.181   3.444 -0.6558  0.2558  0.3030
10946TIP3   OH254328   4.530   2.634   1.511  0.3494 -0.5509  0.2758
10946TIP3    H154329   4.458   2.669   1.563  0.6992 -0.1560  0.5086
10946TIP3    H254330   4.492   2.562   1.462 -0.3996  0.1655 -0.2258
10947TIP3   OH254331   4.059   1.322  16.698 -0.2168  0.6224 -0.3403
10947TIP3    H154332   4.027   1.252  16.755  1.7214  0.5026  0.7016
10947TIP3    H254333   3.995   1.393  16.709 -0.2275  0.3738  1.5521
10948TIP3   OH254334   3.747   0.327   0.025 -0.3260 -0.6125 -0.2592
10948TIP3    H154335   3.706   0.381   0.092  0.2376 -0.3127 -0.1489
10948TIP3    H254336   3.839   0.322   0.051  0.1336  0.3861 -1.5699
10949TIP3   OH254337   6.097   1.817   3.923  0.2315  0.1325  0.3949
10949TIP3    H154338   6.180   1.772   3.905 -0.3392 -1.3593  1.2808
10949TIP3    H254339   6.038   1.747   3.951 -1.0535  1.3044  0.7032
10950TIP3   OH254340   1.601   5.086  13.257 -0.4555  0.1669 -0.1815
10950TIP3    H154341   1.666   5.122  13.196 -2.3457 -0.4554 -2.7399
10950TIP3    H254342   1.644   5.009  13.295  0.5112  0.0642 -1.3909
10951TIP3   OH254343   5.368   3.701   1.079 -0.3478  0.6713 -0.6454
10951TIP3    H154344   5.427   3.669   1.010 -0.8490 -1.7080 -0.0297
10951TIP3    H254345   5.280   3.683   1.047 -0.5823 -1.3694  0.9457
10952TIP3   OH254346   1.740   2.084  16.668 -0.2650  0.1910 -0.1992
10952TIP3    H154347   1.662   2.059  16.717  0.8078 -0.2421  1.3738
10952TIP3    H254348   1.770   2.003  16.627 -1.4151  0.6395 -2.0306
10953TIP3   OH254349   0.995   1.801  14.103  0.4094  0.2636  0.1487
10953TIP3    H154350   0.915   1.779  14.150 -1.4147  0.6254 -2.5657
10953TIP3    H254351   1.043   1.859  14.162 -0.9019 -0.6142  2.1751
10954TIP3   OH254352   4.131   5.773   4.350  0.0629 -0.2564 -0.0544
10954TIP3    H154353   4.100   5.801   4.263 -4.3122 -0.3841  1.1928
10954TIP3    H254354   4.131   5.678   4.346  0.0897 -0.2586  0.0042
10955TIP3   OH254355   3.334   4.227  16.563  1.2684 -0.2035  0.6145
10955TIP3    H154356   3.310   4.139  16.535 -0.0158  0.5050 -0.6819
10955TIP3    H254357   3.421   4.218  16.601  0.2945 -2.3990  2.5726
10956TIP3   OH254358   1.346   3.483  11.174  0.5095 -0.4697 -0.2140
10956TIP3    H154359   1.274   3.424  11.154 -1.3256  1.9109 -1.0598
10956TIP3    H254360   1.373   3.518  11.089 -2.4190  4.1683  0.4005
10957TIP3   OH254361   1.788   4.525   1.717  0.2828 -0.1254  0.6195
10957TIP3    H154362   1.772   4.574   1.797  0.0950 -0.8258  1.0161
10957TIP3    H254363   1.803   4.592   1.650 -0.5834  0.4849  1.0197
10958TIP3   OH254364   5.785   0.519  16.229  0.1897 -0.1659  0.6657
10958TIP3    H154365   5.871   0.484  16.203  0.2802  0.3417  0.2634
10958TIP3    H254366   5.722   0.459  16.188  0.3492 -0.2348  0.5193
10959TIP3   OH254367   6.449   4.996   1.317  0.4491 -0.5002 -0.2886
10959TIP3    H154368   6.490   5.053   1.382  0.2282  2.0466 -2.2136
10959TIP3    H254369   6.515   4.988   1.248  0.2715 -2.2177 -0.2909
10960TIP3   OH254370   5.155   5.801   1.770 -0.8570 -0.4665 -0.2714
10960TIP3    H154371   5.239   5.760   1.789 -1.0958 -0.4157  1.0046
10960TIP3    H254372   5.127   5.838   1.854 -1.8019  0.1557 -0.8436
10961TIP3   OH254373   3.855   2.570  15.166  0.5105  0.2962  0.2609
10961TIP3    H154374   3.827   2.506  15.231 -0.0872 -0.3253 -0.5694
10961TIP3    H254375   3.841   2.655  15.207  0.0315 -0.0826  0.8914
10962TIP3   OH254376   0.353   1.831   0.314  0.1891  0.2806 -0.5110
10962TIP3    H154377   0.376   1.790   0.230  2.2214 -0.3139  0.2849
10962TIP3    H254378   0.275   1.883   0.294 -0.9094 -1.8045 -2.2038
10963TIP3   OH254379   0.830   1.099  16.342  0.1067 -0.4056  0.0334
10963TIP3    H154380   0.739   1.079  16.365  0.2758  0.2647  1.3819
10963TIP3    H254381   0.832   1.194  16.333  0.4787 -0.4960 -0.9696
10964TIP3   OH254382   6.495   2.093   4.640  0.1095  0.5397  0.1222
10964TIP3    H154383   6.422   2.114   4.699  0.5174  2.4496  0.0174
10964TIP3    H254384   6.454   2.087   4.554 -0.0497  0.8169  0.1756
10965TIP3   OH254385   4.968   1.198  16.495  0.1870 -0.5017  0.2902
10965TIP3    H154386   5.042   1.142  16.470 -0.4091 -0.6758 -1.1599
10965TIP3    H254387   4.892   1.158  16.454 -0.2907  1.2317 -0.6151
10966TIP3   OH254388   5.813   1.700  12.981 -0.5191  0.0265 -0.1820
10966TIP3    H154389   5.883   1.635  12.980  0.0359  0.3439  3.3789
10966TIP3    H254390   5.766   1.683  13.062 -2.1587  2.2637 -0.5736
10967TIP3   OH254391   5.065   4.082  16.720  0.4328 -0.0665  0.5703
10967TIP3    H154392   5.125   4.131  16.663 -0.2543 -0.9562 -0.9661
10967TIP3    H254393   5.059   4.136  16.799  0.6177  1.7343 -0.5770
10968TIP3   OH254394   5.441   2.026  13.227  0.2362 -0.3101  0.0608
10968TIP3    H154395   5.388   2.011  13.305  0.2212  1.2508  0.3815
10968TIP3    H254396   5.511   1.961  13.233 -0.8598 -1.5203  0.3187
10969TIP3   OH254397   5.871   6.601   0.839 -0.1448 -0.3639 -0.4728
10969TIP3    H154398   5.880   6.685   0.795  0.8485 -0.3838 -0.3339
10969TIP3    H254399   5.822   6.546   0.778  0.6485 -0.1891 -1.2770
10970TIP3   OH254400   3.458   3.012   3.611  0.1504  0.2149  0.4566
10970TIP3    H154401   3.445   2.938   3.551  0.1760  1.3107 -0.9403
10970TIP3    H254402   3.522   3.068   3.567  0.3542  0.9434  1.6272
10971TIP3   OH254403   3.954   1.494   0.299 -0.0790 -0.0199 -0.8555
10971TIP3    H154404   4.048   1.512   0.297 -0.0775  0.7721  1.8797
10971TIP3    H254405   3.912   1.580   0.304 -0.8077 -0.3983 -0.1105
10972TIP3   OH254406   0.189   5.969   5.561 -0.2950  0.6290 -0.8229
10972TIP3    H154407   0.121   5.981   5.627 -0.5299  0.8730 -1.1064
10972TIP3    H254408   0.257   6.032   5.584  0.7041 -0.8789  0.5595
10973TIP3   OH254409   3.530   3.039  12.607 -0.4246  0.2560 -0.6659
10973TIP3    H154410   3.619   3.068  12.623 -0.1882 -0.1022 -1.3096
10973TIP3    H254411   3.475   3.100  12.657  0.1209  1.1323 -1.1311
10974TIP3   OH254412   0.179   3.069  16.285  0.1793 -0.3790 -0.0188
10974TIP3    H154413   0.122   3.038  16.215 -0.1210 -0.5840  0.3204
10974TIP3    H254414   0.203   3.158  16.258 -1.3503  0.2125  0.4743
10975TIP3   OH254415   2.495   1.497   5.486  0.4408  0.7881  0.4598
10975TIP3    H154416   2.447   1.578   5.504  1.4703  1.0965  1.9983
10975TIP3    H254417   2.586   1.518   5.506  1.4100  0.3773 -2.7992
10976TIP3   OH254418   2.771   1.574  17.184 -0.0322  0.2618 -0.1221
10976TIP3    H154419   2.743   1.592  17.094 -0.2682  0.9799  0.0910
10976TIP3    H254420   2.715   1.628  17.238  2.5822  2.8456  0.2603
10977TIP3   OH254421   3.233   4.686  11.626 -0.0252  0.3232 -0.4768
10977TIP3    H154422   3.325   4.690  11.602  0.9287  0.5330  2.6896
10977TIP3    H254423   3.223   4.600  11.667 -1.4125  0.0860 -1.2453
10978TIP3   OH254424   5.325   1.392  13.031  0.3038  0.3995  0.0411
10978TIP3    H154425   5.299   1.399  12.939 -0.8156  0.1223  0.3226
10978TIP3    H254426   5.367   1.476  13.051 -0.4985  0.9097 -0.4049
10979TIP3   OH254427   4.071   4.105  11.746  0.0777 -0.2612  0.4940
10979TIP3    H154428   4.007   4.035  11.734 -0.6840 -0.0152  2.6905
10979TIP3    H254429   4.045   4.148  11.827 -0.7441  3.9812 -1.7412
10980TIP3   OH254430   2.183   0.787   4.632 -0.5083  0.0924  0.3178
10980TIP3    H154431   2.229   0.797   4.715 -2.9498 -1.4487  1.9773
10980TIP3    H254432   2.190   0.694   4.611 -1.7147  0.0765 -0.0765
10981TIP3   OH254433   3.655   4.053   0.888  0.4148  0.0912 -0.0577
10981TIP3    H154434   3.625   3.962   0.881  2.2555 -0.5633  0.0899
10981TIP3    H254435   3.582   4.098   0.930 -1.0951 -1.0031 -1.3634
10982TIP3   OH254436   1.652   2.130  17.242 -0.0971  0.2674 -0.4439
10982TIP3    H154437   1.691   2.045  17.225 -0.8177 -0.0062 -0.7813
10982TIP3    H254438   1.607   2.119  17.326  1.8434  1.0508  0.7714
10983TIP3   OH254439   1.878   3.047  13.809 -0.8125  0.4350 -0.3536
10983TIP3    H154440   1.952   3.098  13.840 -0.9337  1.6258 -1.9044
10983TIP3    H254441   1.842   3.006  13.888  2.0863 -1.0628  0.3131
10984TIP3   OH254442   6.048   6.637   3.922 -0.1215 -0.7782  0.6319
10984TIP3    H154443   6.110   6.710   3.922  0.6535 -1.4209  0.4380
10984TIP3    H254444   5.962   6.679   3.920  0.3086  0.1340 -1.2247
10985TIP3   OH254445   4.634   0.267   4.673  0.3598  0.2395 -0.3657
10985TIP3    H154446   4.594   0.350   4.699 -3.0194 -1.0405 -1.0199
10985TIP3    H254447   4.592   0.202   4.728  1.8304 -1.2395 -0.9071
10986TIP3   OH254448   3.897   2.707   1.778 -0.1570  0.0821  0.2655
10986TIP3    H154449   3.802   2.720   1.780  0.0450  1.9815 -0.8689
10986TIP3    H254450   3.933   2.786   1.817  0.9927 -0.3809  0.1850
10987TIP3   OH254451   6.139   4.938   3.028 -0.0965  0.6971 -0.1247
10987TIP3    H154452   6.184   4.936   3.112 -0.2677  0.4787 -0.0414
10987TIP3    H254453   6.046   4.943   3.049 -0.1170  1.0834 -0.3004
10988TIP3   OH254454   0.347   3.165   3.582 -0.0173  0.8075 -0.2882
10988TIP3    H154455   0.440   3.188   3.583  0.2009 -0.0549  1.1022
10988TIP3    H254456   0.301   3.245   3.606  0.5011  0.7446  0.9446
10989TIP3   OH254457   2.160   0.128   3.458  0.0612  0.1332 -0.2556
10989TIP3    H154458   2.093   0.079   3.410  0.5860  0.3048 -1.1822
10989TIP3    H254459   2.235   0.069   3.459  1.1186  1.3020 -2.4343
10990TIP3   OH254460   3.368   2.813  12.575 -0.0861  0.0477 -0.0661
10990TIP3    H154461   3.438   2.877  12.583  0.9130 -0.9662 -0.3765
10990TIP3    H254462   3.396   2.740  12.631 -1.3352 -0.0185  0.5149
10991TIP3   OH254463   0.691   6.671   1.004 -0.2884  0.3568  0.1566
10991TIP3    H154464   0.631   6.697   1.074 -0.6737 -1.0308  0.3809
10991TIP3    H254465   0.643   6.691   0.923 -0.9048 -0.3586  0.3315
10992TIP3   OH254466   2.059   3.989   4.528 -0.6502  0.0059  0.1986
10992TIP3    H154467   1.996   3.999   4.456 -0.5407  1.0552  0.2422
10992TIP3    H254468   2.136   3.950   4.487 -0.8163  0.0163 -0.1309
10993TIP3   OH254469   1.203   0.342  15.238  0.7233 -0.1368 -0.4504
10993TIP3    H154470   1.223   0.364  15.329 -2.8662 -1.1973  0.7864
10993TIP3    H254471   1.210   0.426  15.191 -3.0102  1.9144  2.1075
10994TIP3   OH254472   2.566   5.830   4.764 -0.2134  0.8259 -0.1312
10994TIP3    H154473   2.515   5.867   4.836 -0.6195  1.0164 -0.5134
10994TIP3    H254474   2.653   5.870   4.773 -0.0391  0.3014  0.6772
10995TIP3   OH254475   6.728   0.214   3.830 -0.0430 -0.3170  0.4953
10995TIP3    H154476   6.747   0.286   3.770  0.1943 -0.3692  0.5074
10995TIP3    H254477   6.745   0.250   3.917  1.1697 -0.7174  0.4446
10996TIP3   OH254478   0.104   3.750   2.147 -0.4300 -0.0072 -0.2339
10996TIP3    H154479   0.185   3.795   2.172  1.2363 -2.4810 -0.7699
10996TIP3    H254480   0.057   3.738   2.229  0.3669  0.3819  0.2920
10997TIP3   OH254481   6.541   3.798   5.958 -0.1906 -0.4801  0.2663
10997TIP3    H154482   6.528   3.869   6.021 -1.2021 -1.3106  1.0239
10997TIP3    H254483   6.586   3.729   6.008  0.4723 -0.5301 -0.3719
10998TIP3   OH254484   6.439   3.713   5.713  0.0808 -0.1561  0.2217
10998TIP3    H154485   6.496   3.747   5.781  0.8354 -0.2754 -0.3365
10998TIP3    H254486   6.360   3.767   5.718  0.6106  0.6064  0.4033
10999TIP3   OH254487   2.725   1.747   2.582  0.1489  0.0311 -0.1791
10999TIP3    H154488   2.809   1.703   2.571  0.4958  0.9501 -1.4452
10999TIP3    H254489   2.746   1.828   2.629  0.0298  0.3833 -0.7192
11000TIP3   OH254490   0.074   1.827  16.244 -0.5871 -0.0306 -0.1587
11000TIP3    H154491   0.142   1.879  16.288 -0.0484 -1.5332  0.8595
11000TIP3    H254492   0.009   1.809  16.312 -0.0234 -1.9044 -0.0509
11001TIP3   OH254493   5.643   6.741   3.713  0.8967  0.3487 -0.2324
11001TIP3    H154494   5.566   6.698   3.677  0.3354  1.2161 -0.1121
11001TIP3    H254495   5.645   6.827   3.669  0.9103  0.9420  0.8800
11002TIP3   OH254496   3.823   0.011   6.029 -0.0205  0.0603 -0.0624
11002TIP3    H154497   3.860   0.049   6.108  0.7118 -0.3186 -0.2216
11002TIP3    H254498   3.773   0.082   5.989 -2.3505 -0.3403  1.9135
11003TIP3   OH254499   6.438   1.747   4.376 -0.3794  0.0482 -1.2356
11003TIP3    H154500   6.385   1.669   4.392  0.4021 -0.2050  0.2770
11003TIP3    H254501   6.483   1.729   4.293  1.6516 -2.2449  0.2310
11004TIP3   OH254502   3.813   1.620  13.410 -0.5175 -0.1635  0.1316
11004TIP3    H154503   3.821   1.524  13.412  0.1144 -0.2120 -2.0055
11004TIP3    H254504   3.859   1.650  13.488  0.1572 -1.5644  0.2987
11005TIP3   OH254505   2.282   0.861   1.473 -0.6066  1.1188 -0.5722
11005TIP3    H154506   2.306   0.925   1.406 -0.6762 -0.3629 -2.0897
11005TIP3    H254507   2.350   0.870   1.540 -0.5783  2.7027 -0.7622
11006TIP3   OH254508   5.728   5.926  12.773  0.1358  0.4497  0.0359
11006TIP3    H154509   5.754   5.979  12.698 -0.4715  1.5750  0.5978
11006TIP3    H254510   5.685   5.850  12.734  0.7864  0.4792 -0.7788
11007TIP3   OH254511   4.263   0.355  10.991 -0.1861  0.3109  0.0544
11007TIP3    H154512   4.347   0.326  10.955  0.4198  1.8458  0.1284
11007TIP3    H254513   4.201   0.344  10.920  0.7569  2.1567 -1.1489
11008TIP3   OH254514   5.280   0.860   4.646 -0.1479 -0.1159 -0.0878
11008TIP3    H154515   5.318   0.806   4.577  0.5096  0.7298 -0.4162
11008TIP3    H254516   5.333   0.842   4.723  1.7590  1.8934 -0.8124
11009TIP3   OH254517   6.248   2.375   5.407 -0.1300  0.2133  0.7439
11009TIP3    H154518   6.181   2.382   5.475  0.7467 -0.1405  1.6745
11009TIP3    H254519   6.310   2.445   5.428 -0.2481  0.6027 -0.1674
11010TIP3   OH254520   5.188   2.099   4.441 -0.1324  0.3442  0.0951
11010TIP3    H154521   5.246   2.030   4.409  0.2386  1.1537 -1.0114
11010TIP3    H254522   5.166   2.151   4.364 -3.1600 -0.4927  0.2661
11011TIP3   OH254523   1.418   0.984   5.491  0.4262  0.3615  0.4212
11011TIP3    H154524   1.374   0.975   5.576 -0.5396 -0.4391 -0.1386
11011TIP3    H254525   1.465   0.902   5.480 -0.0972  0.1272 -0.1563
11012TIP3   OH254526   1.515   0.295   4.138  0.2282 -0.3718  0.1427
11012TIP3    H154527   1.537   0.387   4.153  1.2045 -0.5453 -0.1576
11012TIP3    H254528   1.581   0.246   4.185 -0.3453 -0.9316  0.3828
11013TIP3   OH254529   2.443   4.858   0.930  0.2385  0.1053  0.0686
11013TIP3    H154530   2.367   4.871   0.873  1.9472  1.7976 -1.9997
11013TIP3    H254531   2.463   4.765   0.923 -0.9794 -0.1532 -0.2108
11014TIP3   OH254532   4.763   1.201   2.883 -0.5359 -0.6185  0.0479
11014TIP3    H154533   4.723   1.286   2.866  0.9557  0.0756 -0.1032
11014TIP3    H254534   4.733   1.146   2.810  1.2104  0.7610 -1.8249
11015TIP3   OH254535   4.084   4.287   3.202 -0.2679 -0.5503  0.0384
11015TIP3    H154536   4.026   4.345   3.152 -0.6598 -0.0254  1.0745
11015TIP3    H254537   4.151   4.345   3.237 -1.5312 -0.4001  2.3854
11016TIP3   OH254538   4.274   2.388  11.561  0.0250  0.5205 -0.2007
11016TIP3    H154539   4.341   2.360  11.624  0.4100 -0.9219 -1.1983
11016TIP3    H254540   4.204   2.324  11.571 -0.6380  1.2558 -0.0937
11017TIP3   OH254541   1.220   6.760   5.068  0.5349 -0.3538  0.0576
11017TIP3    H154542   1.225   6.851   5.097  3.5021 -0.2024 -0.5668
11017TIP3    H254543   1.168   6.763   4.987  0.1179  0.6735  0.3576
11018TIP3   OH254544   3.324   6.415  16.734 -0.6092  0.1502  0.1935
11018TIP3    H154545   3.234   6.381  16.738  0.0041 -1.5720  0.0114
11018TIP3    H254546   3.379   6.337  16.738  0.9063  1.2217  0.8449
11019TIP3   OH254547   5.278   5.364  12.711 -0.0208 -0.0066 -0.5200
11019TIP3    H154548   5.242   5.321  12.788  0.3490  0.0828 -0.2951
11019TIP3    H254549   5.254   5.306  12.638 -0.4979 -0.0154 -0.3576
11020TIP3   OH254550   3.904   3.772  14.921 -0.6134  0.0718 -0.0028
11020TIP3    H154551   3.892   3.683  14.954  3.5489 -1.3276 -1.5434
11020TIP3    H254552   3.901   3.762  14.826  2.3823  0.9511 -0.2859
11021TIP3   OH254553   6.552   2.434  13.133 -0.1884 -0.2859 -0.2857
11021TIP3    H154554   6.485   2.422  13.066 -1.3689 -0.4539  0.8843
11021TIP3    H254555   6.510   2.488  13.200  0.8122 -0.4718  0.5265
11022TIP3   OH254556   6.089   2.658   5.963 -0.0687 -0.4687  0.0157
11022TIP3    H154557   6.173   2.613   5.959  0.5209  0.4318  1.3359
11022TIP3    H254558   6.035   2.604   6.021 -0.7404 -1.5096 -1.5180
11023TIP3   OH254559   0.639   0.105   1.512 -0.2467 -0.4846 -0.6173
11023TIP3    H154560   0.636   0.183   1.568  0.0384 -0.8447 -0.0901
11023TIP3    H254561   0.571   0.120   1.447 -0.1535  0.2327 -0.5554
11024TIP3   OH254562   5.996   4.072  12.468  0.0712  0.1227  0.3205
11024TIP3    H154563   6.000   4.166  12.449 -1.2858  0.4667  1.5754
11024TIP3    H254564   6.066   4.058  12.532 -2.6669  1.3414  3.9119
11025TIP3   OH254565   0.784   1.608   6.613  0.4922  0.2017 -0.1040
11025TIP3    H154566   0.814   1.525   6.650 -0.0420 -0.0454 -0.2220
11025TIP3    H254567   0.811   1.604   6.521  2.9461  1.3433  0.4678
11026TIP3   OH254568   6.353   5.913   4.304  0.0498  0.2356  0.2121
11026TIP3    H154569   6.410   5.940   4.376 -0.7653  1.4059  0.4473
11026TIP3    H254570   6.369   5.977   4.236 -1.3911  0.9266  0.4988
11027TIP3   OH254571   4.663   0.823  15.051 -0.1445  0.0549 -0.7921
11027TIP3    H154572   4.704   0.750  15.004 -0.1541 -0.3032 -0.2599
11027TIP3    H254573   4.582   0.840  15.002 -0.2415 -0.4294 -0.8076
11028TIP3   OH254574   4.721   4.312   5.655 -0.4853  0.1731  0.1967
11028TIP3    H154575   4.756   4.341   5.570  0.2576  1.9745  1.0693
11028TIP3    H254576   4.637   4.273   5.633 -0.8596  1.6613 -1.2810
11029TIP3   OH254577   0.080   4.064   5.653 -0.0309  0.4619 -0.2231
11029TIP3    H154578   0.132   3.984   5.653 -0.9143 -0.2362  2.7830
11029TIP3    H254579  -0.009   4.035   5.634 -0.2021  0.8560 -0.0306
11030TIP3   OH254580   1.968   2.982  14.490  0.2907  0.3474 -0.1085
11030TIP3    H154581   1.940   2.967  14.400 -0.7789  0.0539  0.2677
11030TIP3    H254582   2.060   2.954  14.491  0.4963  0.8871 -1.2340
11031TIP3   OH254583   3.314   6.799   4.190 -0.1705  0.3893 -0.1018
11031TIP3    H154584   3.312   6.706   4.212  1.4141  0.5511  0.8687
11031TIP3    H254585   3.401   6.813   4.153  0.3864  1.8460  1.6043
11032TIP3   OH254586   0.947   4.222  16.102 -0.1018 -0.5305 -0.1031
11032TIP3    H154587   0.949   4.144  16.157  0.5359  0.1211  0.8224
11032TIP3    H254588   1.038   4.236  16.076  0.0803  0.8476  1.1350
11033TIP3   OH254589   5.899   3.147  12.577 -0.1230  0.1732  0.5788
11033TIP3    H154590   5.812   3.116  12.603 -0.7457  2.0595  0.8765
11033TIP3    H254591   5.882   3.212  12.509  1.2320 -1.1640 -1.1522
11034TIP3   OH254592   5.381   0.848   0.850 -0.1989 -0.1780 -0.0967
11034TIP3    H154593   5.380   0.873   0.942  0.9767  0.4596 -0.2395
11034TIP3    H254594   5.295   0.873   0.817 -0.4966 -0.0781  0.7351
11035TIP3   OH254595   6.361   4.034   0.643  0.5165  0.1336 -0.3115
11035TIP3    H154596   6.310   4.003   0.718 -0.9768  0.3842 -1.1797
11035TIP3    H254597   6.332   4.125   0.630  0.9136  0.1666 -1.0348
11036TIP3   OH254598   3.491   0.137   3.425 -0.2281 -0.0332 -0.0423
11036TIP3    H154599   3.480   0.078   3.350 -1.7207 -0.6931  0.6525
11036TIP3    H254600   3.578   0.176   3.412  0.3307 -1.5248 -1.1264
11037TIP3   OH254601   5.591   5.658   5.651  0.7531  0.2103  0.1685
11037TIP3    H154602   5.513   5.613   5.683  0.0251  1.8221  0.7513
11037TIP3    H254603   5.662   5.626   5.706  0.2668 -0.2934  0.5045
11038TIP3   OH254604   1.866   5.211   3.008 -0.0617 -0.0342 -0.0264
11038TIP3    H154605   1.902   5.299   2.992  1.9251 -0.9784 -1.0285
11038TIP3    H254606   1.786   5.228   3.058 -0.4118  2.4213 -1.2495
11039TIP3   OH254607   6.150   2.107  14.533 -0.8623 -0.0440 -0.1144
11039TIP3    H154608   6.110   2.020  14.533 -1.0287  0.0295  0.4849
11039TIP3    H254609   6.216   2.103  14.603 -0.0255 -0.0639 -0.8820
11040TIP3   OH254610   5.081   6.156   5.322 -0.3775  0.4190 -0.9869
11040TIP3    H154611   4.995   6.190   5.349  0.3196  1.5702 -0.0966
11040TIP3    H254612   5.143   6.220   5.356  0.7549  0.5236 -3.0963
11041TIP3   OH254613   0.594   4.650   4.623  0.1192 -0.2444  0.1603
11041TIP3    H154614   0.598   4.582   4.690 -1.4426 -1.5864 -1.0080
11041TIP3    H254615   0.681   4.650   4.583  0.3444 -1.1146  0.6287
11042TIP3   OH254616   0.948   5.680  17.017 -0.0396 -0.3406 -0.1137
11042TIP3    H154617   0.926   5.685  17.110 -0.9732 -0.1595 -0.3353
11042TIP3    H254618   0.882   5.621  16.980 -0.0049  0.0170 -0.7585
11043TIP3   OH254619   4.659   3.960  13.807 -0.0390 -0.0441 -0.2579
11043TIP3    H154620   4.599   3.994  13.741  0.4724 -0.4782 -0.9487
11043TIP3    H254621   4.746   3.973  13.770  0.2144 -1.0674 -0.0326
11044TIP3   OH254622   0.297   5.868  12.618 -1.0394  0.1593 -0.0543
11044TIP3    H154623   0.320   5.821  12.538 -1.6724 -0.8012  0.3036
11044TIP3    H254624   0.327   5.957  12.603 -1.7317  0.1600 -1.6387
11045TIP3   OH254625   1.447   3.704   4.070 -0.2255 -0.0942 -0.1305
11045TIP3    H154626   1.419   3.688   4.161  1.1544 -0.0288  0.3296
11045TIP3    H254627   1.371   3.681   4.017 -0.9166 -0.5497  1.0235
11046TIP3   OH254628   6.391   4.230   3.801 -0.0663  0.6461 -0.5816
11046TIP3    H154629   6.354   4.168   3.738 -0.2454  0.0733  0.0716
11046TIP3    H254630   6.329   4.303   3.802 -1.3194 -0.3705  0.6113
11047TIP3   OH254631   5.895   3.404   1.233  0.5819 -0.6512 -0.4258
11047TIP3    H154632   5.883   3.455   1.313  0.7760  0.2597 -0.9519
11047TIP3    H254633   5.966   3.343   1.253  1.3819  0.3132 -0.2326
11048TIP3   OH254634   1.872   1.254   5.906 -0.0193  0.1700 -0.6936
11048TIP3    H154635   1.891   1.281   5.817 -0.1583 -1.6079 -1.3086
11048TIP3    H254636   1.957   1.249   5.949  0.1423  0.1027 -1.0212
11049TIP3   OH254637   5.225   5.319  15.011 -0.7662 -0.1798  0.2693
11049TIP3    H154638   5.310   5.318  14.966 -0.1719 -0.0370  1.3495
11049TIP3    H254639   5.220   5.405  15.052 -2.0385  0.3174 -0.8448
11050TIP3   OH254640   1.607   2.097  13.503  0.0118 -0.8078  0.1970
11050TIP3    H154641   1.687   2.134  13.540 -1.1664  0.1438  1.9046
11050TIP3    H254642   1.568   2.168  13.453 -0.2441 -0.9651  0.1704
11051TIP3   OH254643   5.875   5.402   1.469 -0.4801 -0.4001 -0.3167
11051TIP3    H154644   5.863   5.407   1.374 -0.8254 -1.4007 -0.3353
11051TIP3    H254645   5.969   5.399   1.482 -0.4194  0.2003 -0.6003
11052TIP3   OH254646   1.857   0.686  11.355  0.1988 -0.3794 -0.1353
11052TIP3    H154647   1.792   0.643  11.411 -0.5337  0.1018 -0.5984
11052TIP3    H254648   1.806   0.723  11.283  1.0159 -0.1607 -0.6146
11053TIP3   OH254649   3.244   6.262  14.832 -0.2026  0.1391  0.3777
11053TIP3    H154650   3.289   6.222  14.906 -2.5923 -1.6252  1.0094
11053TIP3    H254651   3.246   6.195  14.763 -0.8821  0.4554  0.0352
11054TIP3   OH254652   2.903   4.772  14.482  0.4970 -0.5941  0.0354
11054TIP3    H154653   2.871   4.701  14.537  3.1190 -1.1913  0.9510
11054TIP3    H254654   2.978   4.808  14.530  0.8329  1.0991 -1.6160
11055TIP3   OH254655   4.935   4.172   1.102  0.2178 -0.2294  0.1208
11055TIP3    H154656   4.971   4.204   1.019 -0.6333 -0.0019 -0.1714
11055TIP3    H254657   5.011   4.165   1.160  1.0002 -1.4206 -0.9914
11056TIP3   OH254658   0.039   0.631   6.799  0.0459  0.4143 -0.1395
11056TIP3    H154659   0.079   0.706   6.755 -0.9781  1.2504  0.2811
11056TIP3    H254660  -0.016   0.590   6.732 -0.1415  0.6236 -0.1147
11057TIP3   OH254661   5.594   0.315  13.036 -0.1096 -0.2197 -0.0873
11057TIP3    H154662   5.614   0.395  12.988  0.0230 -0.1355  0.1059
11057TIP3    H254663   5.577   0.250  12.968 -0.5443  0.0535 -0.2380
11058TIP3   OH254664   6.225   1.747   3.270 -0.7757  0.8066 -0.4197
11058TIP3    H154665   6.254   1.837   3.253 -0.7470  1.0388  0.7472
11058TIP3    H254666   6.220   1.742   3.366  0.4751 -0.8267 -0.4111
11059TIP3   OH254667   3.301   1.198  12.878 -0.4006 -0.3139 -0.0531
11059TIP3    H154668   3.224   1.161  12.921 -0.5204  0.6640  0.6007
11059TIP3    H254669   3.313   1.144  12.800 -2.1541 -0.0736 -0.5439
11060TIP3   OH254670   4.159   3.757   5.803  0.7056 -0.4462  0.1667
11060TIP3    H154671   4.157   3.718   5.890  3.2581 -2.2595 -0.4570
11060TIP3    H254672   4.073   3.739   5.766  0.8215 -3.0669  0.9895
11061TIP3   OH254673   5.777   1.053   2.833  0.0813  0.5909  0.1856
11061TIP3    H154674   5.791   0.990   2.903 -1.2530  0.7740  0.6482
11061TIP3    H254675   5.735   1.003   2.763  1.1641  0.4666 -0.3897
11062TIP3   OH254676   0.938   2.076   5.340 -0.4088 -0.5266  0.3253
11062TIP3    H154677   0.970   2.035   5.420  1.8661  0.2573 -0.1174
11062TIP3    H254678   0.854   2.114   5.365  0.5446  0.2980  2.5707
11063TIP3   OH254679   2.929   1.178  15.032  0.3272 -0.0154  0.0484
11063TIP3    H154680   2.930   1.083  15.022  1.7312  0.1244 -1.8303
11063TIP3    H254681   2.838   1.200  15.052  0.0499 -1.7570  0.8259
11064TIP3   OH254682   1.922   3.098   5.727  0.5649  0.2498 -0.8035
11064TIP3    H154683   1.831   3.071   5.723  0.9752 -1.2846 -0.4124
11064TIP3    H254684   1.918   3.192   5.745 -0.9649 -0.1902  1.5996
11065TIP3   OH254685   0.633   4.087  12.244  0.1400  0.0883 -0.1329
11065TIP3    H154686   0.696   4.092  12.172  1.6421 -0.2999  1.0972
11065TIP3    H254687   0.589   4.003  12.231  0.3404  0.0521 -0.6337
11066TIP3   OH254688   0.278   1.656   2.374 -0.0026  0.1347 -0.1248
11066TIP3    H154689   0.292   1.746   2.345 -1.8331  0.9088  1.1997
11066TIP3    H254690   0.298   1.658   2.467  1.9844 -1.3828 -0.4561
11067TIP3   OH254691   0.919   1.746   1.043  0.2294 -0.8984 -0.1857
11067TIP3    H154692   0.949   1.665   1.003 -0.1490 -1.3510  0.4356
11067TIP3    H254693   0.831   1.727   1.075  0.8491 -0.8324  1.6429
11068TIP3   OH254694   0.621   2.788   3.895 -0.0008 -0.1179 -0.0041
11068TIP3    H154695   0.587   2.767   3.809 -0.3859  0.3653  0.0296
11068TIP3    H254696   0.562   2.855   3.930  0.3314 -0.0783  0.5050
11069TIP3   OH254697   0.290   4.932  13.103  0.3024 -0.2931  0.4142
11069TIP3    H154698   0.339   4.862  13.059  1.2180 -2.4648  4.4333
11069TIP3    H254699   0.202   4.896  13.114  0.2060  0.0355  0.7266
11070TIP3   OH254700   3.433   5.878   5.295  0.5632  0.4813 -0.1260
11070TIP3    H154701   3.386   5.960   5.311  0.2659  0.4935 -1.0053
11070TIP3    H254702   3.518   5.905   5.263 -0.1576  0.4804 -2.1842
11071TIP3   OH254703   0.521   6.640  14.075 -0.2677 -0.3405 -0.1908
11071TIP3    H154704   0.470   6.566  14.044  1.4452 -2.0542  0.8199
11071TIP3    H254705   0.506   6.643  14.169  1.6945 -1.1648  0.2136
11072TIP3   OH254706   1.357   6.742  17.176 -0.0065 -0.2547  0.1122
11072TIP3    H154707   1.436   6.776  17.218  1.5215 -0.2700 -2.5208
11072TIP3    H254708   1.355   6.649  17.199  0.8288 -0.2838  0.1068
11073TIP3   OH254709   1.936   5.192  16.732 -0.3356  0.1872  0.3472
11073TIP3    H154710   1.860   5.162  16.681  0.7611  0.6132 -1.6402
11073TIP3    H254711   1.898   5.246  16.801 -1.8340  1.7866 -1.5746
11074TIP3   OH254712   1.237   2.655  13.980 -0.2704  0.2143  0.3619
11074TIP3    H154713   1.201   2.576  14.019 -1.2061  0.3136 -0.2650
11074TIP3    H254714   1.168   2.721  13.991 -0.0400  0.5815 -0.2982
11075TIP3   OH254715   4.458   2.885   1.401 -0.3080  0.1332 -0.6798
11075TIP3    H154716   4.542   2.850   1.431 -0.3967  0.3607 -0.1624
11075TIP3    H254717   4.396   2.861   1.470 -0.0903  2.6787  0.5242
11076TIP3   OH254718   5.321   4.348   4.814 -0.5723 -0.4418  0.1994
11076TIP3    H154719   5.270   4.286   4.761  1.3500 -2.7527  0.8965
11076TIP3    H254720   5.360   4.407   4.750 -2.2233 -0.0796 -0.5182
11077TIP3   OH254721   3.044   5.309   0.001  0.2102 -0.5141  0.5039
11077TIP3    H154722   3.117   5.285  -0.056 -1.4802 -1.1470 -1.5208
11077TIP3    H254723   3.049   5.405   0.008  0.0896 -0.3389 -1.3300
11078TIP3   OH254724   6.528   0.604  13.265 -0.3645 -0.5192 -0.1957
11078TIP3    H154725   6.586   0.643  13.331 -2.5761  3.7363 -0.4284
11078TIP3    H254726   6.581   0.600  13.186  0.6320 -0.1377  0.4332
11079TIP3   OH254727   1.653   0.924   3.346 -0.3752 -0.4832  0.4632
11079TIP3    H154728   1.719   0.864   3.313 -0.4459 -0.3107  0.0014
11079TIP3    H254729   1.703   0.992   3.391 -0.2474 -0.4304  0.2399
11080TIP3   OH254730   4.747   4.095   2.595 -0.3601 -0.0906  0.2748
11080TIP3    H154731   4.843   4.095   2.591 -0.3360  0.9993  0.5192
11080TIP3    H254732   4.727   4.149   2.672 -1.1645 -0.4411  0.3139
11081TIP3   OH254733   6.339   5.191   1.570 -0.2661  0.1323  0.7580
11081TIP3    H154734   6.351   5.098   1.589  1.1916  0.0807 -0.3083
11081TIP3    H254735   6.381   5.236   1.643 -1.7761 -0.0084  1.7548
11082TIP3   OH254736   3.956   3.654  13.942  0.1865 -1.0189  0.0504
11082TIP3    H154737   3.960   3.595  14.018 -0.1790 -1.1075 -0.0010
11082TIP3    H254738   3.924   3.599  13.870  0.1657 -0.8389 -0.0778
11083TIP3   OH254739   5.170   1.648  11.503  0.5625  0.3483 -0.1792
11083TIP3    H154740   5.234   1.606  11.560 -1.3100 -1.6640  0.5755
11083TIP3    H254741   5.174   1.599  11.421  2.7175  2.7653 -1.6909
11084TIP3   OH254742   5.553   6.325  13.544  0.3188 -0.1014  0.1270
11084TIP3    H154743   5.634   6.344  13.496  0.3738 -0.2625  0.1541
11084TIP3    H254744   5.496   6.283  13.479  0.9597 -1.7429  0.5672
11085TIP3   OH254745   5.384   6.525   1.355  0.3279 -0.2443  0.2134
11085TIP3    H154746   5.341   6.596   1.306 -0.8405 -1.4800 -0.6209
11085TIP3    H254747   5.313   6.465   1.377  0.7358  0.3864  3.7952
11086TIP3   OH254748   6.638   2.440   0.834 -0.2175 -0.5185  0.4086
11086TIP3    H154749   6.707   2.505   0.817 -1.7446  0.6595 -1.8512
11086TIP3    H254750   6.681   2.356   0.823  0.8283  0.1948 -1.4070
11087TIP3   OH254751   3.999   0.114  14.542 -0.1394  0.3771  0.3453
11087TIP3    H154752   4.070   0.063  14.502  0.6293  0.6921  1.2836
11087TIP3    H254753   4.042   0.193  14.574 -1.3369  1.7589 -1.2566
11088TIP3   OH254754   3.689   3.411   0.932 -0.7438 -0.1676  0.8176
11088TIP3    H154755   3.711   3.399   1.024  0.8725 -1.4807  0.3064
11088TIP3    H254756   3.743   3.347   0.885  0.4783  2.1745 -1.2608
11089TIP3   OH254757   5.645   0.325   3.165  0.3650 -0.1961  0.3646
11089TIP3    H154758   5.654   0.234   3.135  1.5951  0.7183 -2.4144
11089TIP3    H254759   5.552   0.335   3.184 -0.0808 -1.6194 -0.8387
11090TIP3   OH254760   6.692   0.310  12.393  0.3166 -0.8188 -0.6322
11090TIP3    H154761   6.747   0.284  12.320 -0.0804  0.0899 -1.2806
11090TIP3    H254762   6.719   0.254  12.465 -0.8018 -3.3262 -2.0393
11091TIP3   OH254763   3.669   5.338   0.656 -0.3238  0.0746 -0.2244
11091TIP3    H154764   3.761   5.315   0.665 -0.1782  1.1241  1.3666
11091TIP3    H254765   3.622   5.269   0.704 -0.1312  1.0684  1.4702
11092TIP3   OH254766   2.410   0.706  15.147 -0.1934 -0.5352  0.0170
11092TIP3    H154767   2.444   0.731  15.233 -0.5392  0.2828 -0.0739
11092TIP3    H254768   2.395   0.612  15.154  1.1922 -0.7554  0.3647
11093TIP3   OH254769   0.590   0.202   4.547  0.5178 -0.2764 -0.7193
11093TIP3    H154770   0.678   0.187   4.580  0.8522  1.7091 -0.6117
11093TIP3    H254771   0.563   0.285   4.586 -1.1475 -0.5203 -1.2720
11094TIP3   OH254772   6.174   4.311  15.266  0.0781  0.1737 -0.1490
11094TIP3    H154773   6.209   4.342  15.182  0.0313  0.2217 -0.1504
11094TIP3    H254774   6.251   4.286  15.317  0.0415 -2.0681 -1.0538
11095TIP3   OH254775   6.682   1.491   0.476  0.1157 -0.2222  0.0080
11095TIP3    H154776   6.730   1.537   0.545  1.7006 -1.4372 -0.2191
11095TIP3    H254777   6.685   1.399   0.502 -0.8032 -0.5112 -0.8103
11096TIP3   OH254778   4.482   1.038   4.649 -0.2173  0.3004 -0.0606
11096TIP3    H154779   4.454   1.002   4.565 -1.8078  0.3577  0.4185
11096TIP3    H254780   4.533   1.115   4.627  0.6952 -0.5491 -1.0053
11097TIP3   OH254781   4.073   6.171  11.382 -0.0002 -0.8178  0.4753
11097TIP3    H154782   3.987   6.198  11.416  0.9001  1.4521  1.1699
11097TIP3    H254783   4.077   6.077  11.399 -2.0865 -0.8591  1.0204
11098TIP3   OH254784   6.086   2.161   2.046 -0.1777  0.2271 -0.6020
11098TIP3    H154785   6.005   2.110   2.042 -0.4628  0.7339 -1.7753
11098TIP3    H254786   6.057   2.252   2.036  0.5872  0.3613 -1.7778
11099TIP3   OH254787   6.486   5.758  10.786  0.5258 -0.5895 -0.1147
11099TIP3    H154788   6.395   5.739  10.808  0.7981  0.2695  2.0331
11099TIP3    H254789   6.534   5.745  10.868  1.9114  1.5207 -0.5003
11100TIP3   OH254790   5.560   0.325   5.038 -0.4664  0.5265  0.1382
11100TIP3    H154791   5.605   0.410   5.036 -0.4169  0.5010  0.1801
11100TIP3    H254792   5.613   0.268   4.983 -0.5745  0.5598 -0.0010
11101TIP3   OH254793   2.708   6.812  13.033  0.4285  0.0784 -0.2747
11101TIP3    H154794   2.662   6.829  13.116  1.5442  1.0827  0.1619
11101TIP3    H254795   2.672   6.877  12.973 -0.9227 -1.1241 -0.8343
11102TIP3   OH254796   2.750   1.006  14.780 -0.4434  0.2303  0.3581
11102TIP3    H154797   2.745   0.957  14.862 -0.6189  1.1755  0.9363
11102TIP3    H254798   2.661   1.001  14.744 -0.3894 -0.1104  0.2733
11103TIP3   OH254799   2.073   2.679   0.896 -0.2395 -0.5444 -0.2568
11103TIP3    H154800   2.104   2.724   0.817 -1.0569 -0.0236 -0.3016
11103TIP3    H254801   2.032   2.748   0.948  0.5840 -0.8302  0.7829
11104TIP3   OH254802   4.237   6.064  15.239 -0.4995  0.2748  0.0446
11104TIP3    H154803   4.170   5.997  15.244 -1.5527  1.1820 -1.0937
11104TIP3    H254804   4.258   6.070  15.145  1.4329 -0.2031  0.3963
11105TIP3   OH254805   2.592   4.595   4.818  0.3338 -0.5964  0.1339
11105TIP3    H154806   2.670   4.614   4.870 -0.3969 -0.7537  1.3183
11105TIP3    H254807   2.612   4.628   4.731  1.0231  1.0354  0.8839
11106TIP3   OH254808   3.873   1.638   5.716 -0.2569  0.0177 -0.4262
11106TIP3    H154809   3.949   1.697   5.715 -0.3220  0.1749  1.4238
11106TIP3    H254810   3.867   1.608   5.806 -2.0831 -0.4296 -0.6633
11107TIP3   OH254811   2.049   5.464   2.622  0.3117  0.2395 -0.5072
11107TIP3    H154812   2.123   5.482   2.680  1.6726  0.1029 -2.1334
11107TIP3    H254813   2.041   5.369   2.622 -0.8799  0.3059  0.8327
11108TIP3   OH254814   3.987   0.413  15.342 -0.6215 -0.2513  0.4804
11108TIP3    H154815   3.905   0.409  15.391 -1.0694 -0.3284 -0.2544
11108TIP3    H254816   3.959   0.419  15.251  0.1832 -2.1474  0.0748
11109TIP3   OH254817   1.460   0.376   1.552 -0.5317  0.0251  0.0271
11109TIP3    H154818   1.381   0.342   1.510 -0.2584  1.0210 -1.3457
11109TIP3    H254819   1.436   0.466   1.577 -0.0717  0.0803  0.2662
11110TIP3   OH254820   6.595   1.497   2.298 -0.0623 -0.3633  0.7745
11110TIP3    H154821   6.690   1.512   2.295  0.0329 -1.0161  0.0461
11110TIP3    H254822   6.587   1.406   2.327 -0.3347 -1.2155 -1.6789
11111TIP3   OH254823   0.893   2.939   4.633 -0.0930  0.2467 -0.6979
11111TIP3    H154824   0.950   2.950   4.557  1.2036 -1.9363 -0.1067
11111TIP3    H254825   0.941   2.981   4.705 -0.1169  0.0416 -0.5631
11112TIP3   OH254826   4.187   6.664   5.635  0.1449  0.4725  0.5205
11112TIP3    H154827   4.161   6.661   5.543 -1.3364 -1.2703  0.9388
11112TIP3    H254828   4.111   6.702   5.680  0.6639  0.8485  1.0911
11113TIP3   OH254829   1.568   5.874   0.026  0.3765  0.3434  0.6264
11113TIP3    H154830   1.632   5.935  -0.010  0.8336 -0.2679  0.3822
11113TIP3    H254831   1.607   5.844   0.109 -0.4331  1.3506  1.4012
11114TIP3   OH254832   0.542   1.098  16.317 -0.1641  0.7730 -0.1653
11114TIP3    H154833   0.552   1.193  16.310 -0.3505  0.7676 -0.5263
11114TIP3    H254834   0.501   1.072  16.234  0.5750  0.2783 -0.3814
11115TIP3   OH254835   2.590   3.546   2.014  0.7575  0.2902  0.5146
11115TIP3    H154836   2.622   3.579   1.930  0.0394 -0.9941 -0.3017
11115TIP3    H254837   2.562   3.624   2.062 -0.3197  0.9438 -1.0944
11116TIP3   OH254838   0.544   1.022   4.845 -0.3937 -0.3376 -0.2538
11116TIP3    H154839   0.490   1.080   4.791  0.9515 -1.1960 -2.6836
11116TIP3    H254840   0.631   1.061   4.844 -0.4675  0.0282  2.0346
11117TIP3   OH254841   5.205   3.138  15.016  0.0639 -0.3210  0.1809
11117TIP3    H154842   5.161   3.053  15.009 -1.0277  0.3089 -0.9860
11117TIP3    H254843   5.192   3.164  15.107 -1.3509 -0.5163  0.0641
11118TIP3   OH254844   3.575   4.936  14.542  0.4390 -0.4209  0.5678
11118TIP3    H154845   3.545   4.845  14.539  0.1098 -0.3446  1.3934
11118TIP3    H254846   3.497   4.988  14.525  0.7135 -0.2878 -0.3680
11119TIP3   OH254847   2.783   4.723  17.282  0.5333 -0.5192  0.3209
11119TIP3    H154848   2.788   4.627  17.282  1.0724 -0.5686 -2.5195
11119TIP3    H254849   2.802   4.748  17.192 -3.3936  2.0542 -0.0411
11120TIP3   OH254850   4.107   2.929  14.133  0.2937  0.4536 -0.0567
11120TIP3    H154851   4.125   2.908  14.224  1.3113  0.1579 -0.3184
11120TIP3    H254852   4.161   3.005  14.113  1.7273 -0.7574 -0.9915
11121TIP3   OH254853   0.803   0.723   5.742 -0.5000  0.2131  0.1775
11121TIP3    H154854   0.774   0.755   5.657 -0.2204 -1.4830 -0.6088
11121TIP3    H254855   0.865   0.789   5.774  1.1243 -0.1602 -1.9873
11122TIP3   OH254856   6.019   6.029  12.312  0.4291 -0.0672 -0.0913
11122TIP3    H154857   6.073   6.094  12.356  1.1015 -0.5170 -0.2264
11122TIP3    H254858   6.082   5.974  12.264 -0.2332  0.0904 -1.1841
11123TIP3   OH254859   0.813   3.070   3.331  0.4480 -0.3235 -0.0942
11123TIP3    H154860   0.820   3.135   3.261 -0.6359  0.3243  0.3713
11123TIP3    H254861   0.852   2.991   3.294  0.1313  0.0813 -1.3359
11124TIP3   OH254862   1.341   0.813  15.265 -0.0952  0.4896  0.3759
11124TIP3    H154863   1.364   0.764  15.344  0.2462  0.8063  0.4780
11124TIP3    H254864   1.420   0.862  15.243  0.1604 -0.3936 -0.7694
11125TIP3   OH254865   1.117   5.935  16.457 -0.1760 -0.1634  0.1809
11125TIP3    H154866   1.153   5.890  16.381  0.2094 -0.3783  0.4851
11125TIP3    H254867   1.101   6.024  16.427 -0.7361 -0.4414 -0.3637
11126TIP3   OH254868   5.619   2.037  12.675  0.1233  0.4420 -0.4119
11126TIP3    H154869   5.671   2.056  12.597 -2.1927  0.9592 -1.9123
11126TIP3    H254870   5.552   2.105  12.677 -1.3897 -0.9936  0.6264
11127TIP3   OH254871   2.667   4.236  15.078 -0.1106 -0.1727 -0.2681
11127TIP3    H154872   2.642   4.328  15.091 -1.5147 -0.6294  0.5038
11127TIP3    H254873   2.755   4.230  15.115  0.0466  0.8821 -0.4256
11128TIP3   OH254874   2.249   5.048   4.091  0.1025  0.2065  0.4148
11128TIP3    H154875   2.339   5.042   4.059  0.2443 -0.4996  0.9232
11128TIP3    H254876   2.249   5.126   4.146  0.0963  0.8848 -0.5255
11129TIP3   OH254877   1.922   1.579   2.733 -0.0731 -0.2612 -0.4169
11129TIP3    H154878   1.853   1.625   2.686  0.1330 -0.2267 -0.6863
11129TIP3    H254879   2.002   1.626   2.710  0.4013 -1.7411 -2.0393
11130TIP3   OH254880   5.211   4.920  10.784  0.3700 -0.2779  0.1437
11130TIP3    H154881   5.220   4.850  10.849 -1.4533  0.2359  1.0050
11130TIP3    H254882   5.165   4.878  10.711  0.7286 -0.3681 -0.0356
11131TIP3   OH254883   4.868   3.238   3.524 -0.0933  0.1119  0.6015
11131TIP3    H154884   4.773   3.250   3.518 -0.0309  0.9347  1.0323
11131TIP3    H254885   4.881   3.182   3.600 -0.1427  1.9852  2.0725
11132TIP3   OH254886   5.603   0.498   4.326  0.0955  0.0840 -0.0697
11132TIP3    H154887   5.528   0.548   4.295 -1.0994 -1.5957 -0.0127
11132TIP3    H254888   5.632   0.448   4.250  0.1520 -0.4643  0.3057
11133TIP3   OH254889   4.103   5.145  16.334  0.0583  0.2966  0.3094
11133TIP3    H154890   4.155   5.145  16.414  0.5908  0.9106 -0.0312
11133TIP3    H254891   4.074   5.054  16.324 -2.0160  0.6125  2.4719
11134TIP3   OH254892   2.483   0.049   0.022  0.1388 -0.2133  0.2459
11134TIP3    H154893   2.441   0.038   0.107  0.5873  0.2754  0.5369
11134TIP3    H254894   2.411   0.045  -0.041 -0.2201 -0.3880  0.6626
11135TIP3   OH254895   0.190   5.154   2.240 -0.0892 -0.2860  0.5713
11135TIP3    H154896   0.185   5.069   2.195  1.3025  0.4067 -0.9990
11135TIP3    H254897   0.124   5.148   2.309 -0.0109 -2.6594  0.5447
11136TIP3   OH254898   3.572   5.874  11.884  0.6764  0.0133 -0.7820
11136TIP3    H154899   3.555   5.785  11.917  0.8751 -0.3143 -1.5551
11136TIP3    H254900   3.661   5.893  11.913  0.1131  0.5755  0.7050
11137TIP3   OH254901   0.302   5.112  16.473  0.0728  0.6879  0.1239
11137TIP3    H154902   0.251   5.186  16.439  0.4568  1.3824  1.0358
11137TIP3    H254903   0.236   5.049  16.502 -0.3180  1.8627  1.9230
11138TIP3   OH254904   2.307   6.504  11.295 -0.0800 -0.1596 -0.5600
11138TIP3    H154905   2.279   6.452  11.371  0.3491 -1.3056 -1.1571
11138TIP3    H254906   2.352   6.441  11.239  1.2754  1.0685 -0.9025
11139TIP3   OH254907   2.769   0.305   1.252  0.2018 -0.1895  0.0875
11139TIP3    H154908   2.744   0.364   1.323  2.8127  0.4911  0.5251
11139TIP3    H254909   2.792   0.223   1.297 -0.7999 -0.6925 -0.2785
11140TIP3   OH254910   4.245   4.548   0.637 -0.3686 -0.0776  0.3414
11140TIP3    H154911   4.273   4.493   0.710  1.6369 -2.1701 -1.8238
11140TIP3    H254912   4.300   4.520   0.564 -3.6208  0.4140 -2.5342
11141TIP3   OH254913   1.532   3.693  13.034 -0.4735  0.4214  0.1689
11141TIP3    H154914   1.554   3.713  12.943 -3.6870  1.8412 -0.4348
11141TIP3    H254915   1.554   3.772  13.083 -0.3526  0.2972  0.3193
11142TIP3   OH254916   5.610   1.820   0.630  0.0315  0.1679 -0.3378
11142TIP3    H154917   5.664   1.755   0.674  0.1928 -0.0943 -0.9099
11142TIP3    H254918   5.648   1.904   0.655 -0.6267  0.0855  0.9841
11143TIP3   OH254919   6.417   3.859  14.917 -0.0440 -0.4301  0.0458
11143TIP3    H154920   6.493   3.857  14.860  0.7856  0.9751  1.0633
11143TIP3    H254921   6.452   3.880  15.004 -1.4620 -0.8990  0.7708
11144TIP3   OH254922   4.966   0.844  15.874 -0.6227 -0.2175 -0.1371
11144TIP3    H154923   4.971   0.909  15.944 -1.5661  0.7988 -0.9746
11144TIP3    H254924   4.996   0.890  15.796 -0.6578 -0.9977 -0.6173
11145TIP3   OH254925   1.952   3.849  13.726  0.5109 -0.1141  0.4411
11145TIP3    H154926   1.919   3.826  13.639  1.7216  0.8246 -0.3026
11145TIP3    H254927   2.012   3.778  13.748  0.8567  0.0696  0.1152
11146TIP3   OH254928   4.819   0.009  10.912 -0.5674 -0.7313  0.3127
11146TIP3    H154929   4.734  -0.035  10.906 -1.0760  0.2770 -0.0850
11146TIP3    H254930   4.797   0.101  10.923  0.4817 -0.4665  0.2181
11147TIP3   OH254931   1.220   0.045  12.346 -0.0860  0.6686 -0.2545
11147TIP3    H154932   1.179   0.022  12.263  0.0609  1.4595 -0.5518
11147TIP3    H254933   1.268  -0.034  12.372  0.0082  0.4752 -1.0047
11148TIP3   OH254934   4.170   0.610   3.573 -0.2514  0.3370 -0.6820
11148TIP3    H154935   4.187   0.696   3.612  1.5711 -0.4792  0.4490
11148TIP3    H254936   4.078   0.593   3.592 -0.2295  1.3607  0.4804
11149TIP3   OH254937   5.789   3.053   6.164  0.2654 -0.3621 -0.0098
11149TIP3    H154938   5.762   3.115   6.097  2.0033 -0.7511 -1.1286
11149TIP3    H254939   5.732   2.977   6.151  0.0500 -0.1203 -0.5034
11150TIP3   OH254940   4.549   5.714  15.983  0.6855  0.3560  0.5407
11150TIP3    H154941   4.581   5.626  16.003  0.4905  0.8685  3.4402
11150TIP3    H254942   4.457   5.713  16.006  0.2654  0.9043 -0.9852
11151TIP3   OH254943   0.568   1.196   2.425  0.0123 -0.4839  0.8896
11151TIP3    H154944   0.655   1.157   2.434 -0.1823 -0.6851  2.0525
11151TIP3    H254945   0.585   1.283   2.391  0.4647 -1.4863 -1.6356
11152TIP3   OH254946   4.925   5.544   4.386 -0.0763 -0.0238 -0.3105
11152TIP3    H154947   4.997   5.503   4.434 -1.4349  0.1856  2.1250
11152TIP3    H254948   4.928   5.505   4.299  0.8132 -2.7142  0.8087
11153TIP3   OH254949   3.874   1.163   1.883 -0.4399  0.1424  0.0653
11153TIP3    H154950   3.961   1.199   1.867  0.2081 -0.8258  1.2349
11153TIP3    H254951   3.821   1.194   1.809  0.9987  0.3813 -0.9101
11154TIP3   OH254952   4.488   1.487   1.231  0.0944 -0.6435  0.7563
11154TIP3    H154953   4.397   1.464   1.211  0.5233 -1.9105  0.1315
11154TIP3    H254954   4.488   1.501   1.326 -1.1850  1.6421  0.4918
11155TIP3   OH254955   2.199   6.363  14.214  0.4719 -0.3564 -0.2264
11155TIP3    H154956   2.277   6.310  14.231 -0.5224 -1.1988  2.2492
11155TIP3    H254957   2.229   6.453  14.222  1.1836 -0.6668  0.8713
11156TIP3   OH254958   1.819   5.888   1.639 -0.0518  0.5996 -0.0211
11156TIP3    H154959   1.736   5.933   1.624 -0.9690 -0.7261  0.7416
11156TIP3    H254960   1.793   5.803   1.675  1.6764  0.5724  1.2903
11157TIP3   OH254961   2.360   1.214  13.121  0.4105  0.0456 -0.3197
11157TIP3    H154962   2.285   1.212  13.181  0.0797  1.5832 -0.6351
11157TIP3    H254963   2.343   1.289  13.064  2.6138  0.9870  0.1598
11158TIP3   OH254964   0.602   3.288   6.436  0.1482 -0.4414 -0.0391
11158TIP3    H154965   0.696   3.278   6.423  0.1862 -2.2374  1.1953
11158TIP3    H254966   0.562   3.238   6.365  0.2019 -1.6545  0.7482
11159TIP3   OH254967   2.214   3.759   0.854  0.0803 -0.0461  0.5595
11159TIP3    H154968   2.169   3.700   0.794 -2.0635  0.2180  1.7795
11159TIP3    H254969   2.295   3.714   0.876  0.7974 -0.2648 -2.2477
11160TIP3   OH254970   1.961   4.167   4.708 -0.3792 -0.0843 -0.1924
11160TIP3    H154971   1.981   4.106   4.636 -0.4608  3.0131 -3.1100
11160TIP3    H254972   2.020   4.241   4.692 -3.2636  2.5030  0.4135
11161TIP3   OH254973   2.723   4.516   0.329 -0.5300  0.3039  0.2698
11161TIP3    H154974   2.679   4.599   0.347 -1.0027  0.2816 -0.7041
11161TIP3    H254975   2.656   4.449   0.344 -1.0747  0.3109 -1.8762
11162TIP3   OH254976   0.073   2.425   2.575  0.0885  0.0308 -0.1452
11162TIP3    H154977   0.118   2.356   2.625  2.1881  1.0468 -0.5380
11162TIP3    H254978   0.080   2.503   2.630  0.2086  0.5724 -0.9221
11163TIP3   OH254979   5.273   4.985  14.705  0.2476 -0.1545  0.6472
11163TIP3    H154980   5.308   5.051  14.645  1.7309 -1.7620 -0.3749
11163TIP3    H254981   5.247   4.912  14.648  1.2763 -1.5564  1.8798
11164TIP3   OH254982   6.510   0.863  16.780  0.0372  0.1617  0.1133
11164TIP3    H154983   6.436   0.911  16.817  1.1792  1.7589  0.4497
11164TIP3    H254984   6.489   0.854  16.687  0.1024  2.0512 -0.1270
11165TIP3   OH254985   6.560   5.754   0.115  0.1024  0.0198  0.2179
11165TIP3    H154986   6.472   5.790   0.129  0.2341  0.7880 -0.8706
11165TIP3    H254987   6.561   5.727   0.024  0.0089 -2.8292  0.9645
11166TIP3   OH254988   1.545   1.880   1.366 -0.0035  0.4197 -0.0581
11166TIP3    H154989   1.593   1.926   1.435 -1.6394  2.6531 -0.2891
11166TIP3    H254990   1.555   1.788   1.387  1.0768  0.9649  2.1065
11167TIP3   OH254991   1.855   5.807  16.855  0.6904 -0.4746  0.3739
11167TIP3    H154992   1.950   5.810  16.843  0.6466 -0.7886 -0.0976
11167TIP3    H254993   1.823   5.755  16.780 -0.3297  3.4446 -2.2126
11168TIP3   OH254994   6.709   6.575  16.063  0.0284 -0.3394 -0.1217
11168TIP3    H154995   6.780   6.511  16.075  0.4059  0.3386  1.6638
11168TIP3    H254996   6.657   6.540  15.991  0.9482 -1.9916 -0.0396
11169TIP3   OH254997   0.017   4.466   0.570  0.4950  0.3902 -0.4854
11169TIP3    H154998   0.068   4.395   0.532 -0.2858 -0.5270  0.1134
11169TIP3    H254999   0.076   4.541   0.571  1.2909 -0.2135 -1.2644
11170TIP3   OH255000   2.284   2.980  15.622  0.8699 -0.5454  0.1320
11170TIP3    H155001   2.224   2.957  15.693  1.1027  0.2101  0.5863
11170TIP3    H255002   2.364   2.929  15.640  0.4481 -1.4153 -0.3759
11171TIP3   OH255003   4.711   4.986  13.634 -0.3139  0.1263  0.4013
11171TIP3    H155004   4.639   4.997  13.696 -0.5399  2.3284 -0.1809
11171TIP3    H255005   4.670   4.949  13.556 -0.1886 -1.7672  1.1818
11172TIP3   OH255006   1.045   5.843   4.364 -0.0236  0.4245  0.5506
11172TIP3    H155007   1.020   5.754   4.337  1.6939 -0.2652  1.1010
11172TIP3    H255008   0.995   5.858   4.445  0.4469 -0.4782  1.0297
11173TIP3   OH255009   1.842   2.213  16.135  0.3623  0.3201  0.2331
11173TIP3    H155010   1.893   2.134  16.118  0.7620  0.5801  0.1860
11173TIP3    H255011   1.863   2.271  16.062  1.6420  1.2264  1.2650
11174TIP3   OH255012   2.693   0.792   1.268 -0.6684  0.5575  0.3899
11174TIP3    H155013   2.709   0.796   1.174 -1.3503 -0.1632  0.2305
11174TIP3    H255014   2.775   0.823   1.307  1.5509 -3.5577 -0.3666
11175TIP3   OH255015   0.192   6.568   3.502  0.3387  0.7895  0.6125
11175TIP3    H155016   0.117   6.606   3.455 -1.1057 -1.2449  1.1497
11175TIP3    H255017   0.186   6.606   3.590  0.3939  1.2214  0.4306
11176TIP3   OH255018   3.093   6.309  16.157 -0.2674 -0.0568 -0.3754
11176TIP3    H155019   3.000   6.314  16.180 -0.3629  3.0264 -1.0342
11176TIP3    H255020   3.132   6.384  16.201  1.5820 -0.2620 -1.5794
11177TIP3   OH255021   4.771   5.069  16.035  0.7990 -0.7796  0.0579
11177TIP3    H155022   4.791   5.152  16.079  1.8047 -0.2606 -1.3092
11177TIP3    H255023   4.825   5.070  15.956 -0.0605 -2.2180 -0.5900
11178TIP3   OH255024   3.835   4.164  16.756 -0.1126 -0.2608  0.7440
11178TIP3    H155025   3.920   4.143  16.716 -1.0354  0.2331 -1.6887
11178TIP3    H255026   3.821   4.095  16.820  1.3298 -1.3741 -0.0781
11179TIP3   OH255027   2.230   2.328   3.439  0.3252  0.5043 -0.0536
11179TIP3    H155028   2.187   2.251   3.476  1.4570  0.2306  0.7497
11179TIP3    H255029   2.166   2.399   3.449  0.1876  0.2045  1.4896
11180TIP3   OH255030   2.259   5.320   2.726  0.0671  0.2132  0.4240
11180TIP3    H155031   2.228   5.254   2.788 -2.0056  1.5827  0.9712
11180TIP3    H255032   2.316   5.376   2.777 -0.5097  0.5187  0.7434
11181TIP3   OH255033   1.384   4.499  11.070 -0.7690  0.1029  0.0915
11181TIP3    H155034   1.431   4.423  11.037 -0.2142  0.3399  0.3308
11181TIP3    H255035   1.411   4.571  11.012  0.6850  0.6528  1.3884
11182TIP3   OH255036   0.650   3.353  13.052  0.2431  0.3679  0.1460
11182TIP3    H155037   0.710   3.383  13.120 -0.8172 -0.5113  1.5165
11182TIP3    H255038   0.630   3.263  13.075 -1.0424  0.4105 -0.6891
11183TIP3   OH255039   3.729   6.356  15.717  0.3451  0.1014  0.7153
11183TIP3    H155040   3.681   6.287  15.672 -0.7801  1.1340  0.2859
11183TIP3    H255041   3.818   6.323  15.724  0.5679 -0.1743 -2.1836
11184TIP3   OH255042   6.152   4.876  14.219  0.0512 -0.2358 -0.0583
11184TIP3    H155043   6.057   4.886  14.210  0.1807  0.1521 -1.0835
11184TIP3    H255044   6.187   4.961  14.193  0.6491 -0.1193  1.0680
11185TIP3   OH255045   5.711   2.087  14.990  0.0869  0.6820  0.4793
11185TIP3    H155046   5.682   2.009  15.036 -0.9990  1.7228  1.6341
11185TIP3    H255047   5.668   2.159  15.035  2.8570  2.1815  0.9502
11186TIP3   OH255048   4.745   3.928  12.026 -0.2941  0.9110  0.5040
11186TIP3    H155049   4.757   3.866  12.098 -3.3036  0.9324  1.1461
11186TIP3    H255050   4.762   4.014  12.066 -3.9391  1.1345  1.9382
11187TIP3   OH255051   1.382   6.319  16.434 -0.2759  0.2154 -0.5948
11187TIP3    H155052   1.300   6.332  16.481  1.0377  0.6120  1.7419
11187TIP3    H255053   1.415   6.407  16.417  1.3754  0.1479  1.8028
11188TIP3   OH255054   6.793   5.939   5.374  0.1284  0.5222  0.0236
11188TIP3    H155055   6.860   5.958   5.440 -0.2328  0.6357  0.3608
11188TIP3    H255056   6.795   5.844   5.365 -0.7180  0.3882  1.1538
11189TIP3   OH255057   5.196   5.663  11.245 -0.1263  0.2333  0.1025
11189TIP3    H155058   5.171   5.748  11.210 -1.3518  0.0562  0.5002
11189TIP3    H255059   5.115   5.612  11.245  0.6342 -1.0378 -0.3968
11190TIP3   OH255060   5.172   3.058  12.573  0.0533  0.4759  0.7149
11190TIP3    H155061   5.227   2.980  12.574  1.0308  1.1070  3.1977
11190TIP3    H255062   5.203   3.110  12.499  1.8185  0.1266  1.1845
11191TIP3   OH255063   3.979   0.831  11.321  0.2129 -0.2783  0.0804
11191TIP3    H155064   4.047   0.874  11.373  0.0987  0.5623 -0.4520
11191TIP3    H255065   4.009   0.839  11.231  0.0813 -1.1383 -0.0468
11192TIP3   OH255066   2.691   3.980  12.113  0.0046  0.7641 -0.1456
11192TIP3    H155067   2.686   4.048  12.046 -0.4906  0.5358 -0.3493
11192TIP3    H255068   2.726   4.024  12.190 -0.0570  1.1878 -0.3580
11193TIP3   OH255069   0.357   5.411  10.402 -0.6511 -0.4001  0.0835
11193TIP3    H155070   0.322   5.377  10.320  1.3754 -2.7306  0.0357
11193TIP3    H255071   0.297   5.378  10.469 -0.9105 -0.6844 -0.2845
11194TIP3   OH255072   4.117   4.327  13.756 -0.3603  0.1332  0.2341
11194TIP3    H155073   4.165   4.316  13.674 -1.9139  0.7552 -0.7919
11194TIP3    H255074   4.083   4.240  13.776  0.1715 -0.0580  0.3426
11195TIP3   OH255075   3.467   1.938  17.083 -0.3324 -0.9291 -0.4474
11195TIP3    H155076   3.495   1.919  17.172  0.3617 -0.6786 -0.6046
11195TIP3    H255077   3.381   1.897  17.075 -1.6428  1.2691  1.1918
11196TIP3   OH255078   0.780   2.605   5.952  0.6242  0.2694  0.2748
11196TIP3    H155079   0.812   2.597   5.862  5.2172 -0.1778  1.6974
11196TIP3    H255080   0.721   2.531   5.963 -0.2642  0.4784 -2.3582
11197TIP3   OH255081   3.409   0.467   5.645 -0.7154  0.2494 -0.6773
11197TIP3    H155082   3.373   0.547   5.684 -2.5947 -1.3833  1.1814
11197TIP3    H255083   3.463   0.428   5.714 -1.2069 -0.9161 -0.9245
11198TIP3   OH255084   5.611   2.536   2.125 -0.1103 -0.3865  1.0049
11198TIP3    H155085   5.580   2.619   2.160  1.0476 -0.4626  2.3530
11198TIP3    H255086   5.696   2.522   2.169  1.4041 -0.6027 -1.7670
11199TIP3   OH255087   2.610   5.490  13.243 -0.2085 -0.4147 -0.4201
11199TIP3    H155088   2.658   5.420  13.198 -0.5544 -2.2755  1.9153
11199TIP3    H255089   2.563   5.536  13.173  0.2878 -2.3104 -2.0789
11200TIP3   OH255090   4.410   0.289   2.962 -0.9787 -0.5762  0.4085
11200TIP3    H155091   4.368   0.376   2.958  1.5738  0.7217 -0.8002
11200TIP3    H255092   4.470   0.289   2.887 -0.7878 -3.3805  0.4774
11201TIP3   OH255093   2.387   5.854  13.209 -0.0609  0.0310 -0.5775
11201TIP3    H155094   2.412   5.944  13.189 -0.4963  0.4905  0.8469
11201TIP3    H255095   2.386   5.850  13.304 -1.7340 -0.9946 -0.5996
11202TIP3   OH255096   2.328   3.492  11.999 -0.6495 -0.1318  0.2884
11202TIP3    H155097   2.259   3.515  11.936  0.5396  0.8745 -0.7045
11202TIP3    H255098   2.409   3.495  11.948  0.1569 -1.1540  1.4557
11203TIP3   OH255099   1.617   4.154   4.127 -0.4460 -0.3344  0.0178
11203TIP3    H155100   1.595   4.102   4.204 -0.1438 -1.5160 -0.6610
11203TIP3    H255101   1.545   4.138   4.066 -0.6575  0.5502  0.0219
11204TIP3   OH255102   1.265   2.073   5.664 -0.4374  0.0769  0.3579
11204TIP3    H155103   1.231   2.041   5.581  0.7334 -0.5489  0.0907
11204TIP3    H255104   1.268   1.996   5.721 -0.7215  0.3908  0.8019
11205TIP3   OH255105   2.332   1.821  15.865  0.5459 -0.4989  0.5508
11205TIP3    H155106   2.239   1.810  15.885  0.5389 -2.9989 -0.4843
11205TIP3    H255107   2.333   1.852  15.774  0.7131 -0.1078  0.6878
11206TIP3   OH255108   6.262   2.171   2.938  0.1996 -0.3625 -0.1106
11206TIP3    H155109   6.214   2.172   3.021 -0.1645  0.3701 -0.3238
11206TIP3    H255110   6.352   2.189   2.963 -0.0443  0.7286  0.0566
11207TIP3   OH255111   0.771   3.095   0.097 -0.2893  0.0220 -0.4111
11207TIP3    H155112   0.809   3.053   0.020 -0.2375 -1.1398  0.2214
11207TIP3    H255113   0.757   3.023   0.159 -1.9725  0.6493  0.0073
11208TIP3   OH255114   2.994   1.684  12.335  0.1532 -0.0209  0.1284
11208TIP3    H155115   3.044   1.739  12.395  1.0839 -0.8636  0.1461
11208TIP3    H255116   2.943   1.746  12.283  0.8593  0.8375  0.4325
11209TIP3   OH255117   4.221   6.156   4.974  0.2945 -0.1918 -0.0589
11209TIP3    H155118   4.166   6.083   4.946 -0.9283  0.9741 -0.7524
11209TIP3    H255119   4.290   6.114   5.027 -1.1835 -1.6941  0.7794
11210TIP3   OH255120   1.021   1.600  17.292 -0.1120  0.6286  0.1521
11210TIP3    H155121   1.089   1.562  17.348 -0.2714  0.4827  0.2496
11210TIP3    H255122   1.037   1.564  17.206 -0.0916  0.5615  0.1847
11211TIP3   OH255123   3.768   3.296  13.173  0.3064 -0.3466 -0.1338
11211TIP3    H155124   3.812   3.224  13.217  1.4979  0.5932  0.2680
11211TIP3    H255125   3.676   3.287  13.197  0.4908 -1.5274  0.1638
11212TIP3   OH255126   5.225   3.978  13.524  0.7573  0.3760 -0.3954
11212TIP3    H155127   5.266   3.893  13.540 -1.0910 -0.2221  1.4107
11212TIP3    H255128   5.256   4.002  13.436  1.2112 -2.2006 -1.0227
11213TIP3   OH255129   0.289   2.802   5.102  0.2846  0.0565  0.5464
11213TIP3    H155130   0.261   2.883   5.145  1.5451  0.5580  0.4715
11213TIP3    H255131   0.371   2.826   5.057 -1.4552 -0.1170 -3.0734
11214TIP3   OH255132   3.931   5.632  16.239  0.0584  0.1453 -0.0091
11214TIP3    H155133   3.894   5.718  16.261 -0.2005  0.1252 -0.3557
11214TIP3    H255134   3.855   5.578  16.218  0.2811  0.0953 -0.7061
11215TIP3   OH255135   1.945   2.414   1.859 -0.2293  0.0367  0.4592
11215TIP3    H155136   1.926   2.493   1.809 -1.2557 -0.4164  0.1045
11215TIP3    H255137   1.861   2.390   1.899  0.2572 -0.4095  1.2433
11216TIP3   OH255138   1.991   0.624  14.820 -0.4278  0.5359 -0.1066
11216TIP3    H155139   2.084   0.615  14.841  0.1020 -1.0349 -2.6128
11216TIP3    H255140   1.975   0.719  14.825  1.2421  0.8279  0.5704
11217TIP3   OH255141   1.690   2.702   0.094  0.1141 -0.0146  0.2111
11217TIP3    H155142   1.702   2.754   0.014 -0.1627  0.1696  0.2872
11217TIP3    H255143   1.776   2.702   0.135  0.0551  0.6266  0.3537
11218TIP3   OH255144   6.051   2.627   3.115  0.2725  0.0640  0.8412
11218TIP3    H155145   6.128   2.574   3.097  0.8090  0.9240  0.5579
11218TIP3    H255146   5.978   2.565   3.111  0.5568 -0.2173 -2.1672
11219TIP3   OH255147   5.585   1.352   4.075 -0.1502  0.1719 -0.1409
11219TIP3    H155148   5.537   1.357   3.992 -2.2076  0.8440  1.0130
11219TIP3    H255149   5.605   1.444   4.096 -1.5194  0.2207  1.0919
11220TIP3   OH255150   3.641   1.508  14.568  0.0472  0.1520 -0.1645
11220TIP3    H155151   3.717   1.566  14.563 -0.5200  0.8891 -0.4529
11220TIP3    H255152   3.646   1.455  14.489  0.2196  0.2570 -0.2247
11221TIP3   OH255153   5.522   5.227   5.200  0.8640  0.5362  0.1832
11221TIP3    H155154   5.514   5.224   5.296  0.2008 -1.3176  0.1102
11221TIP3    H255155   5.433   5.241   5.169  0.3984 -2.6274 -0.2071
11222TIP3   OH255156   3.771   5.481  12.702 -0.3654  0.0098 -0.7962
11222TIP3    H155157   3.727   5.399  12.680  0.2423 -0.0626 -1.7892
11222TIP3    H255158   3.854   5.455  12.741 -0.3712  0.1504 -0.6877
11223TIP3   OH255159   2.038   4.935   2.672 -0.2070  0.4085  0.1086
11223TIP3    H155160   2.098   4.884   2.618  0.1684 -1.9501  2.5194
11223TIP3    H255161   2.094   4.980   2.735 -0.8008 -0.5561  1.3810
11224TIP3   OH255162   4.603   4.889   3.905  0.0314  0.6557  0.4098
11224TIP3    H155163   4.690   4.918   3.878 -1.2582  3.3982 -1.2352
11224TIP3    H255164   4.600   4.906   3.999  1.5187 -0.3416  0.6687
11225TIP3   OH255165   1.566   5.558  14.016 -0.0409  0.4298  0.3782
11225TIP3    H155166   1.479   5.568  13.979 -0.2375  0.4040  0.8323
11225TIP3    H255167   1.603   5.647  14.012  1.4056 -0.1363 -3.3941
11226TIP3   OH255168   4.807   0.599   3.525 -0.2598  0.2974 -0.1098
11226TIP3    H155169   4.734   0.654   3.553 -0.8314  0.1850 -1.3266
11226TIP3    H255170   4.786   0.512   3.558  1.1135  0.9085  2.6611
11227TIP3   OH255171   4.107   6.050   4.669 -0.5863 -0.4821  0.2422
11227TIP3    H155172   4.154   5.967   4.681  0.1613 -0.3814 -1.5747
11227TIP3    H255173   4.016   6.029   4.688  0.0021 -0.9511  2.8046
11228TIP3   OH255174   2.802   1.246  16.385 -0.2775 -0.6377  0.5293
11228TIP3    H155175   2.827   1.156  16.403  2.1167 -0.2882 -0.6914
11228TIP3    H255176   2.740   1.240  16.312  0.9907 -1.2496 -0.5218
11229TIP3   OH255177   1.702   3.505  13.187 -0.4291  0.2548  0.0422
11229TIP3    H155178   1.767   3.539  13.126 -0.6358 -0.1734 -0.4181
11229TIP3    H255179   1.682   3.417  13.155  0.0208 -0.2683  1.1618
11230TIP3   OH255180   0.603   4.608  16.567 -0.1494 -0.0987 -0.5038
11230TIP3    H155181   0.556   4.560  16.499  0.9856 -3.5450  0.9168
11230TIP3    H255182   0.535   4.655  16.615 -1.2368  0.4894 -2.5035
11231TIP3   OH255183   5.153   5.670   2.335 -0.5591 -0.0410  0.6471
11231TIP3    H155184   5.212   5.594   2.333 -0.7433 -0.1855  0.6628
11231TIP3    H255185   5.207   5.743   2.307 -0.1223 -0.0010  1.5871
11232TIP3   OH255186   0.733   3.720   3.534  0.5821 -0.4825 -0.1066
11232TIP3    H155187   0.795   3.717   3.461 -0.2310  2.1107 -1.0222
11232TIP3    H255188   0.665   3.657   3.510  0.1096  0.6274 -1.8605
11233TIP3   OH255189   4.615   4.323   4.858  0.3607 -0.3901 -0.4948
11233TIP3    H155190   4.532   4.275   4.870 -0.0489  0.3248 -0.4352
11233TIP3    H255191   4.645   4.340   4.947 -0.3135  0.8510 -0.4850
11234TIP3   OH255192   2.812   1.686   5.185 -0.2274  0.6485 -0.9131
11234TIP3    H155193   2.854   1.765   5.219 -0.4417  0.1777  0.5211
11234TIP3    H255194   2.719   1.707   5.185 -0.2786  0.4157 -0.6017
11235TIP3   OH255195   4.514   1.150  16.635  0.1653 -0.3253 -0.1174
11235TIP3    H155196   4.568   1.098  16.695 -1.3026 -0.5241  1.0872
11235TIP3    H255197   4.554   1.237  16.637  0.4913 -0.4814  0.7051
11236TIP3   OH255198   5.572   5.973   3.872 -0.1467  0.1069  0.2272
11236TIP3    H155199   5.552   5.924   3.793 -2.2718 -0.4634  1.0217
11236TIP3    H255200   5.547   5.914   3.944  0.5859  1.0463  1.2990
11237TIP3   OH255201   5.587   1.056  12.893 -0.0709  0.0302 -0.0705
11237TIP3    H155202   5.614   1.024  12.979 -1.0278 -0.4664  0.0561
11237TIP3    H255203   5.493   1.041  12.890 -0.1899  0.8640 -0.8620
11238TIP3   OH255204   2.644   1.102  11.798  0.0186  0.1045 -0.3851
11238TIP3    H155205   2.634   1.114  11.704 -0.5582  0.3720 -0.2910
11238TIP3    H255206   2.735   1.127  11.816  0.7061 -1.6509 -1.1338
11239TIP3   OH255207   6.607   3.822  13.268 -0.0873 -0.1097  0.6455
11239TIP3    H155208   6.516   3.792  13.264 -0.4993  1.1969 -1.3283
11239TIP3    H255209   6.601   3.912  13.298  0.6322 -0.1787  1.0212
11240TIP3   OH255210   6.395   2.578   0.332 -0.0880 -0.4830 -0.7423
11240TIP3    H155211   6.471   2.524   0.350  0.1157  0.2571  0.9105
11240TIP3    H255212   6.428   2.668   0.337 -1.0494 -0.1512  0.0679
11241TIP3   OH255213   0.433   0.701  17.026 -0.1321 -0.0252 -0.0638
11241TIP3    H155214   0.493   0.654  17.083 -0.3901 -0.0737  0.1742
11241TIP3    H255215   0.356   0.717  17.081 -0.7285 -0.8202 -0.6501
11242TIP3   OH255216   4.283   1.599  13.304 -0.2381 -0.2897  0.3986
11242TIP3    H155217   4.270   1.603  13.209 -0.6265  1.3804  0.5004
11242TIP3    H255218   4.358   1.540  13.315  1.3914  1.3695 -1.1066
11243TIP3   OH255219   1.131   0.697   5.745  0.2005 -0.2418 -0.5583
11243TIP3    H155220   1.216   0.741   5.736  0.4238 -0.3468  0.7712
11243TIP3    H255221   1.077   0.758   5.794 -0.0374 -0.7405 -0.1829
11244TIP3   OH255222   6.389   3.880  11.067 -0.1670 -0.8471  0.0064
11244TIP3    H155223   6.380   3.975  11.070 -1.9486 -0.9745 -0.2888
11244TIP3    H255224   6.453   3.864  10.998 -1.0860  0.0979 -1.1067
11245TIP3   OH255225   1.154   5.956  14.741  0.1989  0.2243 -0.0197
11245TIP3    H155226   1.088   6.006  14.791 -1.4855 -0.7690 -1.1596
11245TIP3    H255227   1.161   6.003  14.658 -0.1165 -0.4416 -0.4309
11246TIP3   OH255228   0.893   5.299   2.038  0.3968  0.5652  0.0787
11246TIP3    H155229   0.801   5.275   2.049  0.5258  0.1911  0.3623
11246TIP3    H255230   0.914   5.271   1.949 -1.0496  4.9174 -1.8903
11247TIP3   OH255231   2.656   1.083   6.112  0.3970  0.1342 -0.3642
11247TIP3    H155232   2.660   1.063   6.206 -0.2362  0.1098 -0.3400
11247TIP3    H255233   2.627   1.173   6.108  0.4619  0.1479 -0.5417
11248TIP3   OH255234   1.857   3.108   7.044  0.4341 -0.2026  0.2525
11248TIP3    H155235   1.783   3.156   7.008  0.6931  0.0298  0.0244
11248TIP3    H255236   1.891   3.057   6.970 -0.3659 -1.4145  0.6946
11249TIP3   OH255237   2.059   4.592  14.057 -0.2441  0.1927  0.2799
11249TIP3    H155238   2.098   4.528  14.117  0.3521  0.5035  0.2340
11249TIP3    H255239   2.027   4.662  14.115  1.3245  1.0304  0.2076
11250TIP3   OH255240   5.705   5.957  14.994 -0.3230 -0.3961  0.7391
11250TIP3    H155241   5.625   6.008  15.008 -1.7814 -2.4548  0.2314
11250TIP3    H255242   5.722   5.915  15.078  0.9073  0.8812  1.1693
11251TIP3   OH255243   4.658   6.767  15.376  0.1112 -0.1905 -0.0596
11251TIP3    H155244   4.658   6.843  15.435 -1.3293 -0.6486  0.5881
11251TIP3    H255245   4.613   6.798  15.297  1.3022  0.1846 -0.6071
11252TIP3   OH255246   2.520   0.969  15.970  0.1944  0.2466  0.0733
11252TIP3    H155247   2.430   0.965  15.938 -0.4007  1.7443  1.4168
11252TIP3    H255248   2.572   0.989  15.892 -1.1576  3.5149 -0.1931
11253TIP3   OH255249   1.974   5.594   2.009 -0.0726  0.0097 -0.1451
11253TIP3    H155250   2.016   5.508   2.002  0.4070  0.2343 -0.1149
11253TIP3    H255251   1.882   5.578   1.989 -0.0372 -0.5566  0.1257
11254TIP3   OH255252   0.645   1.877   3.658  0.1399 -0.2425  0.2950
11254TIP3    H155253   0.563   1.888   3.705 -0.4430 -2.3058 -0.1268
11254TIP3    H255254   0.641   1.788   3.623  1.6302  0.3490 -1.5535
11255TIP3   OH255255   6.597   4.819   5.125  0.0840  0.0649  0.1334
11255TIP3    H155256   6.636   4.860   5.048  0.1054 -1.4537 -0.6843
11255TIP3    H255257   6.539   4.887   5.160 -1.2319  0.2493 -2.1968
11256TIP3   OH255258   5.016   6.776  15.116  0.3341 -0.0499 -0.2557
11256TIP3    H155259   5.042   6.815  15.033 -3.5698  2.5943 -0.5055
11256TIP3    H255260   4.943   6.718  15.094  0.3819 -0.6832  1.1375
11257TIP3   OH255261   2.488   4.687   6.408  0.1625 -0.2825 -0.5738
11257TIP3    H155262   2.409   4.726   6.446 -0.0893  0.1143 -1.4614
11257TIP3    H255263   2.461   4.599   6.382  0.0765 -0.2384 -0.6381
11258TIP3   OH255264   5.689   0.653   0.137  0.7346 -0.1690  0.1743
11258TIP3    H155265   5.609   0.700   0.161 -0.3299 -1.4127 -0.8388
11258TIP3    H255266   5.747   0.722   0.103 -0.0005  0.6984  0.6136
11259TIP3   OH255267   3.366   3.805  16.171 -0.0100  0.0197  0.6395
11259TIP3    H155268   3.273   3.789  16.157 -0.3028  2.1059 -0.2024
11259TIP3    H255269   3.371   3.898  16.195  1.9523  0.2983 -0.6150
11260TIP3   OH255270   2.981   2.644  15.631  0.5605 -0.2842  0.7631
11260TIP3    H155271   2.923   2.569  15.639 -0.1448  0.1336 -0.1892
11260TIP3    H255272   3.039   2.638  15.706 -0.2174 -1.1472  1.3142
11261TIP3   OH255273   0.413   4.907   2.015  0.7280  0.1641 -0.3667
11261TIP3    H155274   0.459   4.991   2.014  0.2976  0.4028 -0.5860
11261TIP3    H255275   0.431   4.869   1.929 -2.0770  1.7259 -1.8495
11262TIP3   OH255276   1.875   6.502  12.103  0.2206 -0.2277  0.3864
11262TIP3    H155277   1.969   6.501  12.120 -0.1109  0.0290  2.5899
11262TIP3    H255278   1.864   6.449  12.025  1.8863 -3.1897  1.9697
11263TIP3   OH255279   6.746   4.036  16.326  0.1166  0.3728 -0.0885
11263TIP3    H155280   6.664   4.014  16.371  0.3343  0.3553  0.3033
11263TIP3    H255281   6.771   4.121  16.362  0.3638  0.2950 -0.0722
11264TIP3   OH255282   2.823   5.568   5.366 -0.0857  0.2635 -0.4424
11264TIP3    H155283   2.805   5.475   5.384  0.3531  0.4757  1.2185
11264TIP3    H255284   2.794   5.580   5.276 -0.7062 -1.3497 -0.5007
11265TIP3   OH255285   4.584   3.025   5.441 -0.1976  0.0406 -0.0254
11265TIP3    H155286   4.528   3.062   5.509 -0.0410  0.1809  0.0256
11265TIP3    H255287   4.579   3.087   5.368 -0.6468 -0.2856 -0.2762
11266TIP3   OH255288   6.370   4.931  17.238  0.0562  0.1092 -0.0649
11266TIP3    H155289   6.427   4.991  17.286 -0.1833  0.0540  0.2943
11266TIP3    H255290   6.382   4.955  17.146  1.7075 -0.8010 -0.1241
11267TIP3   OH255291   3.862   2.708   0.522 -0.2917 -0.7485  0.4615
11267TIP3    H155292   3.936   2.674   0.573 -1.1083 -0.9061  1.5921
11267TIP3    H255293   3.901   2.736   0.440  1.2453  0.2999  1.4821
11268TIP3   OH255294   1.261   0.131  11.111 -0.8866  0.2732  0.0618
11268TIP3    H155295   1.293   0.109  11.023  1.1499 -1.0197  1.0284
11268TIP3    H255296   1.185   0.187  11.097 -1.3419 -0.8775 -2.5269
11269TIP3   OH255297   6.216   4.357   4.492 -0.4713 -0.0000  0.0240
11269TIP3    H155298   6.169   4.273   4.488 -0.3388 -0.0959  0.3592
11269TIP3    H255299   6.308   4.333   4.484 -0.2057 -0.1811  2.5875
11270TIP3   OH255300   4.569   1.393  15.764 -0.9232 -0.3450 -0.0637
11270TIP3    H155301   4.649   1.412  15.814 -1.0345 -1.1000  0.4249
11270TIP3    H255302   4.573   1.298  15.749 -0.3634 -0.0217 -2.4109
11271TIP3   OH255303   4.178   1.052  14.843  0.5813  0.0874  0.3146
11271TIP3    H155304   4.151   0.977  14.896  1.4062  0.5882  1.4883
11271TIP3    H255305   4.114   1.056  14.773 -0.5661 -0.5859  1.2946
11272TIP3   OH255306   5.486   1.527  11.197 -0.0413  0.1896  0.3392
11272TIP3    H155307   5.462   1.610  11.155 -1.3086 -0.3841 -0.1172
11272TIP3    H255308   5.406   1.501  11.243 -0.2463 -1.6601 -0.9783
11273TIP3   OH255309   4.972   2.701   4.648  0.0319  0.4099 -0.0893
11273TIP3    H155310   4.993   2.754   4.725 -0.1197  0.5712 -0.1602
11273TIP3    H255311   5.044   2.638   4.643 -1.7367 -2.0417  2.3524
11274TIP3   OH255312   6.768   0.757   6.480 -0.2892  0.1785  0.3171
11274TIP3    H155313   6.737   0.674   6.516 -1.7688  1.1723  1.4454
11274TIP3    H255314   6.863   0.748   6.479 -0.3958 -1.3407  0.9054
11275TIP3   OH255315   4.130   1.798   1.713  0.1015  0.3064 -0.7712
11275TIP3    H155316   4.204   1.762   1.762  0.0830  0.2038 -0.8176
11275TIP3    H255317   4.083   1.852   1.777 -0.7720 -1.0148 -0.2531
11276TIP3   OH255318   3.502   1.438  10.765  0.3034 -0.0539  0.3476
11276TIP3    H155319   3.542   1.440  10.678 -0.4492 -1.7482 -0.0707
11276TIP3    H255320   3.461   1.524  10.774  1.5684  0.6531 -0.3895
11277TIP3   OH255321   2.261   0.324  14.890 -0.5719 -0.3457  0.7444
11277TIP3    H155322   2.284   0.414  14.867  0.3009 -0.2222  1.9778
11277TIP3    H255323   2.345   0.282  14.910 -1.0740 -1.0412  1.4822
11278TIP3   OH255324   1.914   3.696   1.033 -0.8106 -0.0378  0.1014
11278TIP3    H155325   1.927   3.613   0.988 -1.1795  1.0872 -2.2366
11278TIP3    H255326   1.997   3.713   1.077 -0.3743 -1.1560 -0.2696
11279TIP3   OH255327   6.564   1.147   1.743 -0.1601 -0.3776 -0.2415
11279TIP3    H155328   6.562   1.206   1.668  0.0093  0.9736  0.7889
11279TIP3    H255329   6.633   1.084   1.722  1.3797  1.2592 -0.3024
11280TIP3   OH255330   0.064   0.788   0.986  0.0297 -0.2411  0.0687
11280TIP3    H155331   0.042   0.722   1.052  2.2437 -1.2815 -0.1277
11280TIP3    H255332   0.091   0.864   1.036 -0.4350 -0.2497  0.3332
11281TIP3   OH255333   2.554   0.070   5.224 -0.1269  0.1598  0.0594
11281TIP3    H155334   2.632   0.110   5.185 -0.6353  0.1068 -1.0534
11281TIP3    H255335   2.493   0.062   5.151 -0.6079 -1.2295  0.5867
11282TIP3   OH255336   6.732   0.405   4.806  0.2501  0.4385 -0.3526
11282TIP3    H155337   6.646   0.435   4.778  0.3716 -0.1693 -1.4219
11282TIP3    H255338   6.713   0.332   4.866 -0.0908 -3.0234 -4.2284
11283TIP3   OH255339   4.033   4.853  14.299 -0.2105  0.1020 -0.0030
11283TIP3    H155340   3.983   4.771  14.305  3.0644 -2.0618  0.0625
11283TIP3    H255341   4.014   4.886  14.211 -3.5951  0.8072  0.8556
11284TIP3   OH255342   0.783   0.458   0.453 -0.0531 -0.0243  0.4167
11284TIP3    H155343   0.826   0.389   0.504 -0.6818 -1.7069 -1.2078
11284TIP3    H255344   0.761   0.416   0.370 -0.4627  2.1664 -0.6542
11285TIP3   OH255345   1.864   6.386  15.618 -0.6081 -0.0321  0.4018
11285TIP3    H155346   1.954   6.387  15.584  0.1326 -1.5203  2.1163
11285TIP3    H255347   1.826   6.307  15.581 -1.6866  1.2419 -1.3219
11286TIP3   OH255348   1.408   2.086   6.484 -0.3884 -0.3559 -0.5857
11286TIP3    H155349   1.469   2.159   6.478 -0.9582  0.1010 -0.9506
11286TIP3    H255350   1.462   2.010   6.506  0.6579 -0.4362 -3.1121
11287TIP3   OH255351   6.472   3.331   5.684 -0.4879 -0.1125 -0.2318
11287TIP3    H155352   6.467   3.248   5.731 -0.2925  0.0388  0.0591
11287TIP3    H255353   6.384   3.368   5.692  0.1115  1.0162  2.0708
11288TIP3   OH255354   1.352   0.587   4.132  0.2708 -0.0327  0.7727
11288TIP3    H155355   1.306   0.655   4.181 -1.7426 -0.5338 -0.3140
11288TIP3    H255356   1.360   0.515   4.194 -1.6091 -0.3955  0.6645
11289TIP3   OH255357   5.350   0.438   3.027  0.2173 -0.0309  0.8693
11289TIP3    H155358   5.324   0.364   2.973 -0.1474  0.5885  0.1818
11289TIP3    H255359   5.283   0.443   3.095 -1.6845  1.6531 -0.9845
11290TIP3   OH255360   1.702   5.156  16.539 -0.6062  0.1259 -0.0295
11290TIP3    H155361   1.619   5.176  16.583 -0.4547  0.8336 -0.0573
11290TIP3    H255362   1.696   5.063  16.519 -2.1746  0.5111 -1.6371
11291TIP3   OH255363   4.649   3.497   4.050 -0.0979  0.3854  0.0113
11291TIP3    H155364   4.642   3.524   4.141 -0.1787  1.3869 -0.2778
11291TIP3    H255365   4.675   3.405   4.054  1.0846  0.7394  1.0338
11292TIP3   OH255366   2.682   1.027   2.107  0.3219 -0.0925  0.3354
11292TIP3    H155367   2.602   1.077   2.097 -0.0514 -0.8965 -1.0200
11292TIP3    H255368   2.737   1.054   2.033  0.6958 -0.5995  0.4167
11293TIP3   OH255369   0.527   6.614  15.258 -0.3751 -0.6381 -0.2982
11293TIP3    H155370   0.450   6.558  15.242 -0.2949 -1.1905  1.0734
11293TIP3    H255371   0.516   6.644  15.348  0.4251  0.2523 -0.4853
11294TIP3   OH255372   1.371   1.671   5.515  0.2810 -0.2825  0.2980
11294TIP3    H155373   1.461   1.639   5.523  0.9611  1.7664  1.4741
11294TIP3    H255374   1.331   1.651   5.600 -0.1841 -0.5989  0.0100
11295TIP3   OH255375   3.973   2.141   0.660  0.0220 -0.2438 -0.1101
11295TIP3    H155376   3.954   2.203   0.590 -0.2486 -1.4001 -1.1069
11295TIP3    H255377   3.918   2.168   0.732 -1.2055 -0.1961 -1.0393
11296TIP3   OH255378   1.202   5.016   5.876  0.4951 -0.2928 -0.0271
11296TIP3    H155379   1.189   5.024   5.782  1.1558  0.0282 -0.0970
11296TIP3    H255380   1.178   4.926   5.897 -0.0176 -0.2538 -0.4383
11297TIP3   OH255381   5.198   1.760   1.791 -0.0687  0.1779  0.2530
11297TIP3    H155382   5.196   1.687   1.729  3.2574 -0.7690  1.0583
11297TIP3    H255383   5.125   1.744   1.850 -1.1058 -0.9160 -1.2662
11298TIP3   OH255384   0.104   2.608   0.770 -0.4185 -0.4258  0.2824
11298TIP3    H155385   0.130   2.697   0.793 -0.4677 -0.2519 -0.3220
11298TIP3    H255386   0.079   2.613   0.678  1.9319 -1.5645 -0.4915
11299TIP3   OH255387   1.096   6.162  13.015 -0.0373  0.8008 -0.1922
11299TIP3    H155388   1.172   6.217  12.997  0.4616  0.0697 -0.3970
11299TIP3    H255389   1.087   6.107  12.937 -0.5322  0.6023 -0.0044
11300TIP3   OH255390   3.997   1.335  14.013  0.1160 -0.8631  0.0350
11300TIP3    H155391   4.075   1.333  13.958  0.2055  0.3940  0.0947
11300TIP3    H255392   4.003   1.255  14.066  0.8718 -1.2490 -0.6103
11301TIP3   OH255393   3.214   3.797  16.657 -0.1471 -0.5556 -0.0017
11301TIP3    H155394   3.295   3.754  16.681  0.2860 -0.2356 -0.8315
11301TIP3    H255395   3.236   3.846  16.577 -0.3792  1.8524  1.3135
11302TIP3   OH255396   1.749   4.132   5.147  0.4217 -0.8097 -0.3781
11302TIP3    H155397   1.667   4.091   5.117 -0.0661  0.5672 -0.9858
11302TIP3    H255398   1.804   4.136   5.069  0.2100  0.2793 -0.4798
11303TIP3   OH255399   3.843   0.189  16.598  0.5812 -1.2529  0.3322
11303TIP3    H155400   3.937   0.181  16.579 -0.0224 -1.0183 -3.5947
11303TIP3    H255401   3.800   0.133  16.534 -2.0449  0.5591  0.3192
11304TIP3   OH255402   5.779   4.345   3.313 -0.3948 -0.2080 -0.1961
11304TIP3    H155403   5.721   4.409   3.272  0.2838 -0.0425 -0.9341
11304TIP3    H255404   5.749   4.261   3.280  0.4294 -0.0410 -1.4312
11305TIP3   OH255405   1.409   4.397  11.331 -0.5816 -0.0849  0.0509
11305TIP3    H155406   1.479   4.450  11.368 -2.8596  1.3955  2.6698
11305TIP3    H255407   1.384   4.443  11.251  0.1447  0.5001  0.1449
11306TIP3   OH255408   2.896   6.366   5.532 -0.5223  0.0614  0.4993
11306TIP3    H155409   2.961   6.297   5.515  0.2709  1.0111 -0.5015
11306TIP3    H255410   2.875   6.400   5.445 -0.6304  1.3148  0.9967
11307TIP3   OH255411   6.311   4.731  15.933  0.4071 -0.0427  0.0754
11307TIP3    H155412   6.254   4.676  15.987  1.2677 -0.1130  0.9219
11307TIP3    H255413   6.334   4.805  15.988  2.8270 -1.0394  0.5420
11308TIP3   OH255414   6.101   1.097   3.971  0.0385 -0.2480  0.6688
11308TIP3    H155415   6.124   1.110   3.879 -1.4640 -1.4631  0.0790
11308TIP3    H255416   6.094   1.002   3.981  0.9343 -0.1756  2.2473
11309TIP3   OH255417   5.798   3.886  11.597  0.1776  0.2198 -0.1944
11309TIP3    H155418   5.803   3.792  11.611  0.4079  0.5133  2.0707
11309TIP3    H255419   5.706   3.908  11.615  0.4509  0.5999  0.8301
11310TIP3   OH255420   0.843   5.566  11.962 -0.4705  0.3001  0.1429
11310TIP3    H155421   0.879   5.587  11.876  0.6739 -0.7931  0.3086
11310TIP3    H255422   0.851   5.470  11.968  0.3921  0.4369  1.8309
11311TIP3   OH255423   5.435   2.163  15.694 -0.2625  0.6385  0.3037
11311TIP3    H155424   5.380   2.122  15.628  1.3578 -0.0337 -0.6742
11311TIP3    H255425   5.524   2.148  15.664  0.5066  0.8638  2.3314
11312TIP3   OH255426   4.682   3.841   2.501  0.5801  0.2023  0.0358
11312TIP3    H155427   4.718   3.917   2.547  0.8702 -0.2632  0.5964
11312TIP3    H255428   4.588   3.843   2.522  0.2926  1.2849 -1.2396
11313TIP3   OH255429   5.844   6.637  14.667  0.3661  0.2496  0.7298
11313TIP3    H155430   5.818   6.729  14.674  0.0695  0.1276  1.2681
11313TIP3    H255431   5.906   6.636  14.594  1.5483  1.1444  1.6744
11314TIP3   OH255432   0.573   2.236  12.348  0.6249  0.0602 -0.0384
11314TIP3    H155433   0.535   2.244  12.261 -0.3772  1.3161  0.4699
11314TIP3    H255434   0.498   2.219  12.406  1.3868 -1.8262  0.4816
11315TIP3   OH255435   1.737   4.017  14.050 -0.0174 -0.1845 -0.0029
11315TIP3    H155436   1.644   3.997  14.061 -0.4370  2.0839  1.0852
11315TIP3    H255437   1.741   4.112  14.046  2.1315 -0.2784 -1.6951
11316TIP3   OH255438   0.098   1.027   3.950 -0.3266 -0.8135 -0.2752
11316TIP3    H155439   0.020   1.007   3.899 -1.2538  2.8878 -0.5531
11316TIP3    H255440   0.071   1.016   4.041 -1.8775  2.1771 -0.2759
11317TIP3   OH255441   0.699   5.058   5.133 -0.7758  0.7207  0.1114
11317TIP3    H155442   0.677   5.148   5.158 -0.8950  0.6066  0.4186
11317TIP3    H255443   0.791   5.048   5.161 -0.4032  1.1045 -0.9198
11318TIP3   OH255444   5.125   0.513   2.314 -0.8019  0.6561 -0.0437
11318TIP3    H155445   5.149   0.598   2.278 -0.9618  0.8939  0.3960
11318TIP3    H255446   5.201   0.458   2.298 -0.7778  0.8232 -0.5185
11319TIP3   OH255447   4.912   2.095  13.680  0.1074 -0.0985  0.0911
11319TIP3    H155448   4.880   2.103  13.590  0.4410  2.0924  0.1087
11319TIP3    H255449   4.919   2.001  13.695  1.5024 -0.5317 -2.6889
11320TIP3   OH255450   3.065   5.746  17.165 -0.4041  0.0786  0.4522
11320TIP3    H155451   3.072   5.841  17.176 -0.4562 -0.0900  2.2426
11320TIP3    H255452   2.982   5.723  17.206 -1.6590 -0.4700 -2.2221
11321TIP3   OH255453   3.427   2.393   6.337 -0.7686 -0.4313  0.8065
11321TIP3    H155454   3.518   2.368   6.321 -0.5325  0.3581  0.8264
11321TIP3    H255455   3.378   2.311   6.334 -0.5878 -0.5710 -2.6902
11322TIP3   OH255456   3.026   2.090  16.167  0.2145  0.8158  0.0217
11322TIP3    H155457   2.974   2.050  16.098  3.0062 -0.1837 -1.7046
11322TIP3    H255458   3.003   2.040  16.246 -0.6241 -0.3000 -0.8862
11323TIP3   OH255459   6.084   4.912  15.831  0.1419  0.6725  0.0473
11323TIP3    H155460   6.028   4.859  15.886 -0.1183  0.4769 -0.3982
11323TIP3    H255461   6.116   4.852  15.764  2.6725  0.1930  1.5256
11324TIP3   OH255462   6.193   3.298  14.646 -0.5005 -0.1892  0.1445
11324TIP3    H155463   6.279   3.281  14.606 -0.3731  0.1746  0.2614
11324TIP3    H255464   6.181   3.392  14.638 -2.0293 -0.5159 -2.1454
11325TIP3   OH255465   0.508   3.412  16.416  0.0852  0.0237 -0.0313
11325TIP3    H155466   0.565   3.382  16.346  0.7337  0.0997  0.4652
11325TIP3    H255467   0.551   3.490  16.451 -1.2783  1.2627 -0.9283
11326TIP3   OH255468   6.642   3.960   5.625 -0.3717  0.5201 -0.0540
11326TIP3    H155469   6.597   3.961   5.709  0.6300  1.2321  0.4906
11326TIP3    H255470   6.577   3.994   5.563 -1.0912  0.0584  0.4278
11327TIP3   OH255471   0.245   0.296   2.489  0.4005 -0.1289  0.2973
11327TIP3    H155472   0.317   0.257   2.537 -0.0108  0.2406  1.2377
11327TIP3    H255473   0.243   0.387   2.518 -3.1032 -1.0036  3.7295
11328TIP3   OH255474   3.872   1.975  15.223 -0.3712  0.6086  0.5225
11328TIP3    H155475   3.946   1.917  15.205 -1.1947  0.1067 -1.4951
11328TIP3    H255476   3.847   1.954  15.313  2.2977  1.2703  1.5166
11329TIP3   OH255477   4.315   2.174  10.931  0.7620 -0.4370 -0.4480
11329TIP3    H155478   4.304   2.085  10.897  0.0605  0.4197 -2.6349
11329TIP3    H255479   4.390   2.208  10.883  0.7047  0.3453  0.0090
11330TIP3   OH255480   1.281   4.529   2.202 -0.5854  0.3376  0.2844
11330TIP3    H155481   1.282   4.593   2.131 -0.4720 -1.1631 -1.1155
11330TIP3    H255482   1.374   4.511   2.219 -0.5947 -1.3432 -1.1554
11331TIP3   OH255483   1.672   5.615   2.745  0.4226 -0.1169 -0.2141
11331TIP3    H155484   1.718   5.531   2.739 -0.7460 -0.8605  0.9742
11331TIP3    H255485   1.609   5.613   2.673 -0.0414 -0.5468  0.1976
11332TIP3   OH255486   6.679   4.852  10.738  0.1923 -0.2193 -0.1555
11332TIP3    H155487   6.604   4.817  10.786  0.3547  0.6342  0.7749
11332TIP3    H255488   6.751   4.793  10.759  0.3011  0.2310  0.8284
11333TIP3   OH255489   0.502   4.622  11.587  0.0138 -0.1205  0.3382
11333TIP3    H155490   0.526   4.595  11.498 -1.0823 -3.1483  0.8237
11333TIP3    H255491   0.585   4.640  11.630  0.6290  0.2700 -0.9686
11334TIP3   OH255492   5.171   1.691  16.632  0.3201  0.2358  0.0871
11334TIP3    H155493   5.172   1.673  16.726  1.1505  2.0664  0.4624
11334TIP3    H255494   5.259   1.725  16.612 -0.3940  1.5617 -0.9892
11335TIP3   OH255495   2.604   4.482  11.691  0.5078 -0.3115 -0.7099
11335TIP3    H155496   2.527   4.434  11.722 -0.0174  0.7933 -0.2621
11335TIP3    H255497   2.592   4.488  11.596 -0.2092  0.2669 -0.5883
11336TIP3   OH255498   4.600   1.604  14.676  0.3287  0.6814  0.3599
11336TIP3    H155499   4.538   1.540  14.710  1.3245 -0.9298 -0.6807
11336TIP3    H255500   4.547   1.681  14.658 -1.0953 -0.1346  0.8344
11337TIP3   OH255501   1.139   3.089   1.863  0.1552  0.3064  0.0845
11337TIP3    H155502   1.227   3.055   1.878  0.0110 -0.4036 -0.6811
11337TIP3    H255503   1.082   3.012   1.865 -0.3506  0.6676 -0.2498
11338TIP3   OH255504   0.410   2.647   6.124  0.1511  0.0853  0.2430
11338TIP3    H155505   0.314   2.654   6.117 -0.1962  0.9213  3.8728
11338TIP3    H255506   0.441   2.737   6.113  0.1542  0.3511  2.1448
11339TIP3   OH255507   2.014   4.020  12.256  0.2157 -0.1966  0.1586
11339TIP3    H155508   2.066   4.026  12.175  0.3641 -0.4366  0.2340
11339TIP3    H255509   2.026   4.105  12.298  0.2998 -0.1415  0.0263
11340TIP3   OH255510   2.375   4.486   4.556  0.0089  0.4364  0.1390
11340TIP3    H155511   2.408   4.573   4.533  0.6802  0.5428  1.4026
11340TIP3    H255512   2.445   4.426   4.531  0.1080  0.4044  0.4809
11341TIP3   OH255513   4.423   0.008   0.439 -0.9718  0.2979  0.3361
11341TIP3    H155514   4.430  -0.083   0.468  1.0552 -0.3745 -1.9877
11341TIP3    H255515   4.489   0.055   0.491  0.8943 -0.4227 -1.2766
11342TIP3   OH255516   0.862   2.078   5.835 -0.0295 -0.5521  1.0444
11342TIP3    H155517   0.768   2.077   5.854 -0.7448 -1.1343 -2.0326
11342TIP3    H255518   0.878   1.998   5.785  2.4487 -1.1801  2.6324
11343TIP3   OH255519   3.466   3.555  13.496 -0.3446  0.2229  0.1754
11343TIP3    H155520   3.374   3.578  13.507 -0.3694 -0.5411  1.8993
11343TIP3    H255521   3.510   3.594  13.571  0.7179  0.3664 -0.4945
11344TIP3   OH255522   2.953   6.540   1.197 -0.9151  0.2165  0.9464
11344TIP3    H155523   3.033   6.578   1.232 -0.2709  1.7625 -1.9017
11344TIP3    H255524   2.889   6.612   1.200 -1.2178 -0.0098  0.2184
11345TIP3   OH255525   4.385   4.599   6.619  0.9027  0.0152  0.1175
11345TIP3    H155526   4.340   4.662   6.675  0.5466  0.9699 -1.1803
11345TIP3    H255527   4.403   4.648   6.538  1.0457 -1.4144 -0.7491
11346TIP3   OH255528   1.134   0.568   3.098  0.3343  0.2760  0.0059
11346TIP3    H155529   1.187   0.562   3.177  1.4590  1.4240 -0.6328
11346TIP3    H255530   1.049   0.600   3.128 -0.8066 -3.4823  1.3267
11347TIP3   OH255531   6.458   0.143  11.639  0.2755 -0.9804 -0.1588
11347TIP3    H155532   6.434   0.233  11.617  0.3779 -0.6299  1.0644
11347TIP3    H255533   6.447   0.094  11.558  2.1766  0.4954 -1.3819
11348TIP3   OH255534   6.078   0.419  14.175 -0.0045 -0.2134  0.1643
11348TIP3    H155535   5.983   0.431  14.184 -0.0871 -1.0731  0.4870
11348TIP3    H255536   6.089   0.325  14.160  0.8391 -0.1930  0.6395
11349TIP3   OH255537   5.886   0.579   0.347  0.1403 -0.4150 -0.2662
11349TIP3    H155538   5.836   0.616   0.419  0.5748  0.5108 -0.4286
11349TIP3    H255539   5.842   0.611   0.268 -0.7371 -1.9561 -0.4597
11350TIP3   OH255540   6.810   1.543   0.706 -0.1869  0.1757  0.3792
11350TIP3    H155541   6.800   1.544   0.801 -1.2931  1.5858  0.2748
11350TIP3    H255542   6.864   1.465   0.688  1.1026  0.5916  2.2342
11351TIP3   OH255543   4.714   2.884  14.997  0.2627 -0.5753 -0.1037
11351TIP3    H155544   4.739   2.944  14.926  0.2980 -1.0678 -0.5104
11351TIP3    H255545   4.619   2.875  14.989  0.3940 -1.4690 -0.7637
11352TIP3   OH255546   5.580   5.957   2.845  0.2200  0.3061  0.3429
11352TIP3    H155547   5.525   5.943   2.768  1.2691 -0.9014 -0.2353
11352TIP3    H255548   5.520   5.947   2.919 -0.9644  2.2669 -0.2810
11353TIP3   OH255549   0.727   4.254   1.051 -0.3283 -0.4491  0.7461
11353TIP3    H155550   0.684   4.176   1.085  0.1862 -0.1249  2.2001
11353TIP3    H255551   0.815   4.225   1.028  0.0325 -0.2054  1.7746
11354TIP3   OH255552   5.437   0.004   2.957  0.7102  0.3846  0.8331
11354TIP3    H155553   5.408   0.094   2.939 -1.0974  0.3464  3.2085
11354TIP3    H255554   5.408  -0.046   2.881  0.1792  1.4860  0.2884
11355TIP3   OH255555   4.265   4.235   3.800  0.1278  0.2419  0.0415
11355TIP3    H155556   4.184   4.189   3.819  1.8479 -2.6485  1.1769
11355TIP3    H255557   4.281   4.289   3.877 -0.4759  0.4750  0.0053
11356TIP3   OH255558   1.392   6.752   4.316 -0.3679  0.4602  0.2933
11356TIP3    H155559   1.299   6.733   4.330 -0.1781 -0.2111  0.6578
11356TIP3    H255560   1.401   6.759   4.221 -0.7739  0.4753  0.2516
11357TIP3   OH255561   4.737   6.598   0.489  1.1667 -0.2611 -0.1139
11357TIP3    H155562   4.692   6.515   0.504  1.9866 -0.3780  2.1077
11357TIP3    H255563   4.814   6.593   0.546  1.0491  2.1396  0.3345
11358TIP3   OH255564   6.619   2.217   2.733 -0.2682  0.3013  0.7101
11358TIP3    H155565   6.577   2.293   2.773 -0.6490 -0.3675  1.6063
11358TIP3    H255566   6.590   2.142   2.786  1.1200 -0.3214  0.6434
11359TIP3   OH255567   0.398   2.507  12.448  0.4866  0.3236  0.3763
11359TIP3    H155568   0.423   2.424  12.488 -0.9540 -0.1144  0.4469
11359TIP3    H255569   0.395   2.488  12.354 -2.5139 -0.5793  0.5318
11360TIP3   OH255570   2.051   5.221   0.026 -0.1980 -0.3646 -0.2580
11360TIP3    H155571   2.010   5.269   0.098  0.2891 -1.4940  0.8090
11360TIP3    H255572   2.144   5.244   0.031  0.1076 -1.6353  0.4968
11361TIP3   OH255573   6.774   4.469  17.232  0.1640 -0.3189 -0.7495
11361TIP3    H155574   6.838   4.415  17.279  0.3244  1.5051  1.2678
11361TIP3    H255575   6.710   4.406  17.199  0.2407 -1.7703  1.6261
11362TIP3   OH255576   3.662   6.434   0.605 -0.1744  0.0093 -0.5853
11362TIP3    H155577   3.679   6.342   0.583 -0.9549  0.2129 -2.1777
11362TIP3    H255578   3.740   6.481   0.575 -0.5539  0.0781 -1.5061
11363TIP3   OH255579   4.428   4.763   0.193  0.0939  0.3333  0.6738
11363TIP3    H155580   4.402   4.705   0.264 -1.2011  1.0334  0.7961
11363TIP3    H255581   4.352   4.819   0.178 -0.2519 -0.7433 -2.2531
11364TIP3   OH255582   3.814   2.151  15.725  0.3309  0.5766 -0.5731
11364TIP3    H155583   3.755   2.077  15.711  1.3816 -0.2032 -0.9377
11364TIP3    H255584   3.822   2.191  15.638  0.0027  0.9583 -0.4344
11365TIP3   OH255585   2.578   4.398   3.432 -0.2696  0.5587  0.1424
11365TIP3    H155586   2.499   4.453   3.438 -0.2522  0.7160 -0.9766
11365TIP3    H255587   2.633   4.429   3.504  0.4482  3.1688 -1.3793
11366TIP3   OH255588   5.254   5.881   3.274  0.0373 -0.0136  0.0700
11366TIP3    H155589   5.317   5.954   3.281 -0.1822  0.3180 -1.1622
11366TIP3    H255590   5.172   5.923   3.251 -0.1358 -0.6421 -0.4747
11367TIP3   OH255591   0.873   0.035   4.410 -0.0926 -0.2517 -0.6427
11367TIP3    H155592   0.807   0.050   4.343  0.4593 -2.2126 -1.6827
11367TIP3    H255593   0.826  -0.010   4.481 -0.1953 -0.2185 -0.6906
11368TIP3   OH255594   3.204   6.373   5.311 -0.3142 -0.6318  0.0901
11368TIP3    H155595   3.189   6.311   5.382  1.3875 -0.5920  0.5082
11368TIP3    H255596   3.227   6.318   5.236 -0.2081 -0.5679  0.0768
11369TIP3   OH255597   0.111   4.780   3.242  0.9116  0.5975  0.3501
11369TIP3    H155598   0.051   4.775   3.168  0.8644  0.1120  0.4207
11369TIP3    H255599   0.135   4.690   3.260  2.8352  0.8588 -0.6161
11370TIP3   OH255600   1.847   2.680  11.437 -0.3537  0.5239 -0.0240
11370TIP3    H155601   1.825   2.770  11.460  2.9921  0.9767  2.0866
11370TIP3    H255602   1.899   2.688  11.357  0.7266  0.6204  0.6694
11371TIP3   OH255603   0.724   1.124  10.327  0.0388  0.2341 -1.0243
11371TIP3    H155604   0.809   1.133  10.284  1.4458  1.0717  1.6815
11371TIP3    H255605   0.735   1.049  10.386 -0.8132  0.8239 -0.0922
11372TIP3   OH255606   4.470   2.585   5.355  0.2491 -0.2309  0.1582
11372TIP3    H155607   4.521   2.512   5.322 -0.2162 -0.1687 -0.7609
11372TIP3    H255608   4.418   2.549   5.427 -0.9083 -1.1466 -1.0821
11373TIP3   OH255609   5.342   1.558   5.860 -0.1452  0.1720  0.1736
11373TIP3    H155610   5.317   1.612   5.785  1.5819  1.9341  0.7871
11373TIP3    H255611   5.395   1.487   5.821  2.0511  1.9163 -0.2413
11374TIP3   OH255612   3.943   0.423  11.968 -0.2224 -0.0301 -0.0288
11374TIP3    H155613   3.860   0.465  11.943 -0.2338 -0.0429 -0.0122
11374TIP3    H255614   3.989   0.411  11.885 -0.6674 -0.9412 -0.1473
11375TIP3   OH255615   5.064   4.880   4.798  0.3764  0.0193 -0.6918
11375TIP3    H155616   5.123   4.945   4.760  1.2758  0.3984  1.2494
11375TIP3    H255617   5.099   4.796   4.768 -0.4722  0.3370 -2.7640
11376TIP3   OH255618   5.094   4.386   0.380 -0.0346  0.0958  0.1807
11376TIP3    H155619   5.187   4.381   0.403  0.0460  1.3405  0.1697
11376TIP3    H255620   5.081   4.476   0.352 -0.7362 -0.6644 -2.0920
11377TIP3   OH255621   0.989   1.667  14.529 -0.3502 -0.0063  0.2086
11377TIP3    H155622   1.025   1.649  14.442  1.1623 -0.7711  0.9524
11377TIP3    H255623   0.910   1.613  14.534  0.4580 -1.2684 -0.1026
11378TIP3   OH255624   3.097   2.254  13.248 -0.6115 -0.2827 -0.0165
11378TIP3    H155625   3.156   2.324  13.276 -0.7413 -0.3323  0.3892
11378TIP3    H255626   3.147   2.173  13.260 -0.1504 -0.2061 -1.3058
11379TIP3   OH255627   0.602   4.419   5.475 -0.4000 -0.1637 -0.2655
11379TIP3    H155628   0.591   4.512   5.455  1.0598 -0.1608 -1.2498
11379TIP3    H255629   0.513   4.386   5.488 -0.8979  1.5874  1.2445
11380TIP3   OH255630   5.539   2.699   1.446 -0.2565 -0.2363 -0.0802
11380TIP3    H155631   5.488   2.668   1.521 -1.3031  1.2977 -0.1232
11380TIP3    H255632   5.630   2.698   1.477 -0.4630 -1.4734  0.5358
11381TIP3   OH255633   2.186   4.644  15.681 -0.2110  0.3261 -0.1393
11381TIP3    H155634   2.242   4.575  15.716 -0.3426 -0.1628 -0.8737
11381TIP3    H255635   2.102   4.633  15.726 -0.5289 -0.5972 -0.9103
11382TIP3   OH255636   0.498   3.142   1.495 -0.3924  0.0739  0.2154
11382TIP3    H155637   0.504   3.090   1.415 -0.5580 -0.6085  0.6410
11382TIP3    H255638   0.433   3.210   1.475  1.6223  1.7263 -1.2163
11383TIP3   OH255639   0.219   5.580  16.326 -0.7734 -0.0576 -0.1019
11383TIP3    H155640   0.230   5.662  16.373 -0.2353 -0.0238 -0.2728
11383TIP3    H255641   0.156   5.599  16.257 -0.6317  0.2163 -0.1550
11384TIP3   OH255642   0.441   3.426   5.151 -1.0325 -0.3968  0.6307
11384TIP3    H155643   0.435   3.332   5.167  0.0946 -0.4714  0.7251
11384TIP3    H255644   0.412   3.467   5.233 -1.4372 -0.6630  0.6206
11385TIP3   OH255645   0.479   4.096   4.834 -0.3066 -0.3833 -0.3077
11385TIP3    H155646   0.411   4.050   4.882 -0.3483  0.5262  0.5304
11385TIP3    H255647   0.433   4.167   4.788  0.0543  0.2249  0.2500
11386TIP3   OH255648   5.214   4.023  12.766 -0.2621 -0.0814  0.2540
11386TIP3    H155649   5.231   4.030  12.672  1.2024  2.7066  0.6153
11386TIP3    H255650   5.301   4.018  12.806 -0.8720 -1.8879  1.4792
11387TIP3   OH255651   5.564   2.251   5.799  0.5082 -0.1299 -0.2295
11387TIP3    H155652   5.639   2.281   5.748  1.2202 -1.6350 -0.1252
11387TIP3    H255653   5.596   2.244   5.889 -0.5198  1.7381  0.3424
11388TIP3   OH255654   4.352   5.534  15.656 -0.7353  0.3395 -0.0143
11388TIP3    H155655   4.378   5.625  15.673 -1.2879  0.3063  1.1088
11388TIP3    H255656   4.334   5.498  15.743 -0.1047 -0.9864 -0.4096
11389TIP3   OH255657   1.572   0.910  12.750 -0.3389  0.1811  0.4060
11389TIP3    H155658   1.485   0.887  12.716 -1.4609  0.0490  3.0992
11389TIP3    H255659   1.569   1.005  12.759  0.3724  0.3413 -0.8339
11390TIP3   OH255660   2.750   5.957  14.075 -0.1472  0.0441  0.2296
11390TIP3    H155661   2.831   5.923  14.111 -0.8792 -1.1616  0.7877
11390TIP3    H255662   2.736   6.040  14.121 -0.0509 -0.5206  1.2946
11391TIP3   OH255663   0.140   5.940   2.102  0.5503  0.0487  0.9568
11391TIP3    H155664   0.177   6.027   2.085  2.0715 -0.6429  0.6405
11391TIP3    H255665   0.049   5.947   2.072  0.8431  1.3281  0.3025
11392TIP3   OH255666   1.485   2.379   0.914  0.1254  0.5832 -0.4199
11392TIP3    H155667   1.550   2.438   0.953 -0.5971 -0.4263  2.6338
11392TIP3    H255668   1.402   2.405   0.955 -0.6167 -0.9861 -0.8531
11393TIP3   OH255669   4.129   4.542   1.649 -0.0517 -0.0067  0.6844
11393TIP3    H155670   4.216   4.581   1.639  0.1911 -0.0931  2.1815
11393TIP3    H255671   4.127   4.512   1.740 -1.8094  0.3716  0.7993
11394TIP3   OH255672   0.808   2.025   4.950 -0.4824  0.3246  0.4567
11394TIP3    H155673   0.784   2.109   4.911  1.2049  0.6681  0.1105
11394TIP3    H255674   0.772   1.960   4.889  0.6206  0.8482 -0.7974
11395TIP3   OH255675   3.952   4.807   2.888 -0.2969  0.0140 -0.1772
11395TIP3    H155676   3.983   4.799   2.979 -0.9030  3.3511  0.4599
11395TIP3    H255677   3.879   4.746   2.882  1.1405 -1.9014  0.8442
11396TIP3   OH255678   3.729   4.962   6.739  0.1066  0.0791 -0.0039
11396TIP3    H155679   3.765   4.904   6.806 -1.0228  0.4562  0.9555
11396TIP3    H255680   3.798   5.028   6.725 -0.2842  0.9654  2.0231
11397TIP3   OH255681   1.388   2.912   1.183  0.3629  0.1114 -0.2547
11397TIP3    H155682   1.479   2.930   1.211  0.0064 -0.1336  1.1489
11397TIP3    H255683   1.338   2.913   1.265 -0.7814 -0.5371 -0.9330
11398TIP3   OH255684   1.068   1.006  13.971  0.0067  0.2105  0.3874
11398TIP3    H155685   1.088   0.970  13.885 -0.5849  1.5017 -0.3254
11398TIP3    H255686   1.004   1.075  13.954  2.1022  2.5824  1.4434
11399TIP3   OH255687   4.559   1.344  14.274  0.5516  0.1920  0.0651
11399TIP3    H155688   4.580   1.437  14.285  0.8699 -0.1238  2.8558
11399TIP3    H255689   4.476   1.333  14.320  1.2165 -1.1391  1.0043
11400TIP3   OH255690   3.381   3.629  14.752  0.1035 -0.4924  0.4742
11400TIP3    H155691   3.381   3.719  14.784 -1.2486  0.3622 -1.6636
11400TIP3    H255692   3.472   3.612  14.727  0.0307  1.1166 -1.0811
11401TIP3   OH255693   3.359   4.782   4.137  0.8569  0.7459  0.5339
11401TIP3    H155694   3.300   4.844   4.180 -0.1792 -1.5577  2.7374
11401TIP3    H255695   3.442   4.829   4.130 -0.1955  2.7753  0.9177
11402TIP3   OH255696   2.170   4.206   0.911  0.2537  0.0780  0.3792
11402TIP3    H155697   2.137   4.122   0.879  1.2482 -0.3103  0.3388
11402TIP3    H255698   2.199   4.188   1.001  1.6607  0.0397 -0.0535
11403TIP3   OH255699   0.351   1.397  11.709 -0.2796 -0.0746 -0.5040
11403TIP3    H155700   0.285   1.442  11.761  0.8085 -0.3987  1.2456
11403TIP3    H255701   0.381   1.463  11.646  0.9366  1.5957  1.6759
11404TIP3   OH255702   0.704   1.624  14.783 -0.3951  0.0796 -0.5685
11404TIP3    H155703   0.704   1.532  14.756 -2.0696 -1.0856  2.8016
11404TIP3    H255704   0.634   1.664  14.731  0.3851 -0.4906 -2.1117
11405TIP3   OH255705   5.108   3.647   1.055 -0.3275  0.7586  0.3692
11405TIP3    H155706   5.063   3.686   0.980  0.3744  2.4207  0.7604
11405TIP3    H255707   5.046   3.659   1.128  0.4195  2.4793  0.7762
11406TIP3   OH255708   5.457   3.941  12.338 -0.2628 -0.6495  0.0061
11406TIP3    H155709   5.413   3.984  12.265 -1.2291 -2.0281 -0.2733
11406TIP3    H255710   5.498   3.863  12.299  1.9415  0.2447  0.3748
11407TIP3   OH255711   1.518   3.480   2.488  0.1122  0.5977 -0.0691
11407TIP3    H155712   1.430   3.509   2.465  0.3259  1.0233 -0.3821
11407TIP3    H255713   1.540   3.416   2.420 -0.7105 -1.0356  1.1376
11408TIP3   OH255714   4.744   5.625  13.364  0.0369 -0.2290  0.1055
11408TIP3    H155715   4.711   5.684  13.297  4.6165  0.1080 -2.2758
11408TIP3    H255716   4.751   5.679  13.443  0.2011  1.2371 -0.8802
11409TIP3   OH255717   2.061   1.435  17.177  0.2002  0.6044 -0.2139
11409TIP3    H155718   2.145   1.396  17.152  1.1220  2.2962  0.1138
11409TIP3    H255719   2.037   1.490  17.103 -2.1579 -2.0184 -1.6131
11410TIP3   OH255720   0.249   3.996  13.668 -0.2177  0.2373  0.6146
11410TIP3    H155721   0.178   4.012  13.604  0.6357  0.0325 -0.4081
11410TIP3    H255722   0.290   3.915  13.638 -0.0593 -0.0930  1.6899
11411TIP3   OH255723   4.786   5.804  13.942  0.7786  0.2010  0.1039
11411TIP3    H155724   4.823   5.801  14.031  0.3291  0.1268  0.2880
11411TIP3    H255725   4.696   5.773  13.952  0.6514  0.4210 -0.3399
11412TIP3   OH255726   6.378   1.593  10.708  0.2774  0.3039 -0.1074
11412TIP3    H155727   6.422   1.663  10.661 -1.9499  1.5922 -0.4037
11412TIP3    H255728   6.290   1.627  10.725  0.4682 -0.6565  3.7196
11413TIP3   OH255729   5.727   4.592  13.675  0.4467  0.0527  0.1659
11413TIP3    H155730   5.713   4.629  13.588  1.6069 -0.8900 -0.4671
11413TIP3    H255731   5.811   4.546  13.667  0.0666 -0.9197  1.4830
11414TIP3   OH255732   2.035   5.474  11.729 -0.6507 -0.4217 -0.4118
11414TIP3    H155733   1.966   5.534  11.701 -1.3849 -0.3052  1.4569
11414TIP3    H255734   1.998   5.431  11.807  0.8589 -1.3829 -0.1881
11415TIP3   OH255735   5.443   4.185   0.141 -0.2271  0.4294  0.0220
11415TIP3    H155736   5.521   4.210   0.191  0.2707  2.2487 -1.5655
11415TIP3    H255737   5.469   4.105   0.095  0.5389  0.7403 -0.1007
11416TIP3   OH255738   5.786   6.811  12.846 -0.2702  0.0883  0.6501
11416TIP3    H155739   5.864   6.866  12.844  0.1635 -0.4798 -1.5141
11416TIP3    H255740   5.713   6.872  12.843  0.0731  0.6050  2.0777
11417TIP3   OH255741   5.256   3.497  12.453 -0.2546 -0.2581  0.0278
11417TIP3    H155742   5.317   3.454  12.392 -0.9882  0.5252 -1.3000
11417TIP3    H255743   5.310   3.519  12.529  0.6407 -1.4438 -0.2227
11418TIP3   OH255744   2.922   5.931  14.870 -0.5114 -0.6903 -0.5698
11418TIP3    H155745   2.826   5.923  14.877 -0.4490 -1.0127  0.0390
11418TIP3    H255746   2.946   5.983  14.947 -0.4964  2.1180 -2.3385
11419TIP3   OH255747   1.666   4.315   0.008  0.2463 -0.9867 -0.5520
11419TIP3    H155748   1.621   4.244   0.055  0.3604 -0.8536 -0.2396
11419TIP3    H255749   1.727   4.270  -0.050  3.1423 -1.1625  2.3653
11420TIP3   OH255750   4.077   1.154  16.171 -0.0704 -0.2784 -0.2120
11420TIP3    H155751   4.000   1.185  16.219  0.8363  0.3270  0.9070
11420TIP3    H255752   4.109   1.231  16.125  0.2902 -0.3420 -0.0671
11421TIP3   OH255753   1.417   6.073  12.468 -0.6073  0.1725 -0.7629
11421TIP3    H155754   1.471   6.152  12.463 -1.9201  1.1138 -0.4606
11421TIP3    H255755   1.333   6.103  12.504 -0.7442 -1.5601  0.5100
11422TIP3   OH255756   3.794   6.313  10.426 -0.7265 -0.0698 -0.1802
11422TIP3    H155757   3.726   6.270  10.374 -0.5363 -0.3756 -0.1790
11422TIP3    H255758   3.835   6.375  10.366 -1.4024  0.5536 -0.0149
11423TIP3   OH255759   1.836   4.575  11.628 -0.6141 -0.0727 -0.5387
11423TIP3    H155760   1.898   4.507  11.601 -2.5199 -2.1196 -0.0228
11423TIP3    H255761   1.809   4.549  11.715 -3.0029  0.1176 -1.1636
11424TIP3   OH255762   3.158   0.759   4.098  0.2368  0.7831 -0.1589
11424TIP3    H155763   3.110   0.705   4.161 -0.4126  0.1607 -1.1560
11424TIP3    H255764   3.239   0.783   4.144 -0.2173  0.3552  0.9075
11425TIP3   OH255765   2.959   5.209  12.925  0.4892 -0.8309  0.8356
11425TIP3    H155766   2.975   5.227  12.832 -0.5264 -0.4730  0.7115
11425TIP3    H255767   2.992   5.120  12.938 -1.0430 -1.6341 -0.3639
11426TIP3   OH255768   1.802   1.002  14.429 -0.3282  0.9469 -0.4699
11426TIP3    H155769   1.833   0.914  14.449  0.6853  1.3332 -0.2710
11426TIP3    H255770   1.715   1.006  14.468 -0.2570  0.1372 -0.2108
11427TIP3   OH255771   2.336   6.521   3.622 -0.2049  0.3205  0.2253
11427TIP3    H155772   2.388   6.484   3.694 -2.2232 -0.5140  1.3320
11427TIP3    H255773   2.288   6.447   3.586 -1.9490  1.3123  0.4036
11428TIP3   OH255774   5.862   0.740  10.441  0.0423 -0.1871 -0.9368
11428TIP3    H155775   5.867   0.673  10.373  0.2373  0.1302 -1.2362
11428TIP3    H255776   5.820   0.814  10.398  0.5349  0.1576 -0.8272
11429TIP3   OH255777   0.715   2.237   3.875 -0.0365 -0.4605 -0.1376
11429TIP3    H155778   0.797   2.189   3.867  1.6163  2.2471 -0.7775
11429TIP3    H255779   0.720   2.278   3.961 -1.1318 -0.9287  0.1614
11430TIP3   OH255780   6.755   0.259  17.100  0.0871 -0.2875 -0.5187
11430TIP3    H155781   6.757   0.317  17.024  1.0631 -0.8747 -0.9656
11430TIP3    H255782   6.667   0.223  17.101  0.1125 -0.4005 -1.4753
11431TIP3   OH255783   5.390   5.735  11.936 -0.6524 -0.0924  0.3602
11431TIP3    H155784   5.395   5.767  12.026 -1.5354 -0.6715  0.6254
11431TIP3    H255785   5.478   5.703  11.917  0.0783  1.7677  0.3403
11432TIP3   OH255786   0.269   0.530  16.359  0.4087  0.7031  0.0836
11432TIP3    H155787   0.285   0.489  16.444  0.6116  1.2170  0.3004
11432TIP3    H255788   0.179   0.563  16.365  1.1284  2.6704  0.9413
11433TIP3   OH255789   6.273   4.265  10.858 -0.5613  0.0212 -0.8586
11433TIP3    H155790   6.178   4.269  10.868 -0.6613 -1.1005 -1.2611
11433TIP3    H255791   6.286   4.238  10.767  0.1148 -1.0170 -0.4730
11434TIP3   OH255792   4.764   1.036  15.781  0.0738  0.1068  0.6262
11434TIP3    H155793   4.789   0.962  15.836 -0.8251  0.0016  0.9101
11434TIP3    H255794   4.670   1.047  15.796 -0.3114 -0.2399 -1.2700
11435TIP3   OH255795   0.488   4.250   1.881 -0.3611  0.0670 -0.1141
11435TIP3    H155796   0.469   4.178   1.941 -0.6284 -0.2038 -0.5169
11435TIP3    H255797   0.555   4.214   1.821 -0.0409  0.3577  0.0667
11436TIP3   OH255798   3.242   4.525   6.139  0.3061  0.3437 -0.2229
11436TIP3    H155799   3.236   4.564   6.051 -1.5354 -0.1386 -0.3485
11436TIP3    H255800   3.214   4.435   6.127  1.4854 -0.1546  0.6253
11437TIP3   OH255801   1.062   0.114   5.664 -0.1613  0.0578  0.4920
11437TIP3    H155802   1.140   0.061   5.684  0.4390  0.4085 -0.8355
11437TIP3    H255803   0.989   0.056   5.684  0.3431  0.1491  3.0312
11438TIP3   OH255804   2.331   5.966   3.068 -0.5082  0.7994  0.1033
11438TIP3    H155805   2.257   6.015   3.029 -0.7711  0.6400  0.3985
11438TIP3    H255806   2.289   5.895   3.116 -0.0627 -1.3325 -2.4272
11439TIP3   OH255807   4.618   3.456   2.160  0.4141 -0.2686 -0.0780
11439TIP3    H155808   4.550   3.512   2.198 -0.5870 -2.0269  0.8760
11439TIP3    H255809   4.579   3.368   2.159  2.5289 -1.2760  0.1193
11440TIP3   OH255810   1.419   4.436   3.248 -0.2971  0.1390 -0.2992
11440TIP3    H155811   1.422   4.344   3.222 -2.9096  0.0980 -0.7646
11440TIP3    H255812   1.460   4.438   3.334  2.4894 -0.8868 -1.4914
11441TIP3   OH255813   5.745   3.142   6.414 -0.0061  0.1531 -0.4340
11441TIP3    H155814   5.762   3.125   6.321 -0.7428  0.1782 -0.5822
11441TIP3    H255815   5.650   3.145   6.420  0.0494  1.6751  0.0472
11442TIP3   OH255816   5.422   1.461  12.046  0.1935 -0.2099 -0.5002
11442TIP3    H155817   5.407   1.382  12.098 -0.6770 -0.6027 -1.3322
11442TIP3    H255818   5.512   1.485  12.066 -0.7887  1.0414  3.0538
11443TIP3   OH255819   5.376   1.453   4.675 -0.1246  0.0673 -0.0478
11443TIP3    H155820   5.444   1.386   4.670 -0.3237 -0.1526  0.2190
11443TIP3    H255821   5.388   1.504   4.595  0.4357  0.1089  0.0556
11444TIP3   OH255822   6.705   4.814   3.653 -0.1715 -0.3270 -0.4393
11444TIP3    H155823   6.761   4.772   3.718 -0.3817 -0.9038 -0.6283
11444TIP3    H255824   6.616   4.788   3.678 -0.3485  0.4398 -0.2435
11445TIP3   OH255825   2.861   4.516   1.508  0.4421  0.5611  0.1125
11445TIP3    H155826   2.890   4.450   1.445 -0.0517  0.3576  0.0950
11445TIP3    H255827   2.816   4.466   1.576  0.1996  0.8672  0.1761
11446TIP3   OH255828   0.672   0.657   2.744  0.3978 -0.3035 -0.2241
11446TIP3    H155829   0.758   0.692   2.767 -0.2273  1.0450  0.2003
11446TIP3    H255830   0.690   0.586   2.683  2.0967 -2.9589  2.9808
11447TIP3   OH255831   6.420   2.618   0.063  0.3127 -0.5335  0.7443
11447TIP3    H155832   6.406   2.597   0.155  0.0285 -0.9265  0.6133
11447TIP3    H255833   6.345   2.579   0.018  1.0656 -1.3825  0.2078
11448TIP3   OH255834   3.409   2.137  16.566 -0.4418 -0.0623 -0.2597
11448TIP3    H155835   3.414   2.054  16.613 -1.2128 -0.0846 -0.1962
11448TIP3    H255836   3.389   2.113  16.476 -1.6520  0.0768 -0.0459
11449TIP3   OH255837   1.586   6.590   0.040  0.0459 -0.4747 -0.8669
11449TIP3    H155838   1.674   6.623   0.020  0.2798 -1.9104 -2.5152
11449TIP3    H255839   1.596   6.495   0.037 -1.1318 -0.6973  1.1244
11450TIP3   OH255840   3.003   2.598  13.239 -0.1683  0.2254 -0.6921
11450TIP3    H155841   2.908   2.595  13.241 -0.1645 -0.7567 -1.3965
11450TIP3    H255842   3.023   2.644  13.157 -0.0281  0.6284 -0.4370
11451TIP3   OH255843   2.423   5.289   3.940 -0.2172  0.3741 -0.3256
11451TIP3    H155844   2.452   5.207   3.978  0.1330  1.3735  1.6889
11451TIP3    H255845   2.395   5.266   3.851 -1.1409 -2.0915  0.5349
11452TIP3   OH255846   5.485   3.064  12.851  0.3776 -0.1083  0.4278
11452TIP3    H155847   5.414   3.128  12.850  0.7316  0.2934 -0.6769
11452TIP3    H255848   5.444   2.982  12.827  0.2635  0.1273 -0.2267
11453TIP3   OH255849   2.581   3.142   6.699  0.3373 -0.9837 -0.6517
11453TIP3    H155850   2.566   3.213   6.637  0.1598 -0.2115  0.2515
11453TIP3    H255851   2.496   3.098   6.706  0.4351 -1.2668 -1.1751
11454TIP3   OH255852   1.728   4.293  13.408  0.5726  0.1206  0.3388
11454TIP3    H155853   1.801   4.279  13.348 -0.6058 -1.2084 -0.8734
11454TIP3    H255854   1.650   4.271  13.356 -0.5589 -0.1330  2.0703
11455TIP3   OH255855   5.154   5.473   0.361 -0.5659 -0.5486 -0.1948
11455TIP3    H155856   5.150   5.450   0.454 -0.5462 -0.2916 -0.1302
11455TIP3    H255857   5.222   5.415   0.325  0.2723  0.1730  0.1958
11456TIP3   OH255858   1.194   3.851   2.727  0.0208  0.6163  0.1749
11456TIP3    H155859   1.218   3.887   2.813  2.9850 -1.0581  0.1822
11456TIP3    H255860   1.169   3.927   2.676  0.7066  2.0060  1.7795
11457TIP3   OH255861   3.751   1.165  16.879  0.0619 -0.2224 -0.1507
11457TIP3    H155862   3.783   1.075  16.893 -1.4345 -0.9166 -0.9505
11457TIP3    H255863   3.728   1.167  16.786 -1.1232  0.5815  0.1409
11458TIP3   OH255864   1.556   1.359  16.668  0.2214 -0.0189 -0.2666
11458TIP3    H155865   1.629   1.340  16.727  1.9179 -1.2848 -2.5580
11458TIP3    H255866   1.493   1.289  16.684 -0.8967  1.4529  2.2001
11459TIP3   OH255867   4.346   1.912   0.818 -0.1529  0.0553  0.1016
11459TIP3    H155868   4.302   1.901   0.733  3.5217 -0.7134 -1.9151
11459TIP3    H255869   4.375   2.003   0.818 -2.4135  0.8788  1.9081
11460TIP3   OH255870   6.001   3.583   5.761  0.0618 -0.0689  0.3428
11460TIP3    H155871   5.935   3.533   5.714  1.8784 -1.6573 -0.6650
11460TIP3    H255872   5.962   3.669   5.774 -0.9388  0.1784 -3.2529
11461TIP3   OH255873   5.114   5.803   0.290  0.0091  0.3969  0.3173
11461TIP3    H155874   5.145   5.777   0.204 -0.7524  0.3196  0.0604
11461TIP3    H255875   5.174   5.760   0.351 -1.0815 -1.8342 -0.0895
11462TIP3   OH255876   0.100   2.188   5.755  0.0295 -0.0483 -0.1010
11462TIP3    H155877   0.076   2.265   5.806 -0.2557  0.2059 -0.6085
11462TIP3    H255878   0.032   2.123   5.777 -1.4074  0.7941 -1.8184
11463TIP3   OH255879   2.214   5.680   0.517  0.0138 -1.0742  0.5323
11463TIP3    H155880   2.118   5.674   0.519 -0.0789  0.4212  1.8435
11463TIP3    H255881   2.242   5.639   0.599  0.4366 -0.5473  0.6515
11464TIP3   OH255882   0.480   1.260  11.938  0.3153  0.3899 -0.6113
11464TIP3    H155883   0.455   1.312  11.862 -2.2498  0.7464  0.3719
11464TIP3    H255884   0.511   1.325  12.002  1.8439  0.1539 -1.0713
11465TIP3   OH255885   1.489   0.148  16.007  0.0817  0.1827 -0.2025
11465TIP3    H155886   1.573   0.137  15.962  1.0968 -2.3117  2.0233
11465TIP3    H255887   1.423   0.132  15.939  1.4743 -0.5445 -1.4398
11466TIP3   OH255888   5.936   1.222  13.310 -0.0820  0.1157  0.3364
11466TIP3    H155889   5.952   1.135  13.346  0.4184  0.6187  1.3434
11466TIP3    H255890   5.930   1.280  13.386 -0.1078  1.0170 -0.3326
11467TIP3   OH255891   4.521   1.246   0.991  0.6436 -0.0162  0.3376
11467TIP3    H155892   4.427   1.257   1.008  0.5293 -2.1581  1.4540
11467TIP3    H255893   4.558   1.224   1.076  2.0471  0.1236 -0.2215
11468TIP3   OH255894   1.240   4.792  12.390  0.7050  0.2674 -0.0606
11468TIP3    H155895   1.182   4.801  12.466  0.7183  1.2955 -0.1525
11468TIP3    H255896   1.291   4.714  12.408 -0.9087 -0.8557 -0.1123
11469TIP3   OH255897   2.925   3.830  15.058  0.1031  0.1881  0.4379
11469TIP3    H155898   2.912   3.738  15.083 -2.4788 -0.1268 -1.5929
11469TIP3    H255899   3.014   3.832  15.023 -0.0120 -1.7346 -0.1051
11470TIP3   OH255900   2.517   1.465   4.986 -0.1230 -0.8373 -0.6692
11470TIP3    H155901   2.596   1.413   5.002  1.9527  1.9588 -1.1426
11470TIP3    H255902   2.461   1.407   4.934  1.5309 -2.9568 -0.2339
11471TIP3   OH255903   4.236   5.767  12.614  0.0195 -0.2456  0.3562
11471TIP3    H155904   4.155   5.810  12.637 -0.0682  0.0249 -0.4129
11471TIP3    H255905   4.210   5.696  12.554  0.2441 -0.8309  0.9394
11472TIP3   OH255906   4.682   0.410   2.211  0.0814 -0.2317 -0.2992
11472TIP3    H155907   4.604   0.403   2.156  0.7101 -0.5880 -1.1451
11472TIP3    H255908   4.687   0.326   2.256  0.3213 -0.4326 -0.7023
11473TIP3   OH255909   2.633   2.123   5.097 -0.4788  0.0518 -1.2455
11473TIP3    H155910   2.538   2.108   5.094 -0.3949 -0.8435 -0.1750
11473TIP3    H255911   2.651   2.144   5.189  0.4216 -0.2844 -1.3341
11474TIP3   OH255912   6.496   1.540  13.454 -0.6280 -0.8080 -0.4395
11474TIP3    H155913   6.504   1.511  13.545  0.4838  0.0137 -0.2561
11474TIP3    H255914   6.585   1.543  13.421 -0.8294  0.8834 -0.9113
11475TIP3   OH255915   4.705   5.622   4.057  0.0947  0.0742 -0.3069
11475TIP3    H155916   4.710   5.623   4.153 -2.9771 -0.3240 -0.0302
11475TIP3    H255917   4.736   5.535   4.032 -0.7002 -0.4501  0.4923
11476TIP3   OH255918   3.815   4.134   2.668  0.1163  0.8919  0.0515
11476TIP3    H155919   3.824   4.106   2.577 -0.8822 -2.4566  0.8601
11476TIP3    H255920   3.730   4.177   2.671 -1.3065 -1.7064 -0.1213
11477TIP3   OH255921   3.190   1.076  11.022  0.3505 -0.0983  0.5743
11477TIP3    H155922   3.143   1.118  10.950 -2.0037 -0.0894  1.9943
11477TIP3    H255923   3.198   0.984  10.996 -0.8223 -0.1689  0.4288
11478TIP3   OH255924   0.966   0.919  16.161  0.0045  0.3125  0.0438
11478TIP3    H155925   0.901   0.924  16.090  0.3759 -0.0043 -0.3276
11478TIP3    H255926   0.930   0.975  16.230 -1.4186 -1.0486  0.4691
11479TIP3   OH255927   1.981   4.449  13.846 -0.2389  0.5994  0.4165
11479TIP3    H155928   1.974   4.511  13.773  0.9539  1.7184  1.2100
11479TIP3    H255929   2.015   4.501  13.919  3.5169 -1.4711  0.4006
11480TIP3   OH255930   6.107   2.919   1.944 -0.0787  0.4650  0.3340
11480TIP3    H155931   6.052   2.982   1.989 -1.7776 -1.7440  1.5723
11480TIP3    H255932   6.177   2.898   2.005 -0.2580  0.2226  0.4604
11481TIP3   OH255933   3.455   4.849  13.846  0.6049 -0.3896 -0.0238
11481TIP3    H155934   3.407   4.789  13.903 -0.7219 -0.4802 -1.2018
11481TIP3    H255935   3.416   4.838  13.760  2.9660 -0.7005 -1.1471
11482TIP3   OH255936   2.581   6.051   5.735 -0.3280 -0.2882  0.1285
11482TIP3    H155937   2.608   5.962   5.715 -0.4716 -0.7284  1.6937
11482TIP3    H255938   2.567   6.050   5.830 -1.6253  1.0407 -0.0078
11483TIP3   OH255939   1.472   0.574  16.983  0.4566  0.7990  0.8772
11483TIP3    H155940   1.393   0.603  16.939  1.2277  0.7009 -0.6361
11483TIP3    H255941   1.442   0.542  17.068 -1.2062  0.2271  0.1156
11484TIP3   OH255942   3.563   3.719  11.401  0.2226  0.1587 -0.3869
11484TIP3    H155943   3.560   3.740  11.307 -0.5700 -0.4130 -0.5057
11484TIP3    H255944   3.490   3.657  11.413  0.1208  0.4738  0.6711
11485TIP3   OH255945   3.952   0.170  16.855 -0.1599  0.3212 -0.1719
11485TIP3    H155946   4.047   0.159  16.842  0.0838 -0.1915  1.7921
11485TIP3    H255947   3.916   0.167  16.766  1.7679  1.7048 -1.0899
11486TIP3   OH255948   6.169   1.219  14.490 -0.6402 -0.8355  0.0344
11486TIP3    H155949   6.226   1.256  14.423 -0.9482 -2.1733 -1.0285
11486TIP3    H255950   6.224   1.211  14.568  0.1441 -0.6064 -0.4907
11487TIP3   OH255951   4.628   6.406  15.452  0.2688 -0.1641 -0.3629
11487TIP3    H155952   4.711   6.454  15.450  0.2570 -0.1532 -0.9066
11487TIP3    H255953   4.646   6.326  15.402 -0.0516 -0.1548 -0.4968
11488TIP3   OH255954   4.602   4.566  14.790  0.4203 -0.2401 -0.4035
11488TIP3    H155955   4.681   4.514  14.805  1.0285  0.8868  0.3861
11488TIP3    H255956   4.555   4.517  14.722  0.5039 -2.3183  0.9202
11489TIP3   OH255957   4.339   5.575  17.032  0.5867 -0.4837 -0.2365
11489TIP3    H155958   4.284   5.523  17.091  2.1972 -1.6564  0.2882
11489TIP3    H255959   4.336   5.528  16.949 -1.8439  1.2746 -1.2799
11490TIP3   OH255960   4.057   6.418   0.081  0.7439  0.8574  0.1572
11490TIP3    H155961   3.977   6.420   0.030  1.0967  1.2250 -0.3942
11490TIP3    H255962   4.113   6.484   0.041  1.1755  0.8813  0.7787
11491TIP3   OH255963   5.250   5.215   2.386 -0.0133 -0.1270 -0.0385
11491TIP3    H155964   5.233   5.218   2.480 -0.7633 -0.2280 -0.1689
11491TIP3    H255965   5.253   5.121   2.365 -2.6873 -0.1652 -0.5992
11492TIP3   OH255966   1.907   4.557  15.762 -0.2753 -0.8623 -0.4816
11492TIP3    H155967   1.844   4.504  15.810  0.1774 -1.7081 -0.7931
11492TIP3    H255968   1.938   4.622  15.825 -1.1392 -0.7111 -0.2103
11493TIP3   OH255969   6.010   2.666  12.457  0.1969 -0.5272 -0.0138
11493TIP3    H155970   5.987   2.755  12.432  1.2741  0.1788  1.3324
11493TIP3    H255971   5.946   2.610  12.412  0.1649  0.8238 -1.7432
11494TIP3   OH255972   6.476   0.039  14.761 -0.4465 -0.5647 -0.1800
11494TIP3    H155973   6.526   0.110  14.801 -0.4642  0.0008 -1.1258
11494TIP3    H255974   6.520  -0.041  14.791  0.9187 -0.0917 -0.8242
11495TIP3   OH255975   3.860   2.952  12.952  0.7840 -0.1266  0.4079
11495TIP3    H155976   3.875   2.945  12.858 -0.1274  2.0781  0.0194
11495TIP3    H255977   3.940   2.918  12.992  1.5354 -0.3264 -1.1756
11496TIP3   OH255978   4.335   5.856   5.289 -0.0520 -0.0824 -0.0615
11496TIP3    H155979   4.352   5.923   5.223 -1.5654  1.0952  0.6672
11496TIP3    H255980   4.328   5.904   5.371 -2.0557 -0.9650  0.3637
11497TIP3   OH255981   1.440   0.938  11.350 -0.6038 -0.6249 -0.1299
11497TIP3    H155982   1.522   0.984  11.366 -0.2971 -0.5918 -1.6661
11497TIP3    H255983   1.401   0.983  11.275 -1.6319 -1.1427  0.0757
11498TIP3   OH255984   1.902   5.480   4.716 -0.4107 -0.2466  0.2609
11498TIP3    H155985   1.881   5.573   4.705  1.0757  0.0794 -0.1193
11498TIP3    H255986   1.959   5.459   4.641  0.2116 -1.1480  0.9600
11499TIP3   OH255987   1.582   5.875  11.591 -0.0396 -0.0223  0.4385
11499TIP3    H155988   1.586   5.931  11.514  0.2347  0.3668  0.7315
11499TIP3    H255989   1.592   5.786  11.557 -0.6347  0.0959 -0.0421
11500TIP3   OH255990   5.852   1.102  14.023 -0.2854  0.1515  0.1040
11500TIP3    H155991   5.785   1.114  13.956 -1.3053 -1.9700  0.6478
11500TIP3    H255992   5.914   1.040  13.985 -1.7977 -2.4612  1.6159
11501TIP3   OH255993   4.567   6.626   3.908 -1.0303  0.1748  0.3698
11501TIP3    H155994   4.616   6.638   3.826 -0.9828 -0.5712  0.2838
11501TIP3    H255995   4.583   6.707   3.957 -0.6339  0.4110 -0.1333
11502TIP3   OH255996   1.005   4.291  12.329 -0.1139  0.2340  0.3435
11502TIP3    H155997   1.028   4.297  12.422 -0.5335 -1.5352  0.5980
11502TIP3    H255998   0.910   4.307  12.327 -0.6035 -2.2791  0.6023
11503TIP3   OH255999   1.264   4.852  14.238 -0.0261 -0.0492  0.3184
11503TIP3    H156000   1.195   4.830  14.175  0.1909 -1.4256  0.5230
11503TIP3    H256001   1.221   4.909  14.302 -0.9528 -0.7733  0.3660
11504TIP3   OH256002   1.052   6.381   3.846  0.3695  0.0541 -0.1559
11504TIP3    H156003   0.998   6.306   3.869  1.2773 -0.7017 -0.3992
11504TIP3    H256004   1.135   6.366   3.892  1.7011 -0.7385 -2.6267
11505TIP3   OH256005   1.047   0.636   3.413  0.4446  0.2807 -0.4598
11505TIP3    H156006   1.001   0.706   3.459  0.2869 -0.1102 -0.0130
11505TIP3    H256007   1.105   0.598   3.479 -0.6193 -1.0385 -0.2296
11506TIP3   OH256008   1.133   6.393  12.022 -0.3253  0.1166 -0.0766
11506TIP3    H156009   1.211   6.419  12.071  0.8343 -0.7655 -1.3894
11506TIP3    H256010   1.083   6.474  12.013 -0.1190  0.4947  1.6917
11507TIP3   OH256011   2.118   5.847  12.064  0.8044 -0.1949  0.0635
11507TIP3    H156012   2.188   5.901  12.100  1.1188 -0.5990  0.0665
11507TIP3    H256013   2.043   5.864  12.120  1.7588 -2.1693  2.0855
11508TIP3   OH256014   5.859   3.002   1.796  0.7453  0.5375 -0.0887
11508TIP3    H156015   5.946   2.988   1.834  0.6263 -0.8020 -0.2599
11508TIP3    H256016   5.802   2.941   1.844  0.5465 -1.0575 -2.2157
11509TIP3   OH256017   2.592   2.456   5.905 -0.2485 -0.3450  0.2432
11509TIP3    H156018   2.540   2.388   5.949 -1.0313  0.1630  0.1291
11509TIP3    H256019   2.550   2.466   5.819  1.1743 -1.2248 -0.5937
11510TIP3   OH256020   2.770   4.480  12.804  0.2391 -0.3764 -0.1183
11510TIP3    H156021   2.723   4.435  12.734  0.7836 -0.3051 -0.5388
11510TIP3    H256022   2.862   4.472  12.780  0.3342  1.6296 -0.6462
11511TIP3   OH256023   6.761   1.431   4.277 -0.4680  0.0029  0.3760
11511TIP3    H156024   6.848   1.393   4.288 -0.3458 -0.4162 -1.7027
11511TIP3    H256025   6.770   1.521   4.308  0.4540 -0.2911  1.0059
11512TIP3   OH256026   3.357   5.428  15.852 -0.1392 -0.2928  0.0389
11512TIP3    H156027   3.387   5.514  15.824  0.4655 -0.2399  0.8159
11512TIP3    H256028   3.270   5.444  15.889 -1.2069 -0.4481 -2.2200
11513TIP3   OH256029   5.011   2.956  16.388 -0.0371  0.0619  0.0898
11513TIP3    H156030   5.106   2.965  16.391  0.1312 -1.4849  0.4538
11513TIP3    H256031   4.981   3.033  16.339  1.2762  1.2139  1.0235
11514TIP3   OH256032   6.502   2.845   4.742 -0.4336  0.2244 -0.4710
11514TIP3    H156033   6.511   2.757   4.779  1.5668  0.9046  0.8493
11514TIP3    H256034   6.592   2.876   4.733 -1.1017  2.1333 -0.9241
11515TIP3   OH256035   0.204   2.114  12.770  0.0832 -0.1852  0.0973
11515TIP3    H156036   0.122   2.164  12.771 -0.9468 -1.7818 -0.2611
11515TIP3    H256037   0.196   2.057  12.693  0.4616 -2.0326  1.3517
11516TIP3   OH256038   0.901   4.859   1.030  0.2924  0.1079  0.4398
11516TIP3    H156039   0.934   4.898   0.949  1.1958 -0.0612  0.7134
11516TIP3    H256040   0.979   4.825   1.074 -0.0040  1.2918  1.9795
11517TIP3   OH256041   3.327   5.720   2.749  0.0909  0.0081  0.3226
11517TIP3    H156042   3.384   5.741   2.822 -0.4715 -1.0009  1.0811
11517TIP3    H256043   3.379   5.739   2.671  1.3448 -0.5872  0.9903
11518TIP3   OH256044   1.814   1.112   3.447  0.4557  0.2502  0.1047
11518TIP3    H156045   1.765   1.193   3.460  1.1303  0.7506 -0.3757
11518TIP3    H256046   1.904   1.141   3.433  0.8279 -0.6275  0.6160
11519TIP3   OH256047   5.743   1.620   2.495  0.1068 -0.1456  0.3711
11519TIP3    H156048   5.698   1.614   2.579 -0.7845  1.0737  0.0076
11519TIP3    H256049   5.685   1.673   2.440  1.1112 -0.1271 -0.7163
11520TIP3   OH256050   3.944   6.743   5.733 -0.6784 -0.7316  0.3808
11520TIP3    H156051   3.937   6.797   5.812  0.3088 -0.5751  0.3837
11520TIP3    H256052   3.959   6.654   5.766  4.1026 -0.1234  0.5445
11521TIP3   OH256053   5.025   4.125  10.958 -0.4297 -0.1086 -0.5620
11521TIP3    H156054   5.028   4.054  10.894  0.4457  0.1176 -0.7832
11521TIP3    H256055   5.086   4.190  10.924 -0.4069  0.2740  0.2052
11522TIP3   OH256056   6.708   5.669   0.674 -0.3236  0.0310 -0.1008
11522TIP3    H156057   6.743   5.707   0.755  2.7352 -2.0516 -0.2714
11522TIP3    H256058   6.631   5.620   0.701  0.7187 -0.7385  1.6118
11523TIP3   OH256059   0.186   6.590   4.905 -0.3148 -0.0030 -1.0465
11523TIP3    H156060   0.151   6.677   4.926  0.8065  0.3458 -0.5147
11523TIP3    H256061   0.114   6.530   4.923  0.1221  0.3695  2.7468
11524TIP3   OH256062   1.307   0.515  11.840  0.4797  0.4553  0.2343
11524TIP3    H156063   1.255   0.466  11.777  2.1253 -1.8431  0.5514
11524TIP3    H256064   1.334   0.594  11.793 -2.1223  1.0890 -0.3464
11525TIP3   OH256065   3.489   0.096  14.102 -0.5065  0.0047 -0.3377
11525TIP3    H156066   3.455   0.173  14.057 -0.7090  1.0077  1.4393
11525TIP3    H256067   3.583   0.099  14.086 -0.6713 -0.2113 -1.4580
11526TIP3   OH256068   6.128   1.007  14.164  0.1945 -0.5081  0.1115
11526TIP3    H156069   6.062   1.064  14.204  1.3882  2.8287 -2.2002
11526TIP3    H256070   6.173   0.967  14.238 -1.3088  0.8757  1.8830
11527TIP3   OH256071   3.561   3.324  10.443  0.1124  0.0074  0.3046
11527TIP3    H156072   3.580   3.415  10.419 -2.2228  1.4511  3.3522
11527TIP3    H256073   3.618   3.306  10.518 -0.5868 -0.5039  0.7199
11528TIP3   OH256074   2.455   4.427  16.637 -0.0850 -0.4211  0.4350
11528TIP3    H156075   2.362   4.450  16.638  0.2565  1.1294 -0.3919
11528TIP3    H256076   2.483   4.443  16.547  0.9029 -1.2443  0.5807
11529TIP3   OH256077   5.762   5.640  16.691  0.7257  0.4179 -0.3437
11529TIP3    H156078   5.766   5.545  16.679 -1.5322  0.4560 -2.0197
11529TIP3    H256079   5.851   5.665  16.717  1.2166 -2.2091  0.8053
11530TIP3   OH256080   1.021   2.499   4.292  0.5472 -0.1952  0.3414
11530TIP3    H156081   0.943   2.550   4.271  0.4199  1.1125  3.4640
11530TIP3    H256082   0.992   2.438   4.360  2.1770  0.2891  1.5305
11531TIP3   OH256083   4.818   4.569  10.607  0.0790 -0.0011  0.3059
11531TIP3    H156084   4.815   4.663  10.587 -2.8800  0.1538  1.0517
11531TIP3    H256085   4.783   4.527  10.529  1.5817 -0.5611 -0.1023
11532TIP3   OH256086   3.394   6.337  15.977 -0.0638 -0.3662 -0.1021
11532TIP3    H156087   3.410   6.246  15.952 -1.0126 -0.4733 -0.3636
11532TIP3    H256088   3.304   6.354  15.949 -0.0610  0.5035  0.3802
11533TIP3   OH256089   3.678   5.117  13.807  0.6843 -0.3928  0.2316
11533TIP3    H156090   3.732   5.039  13.789  1.8510  0.0656  1.5560
11533TIP3    H256091   3.730   5.167  13.870  0.1110  1.6507 -0.8473
11534TIP3   OH256092   4.219   5.648  13.477 -0.7352  0.2800 -0.8865
11534TIP3    H156093   4.185   5.559  13.464  0.6595 -0.5425  0.7061
11534TIP3    H256094   4.314   5.635  13.487 -0.4176  2.0544 -1.3309
11535TIP3   OH256095   0.045   3.592  13.947 -0.3725  0.2405 -0.2223
11535TIP3    H156096   0.035   3.529  14.019  0.9761  0.1627 -0.0641
11535TIP3    H256097   0.015   3.545  13.869 -0.4608 -0.2014  0.0748
11536TIP3   OH256098   5.332   3.342   4.299 -0.3713 -0.2776  0.0910
11536TIP3    H156099   5.273   3.307   4.232  1.0130 -0.6473 -0.9724
11536TIP3    H256100   5.344   3.434   4.275  1.4866 -0.8089 -1.2615
11537TIP3   OH256101   5.266   3.429   2.879  0.7153  0.0519 -0.1938
11537TIP3    H156102   5.337   3.492   2.871  1.0871 -0.4353 -0.8072
11537TIP3    H256103   5.287   3.379   2.958  0.6448  0.4045  0.0525
11538TIP3   OH256104   0.492   5.645  13.490 -0.2234  0.5489 -0.1554
11538TIP3    H156105   0.425   5.713  13.498 -1.4286 -0.1609 -2.9673
11538TIP3    H256106   0.548   5.674  13.419  0.8445 -0.1861  0.3532
11539TIP3   OH256107   1.539   1.245   0.584 -0.2162 -0.5960  0.4009
11539TIP3    H156108   1.510   1.276   0.670 -0.6753 -1.6605  0.6374
11539TIP3    H256109   1.541   1.324   0.530 -0.3822  0.0091  1.2628
11540TIP3   OH256110   2.519   0.890  15.364 -0.0280 -0.1912  0.0852
11540TIP3    H156111   2.440   0.944  15.368 -0.4183 -0.7418 -0.0623
11540TIP3    H256112   2.549   0.884  15.455  0.0119  0.2587  0.1032
11541TIP3   OH256113   4.443   5.977   3.666  0.1658 -0.4880 -0.1078
11541TIP3    H156114   4.438   5.899   3.610 -0.0195 -0.9896  0.5989
11541TIP3    H256115   4.536   5.999   3.667  0.2203 -0.7030 -0.3034
11542TIP3   OH256116   4.758   1.513  12.862  0.1621  0.2302  0.2264
11542TIP3    H156117   4.756   1.434  12.810  0.4308 -0.7823  1.6801
11542TIP3    H256118   4.784   1.484  12.950  1.2750  2.0486  0.5730
11543TIP3   OH256119   4.915   2.802  15.650 -0.5513  0.1866 -0.4893
11543TIP3    H156120   4.998   2.760  15.672 -0.0913  1.2083 -0.2009
11543TIP3    H256121   4.867   2.737  15.599  0.1999 -0.6136 -0.1931
11544TIP3   OH256122   1.781   6.434   2.838  0.3503  1.0301 -0.5851
11544TIP3    H156123   1.711   6.384   2.880  0.0401  1.4073 -0.6538
11544TIP3    H256124   1.736   6.503   2.790  0.7998  1.6096 -0.1855
11545TIP3   OH256125   2.014   0.942   1.408  0.0670  0.3902  0.2334
11545TIP3    H156126   1.919   0.952   1.410  0.1495  1.4629 -0.2553
11545TIP3    H256127   2.031   0.888   1.330 -0.1330  0.3623  0.2078
11546TIP3   OH256128   3.065   4.477  14.721 -0.5540  0.2188  0.1243
11546TIP3    H156129   2.979   4.489  14.682 -0.3255  0.0903 -0.4356
11546TIP3    H256130   3.117   4.549  14.685 -0.8652  1.3087  1.7886
11547TIP3   OH256131   2.784   0.160   5.080 -0.2877 -0.3421  0.2932
11547TIP3    H156132   2.846   0.157   5.153 -1.0417 -0.0342  0.9662
11547TIP3    H256133   2.827   0.213   5.013  0.8782 -1.5454  0.0586
11548TIP3   OH256134   4.238   3.249  13.211  0.1477  0.8196  0.5504
11548TIP3    H156135   4.271   3.172  13.163 -0.6347  1.8428 -1.7916
11548TIP3    H256136   4.200   3.213  13.291 -0.0730 -1.2189 -0.4141
11549TIP3   OH256137   4.426   2.180   4.633  0.3227 -0.3989 -0.0655
11549TIP3    H156138   4.451   2.180   4.725 -0.0671 -1.8327  0.0605
11549TIP3    H256139   4.332   2.201   4.634  0.6886  1.3628 -0.2817
11550TIP3   OH256140   2.755   2.234  10.967 -0.0978  0.2021 -0.1204
11550TIP3    H156141   2.692   2.187  10.913  0.7868 -1.3187  0.1058
11550TIP3    H256142   2.840   2.206  10.934  0.4539  0.1457  1.2860
11551TIP3   OH256143   0.223   1.341  11.211  0.3513  0.7679  0.1099
11551TIP3    H156144   0.301   1.342  11.156  0.0781  1.1923 -0.2725
11551TIP3    H256145   0.257   1.356  11.299  0.7059  0.8910 -0.0430
11552TIP3   OH256146   4.630   2.563  14.657  0.2901 -0.3978 -0.3884
11552TIP3    H156147   4.710   2.512  14.673  0.8613  0.3272 -0.8706
11552TIP3    H256148   4.596   2.529  14.575  0.3165 -0.4446 -0.3801
11553TIP3   OH256149   2.133   0.447   4.791  0.6918  0.5607  0.1925
11553TIP3    H156150   2.069   0.502   4.836  1.3441  0.6282  1.0591
11553TIP3    H256151   2.082   0.401   4.724  0.1424  2.2799 -0.6387
11554TIP3   OH256152   1.629   2.859  15.233 -0.2414 -0.6115 -0.1189
11554TIP3    H156153   1.631   2.951  15.209 -0.1506 -0.1639  1.4914
11554TIP3    H256154   1.699   2.819  15.181 -0.1354  0.2527 -0.6679
11555TIP3   OH256155   4.964   1.852   1.952 -0.2790 -0.6539 -0.2493
11555TIP3    H156156   4.907   1.862   1.876 -0.2914 -0.4206 -0.2097
11555TIP3    H256157   4.904   1.829   2.023 -0.0538 -3.1089 -0.7499
11556TIP3   OH256158   1.076   3.677  11.166 -0.5372  0.2291 -0.1693
11556TIP3    H156159   1.130   3.745  11.126  1.8068 -0.4642  1.5603
11556TIP3    H256160   1.063   3.612  11.097  1.2407  0.2422 -0.5628
11557TIP3   OH256161   1.378   6.294  15.963  0.1418  0.6646  0.0347
11557TIP3    H156162   1.373   6.207  16.002 -0.1948  0.4299 -0.5239
11557TIP3    H256163   1.299   6.302  15.910  0.6228  0.9426 -0.6605
11558TIP3   OH256164   4.554   6.602  10.866 -0.4324  0.5880 -0.0011
11558TIP3    H156165   4.575   6.594  10.773  0.0539  1.1265  0.0526
11558TIP3    H256166   4.484   6.538  10.881  1.6499 -1.8422 -0.0417
11559TIP3   OH256167   1.732   6.212   5.641  0.1735  0.2089 -0.1558
11559TIP3    H156168   1.736   6.246   5.730  0.9272 -0.8268  0.2288
11559TIP3    H256169   1.742   6.117   5.651 -2.2259 -0.2201 -1.1479
11560TIP3   OH256170   3.986   6.428   4.726 -0.5308  0.1455  0.5162
11560TIP3    H156171   3.906   6.374   4.726 -0.0773 -0.5826 -0.6506
11560TIP3    H256172   3.995   6.457   4.635  0.8658 -0.3101  0.4830
11561TIP3   OH256173   6.299   2.856   5.719  0.4788  0.0154 -0.0835
11561TIP3    H156174   6.328   2.947   5.719  1.4356 -0.2274 -2.0382
11561TIP3    H256175   6.332   2.819   5.800 -0.1255  1.4485  0.8546
11562TIP3   OH256176   4.181   5.060   6.670 -0.2704 -0.6814  0.7269
11562TIP3    H156177   4.254   5.075   6.730 -0.2870 -0.3987  0.6738
11562TIP3    H256178   4.157   5.146   6.638 -0.1420 -0.8461  0.1706
11563TIP3   OH256179   5.167   2.755  17.204 -0.1471 -0.0423  0.3674
11563TIP3    H156180   5.214   2.687  17.252  0.0858 -0.2561 -0.1570
11563TIP3    H256181   5.211   2.760  17.119  0.7187  1.7387  0.8737
11564TIP3   OH256182   6.393   5.105  14.159 -0.2884  0.4998  0.5855
11564TIP3    H156183   6.485   5.111  14.135 -0.1833 -0.8934  0.5604
11564TIP3    H256184   6.392   5.090  14.253 -0.4300 -0.2489  0.4796
11565TIP3   OH256185   1.267   6.802  14.346 -0.0171  0.2230  0.2125
11565TIP3    H156186   1.275   6.862  14.272 -1.7224 -0.8223 -0.9004
11565TIP3    H256187   1.253   6.716  14.306 -1.8608 -0.2466  1.6956
11566TIP3   OH256188   6.395   4.797   4.451 -0.0998 -0.2597 -0.0512
11566TIP3    H156189   6.382   4.721   4.393  0.0119 -2.8418  3.0229
11566TIP3    H256190   6.310   4.841   4.452 -0.6224 -1.2112 -0.7788
11567TIP3   OH256191   5.197   5.625  11.781 -0.2871  0.2759  0.1224
11567TIP3    H156192   5.231   5.641  11.693 -1.9309  2.8996 -0.1415
11567TIP3    H256193   5.262   5.662  11.840 -0.5907  1.3015 -0.1671
11568TIP3   OH256194   3.815   2.185   0.883  0.3546 -0.3400 -0.6066
11568TIP3    H156195   3.721   2.189   0.868  0.2859 -0.1632 -0.1438
11568TIP3    H256196   3.824   2.183   0.978  0.7877 -1.2497 -0.6604
11569TIP3   OH256197   0.362   2.786   0.504  0.1839 -0.1353 -0.0497
11569TIP3    H156198   0.396   2.712   0.553 -0.3124  0.2986  0.9946
11569TIP3    H256199   0.365   2.759   0.413  1.5270 -0.8063  0.1819
11570TIP3   OH256200   5.699   2.928   4.707 -0.2485 -0.2891  0.5026
11570TIP3    H156201   5.768   2.954   4.768 -0.1373  1.5142 -0.3476
11570TIP3    H256202   5.744   2.882   4.637  0.0090  0.2024  0.3408
11571TIP3   OH256203   3.890   2.290  14.805  0.3162  0.3254 -0.3248
11571TIP3    H156204   3.881   2.249  14.891 -1.6941  2.1754  0.4707
11571TIP3    H256205   3.944   2.368  14.822 -2.5145  2.3599  0.0368
11572TIP3   OH256206   0.773   5.461   3.824 -0.3909  0.1970  0.1535
11572TIP3    H156207   0.744   5.545   3.859  0.2949  0.4463  0.1394
11572TIP3    H256208   0.800   5.480   3.734 -0.3239 -0.0579  0.1179
11573TIP3   OH256209   3.996   2.822  16.129  0.0632  0.1291 -0.5859
11573TIP3    H156210   3.983   2.913  16.156 -0.2746  0.1690 -0.8651
11573TIP3    H256211   4.041   2.829  16.045  0.5922  0.0237 -0.3098
11574TIP3   OH256212   1.483   6.270   4.593 -0.2241 -0.2213  0.1898
11574TIP3    H156213   1.572   6.266   4.629 -0.2125  1.2493  0.3849
11574TIP3    H256214   1.450   6.181   4.601  1.6307 -1.0785 -0.9090
11575TIP3   OH256215   2.780   5.730   3.622  0.0425  0.2132 -0.1557
11575TIP3    H156216   2.742   5.728   3.709  0.5272 -0.4471  0.0395
11575TIP3    H256217   2.871   5.754   3.636  0.4069 -0.9832 -0.3743
11576TIP3   OH256218   5.079   5.331  13.127 -0.1181  0.1245 -0.4092
11576TIP3    H156219   5.136   5.303  13.199  0.4169 -0.5961 -1.0930
11576TIP3    H256220   5.051   5.419  13.151  1.5290  0.6221 -0.2029
11577TIP3   OH256221   4.370   6.127   1.654  0.5152  0.6033  0.3023
11577TIP3    H156222   4.426   6.111   1.731  1.7160 -0.6311 -0.7793
11577TIP3    H256223   4.379   6.220   1.637  1.0316  0.7018  1.0760
11578TIP3   OH256224   2.003   3.336  16.145 -0.0438  0.2550 -0.4010
11578TIP3    H156225   2.037   3.305  16.061 -0.8299 -1.1893 -0.2110
11578TIP3    H256226   1.991   3.431  16.132  1.1900  0.2943 -1.4238
11579TIP3   OH256227   1.666   3.602  14.181 -0.5616  0.3281  0.0699
11579TIP3    H156228   1.733   3.539  14.153 -0.8143 -0.5662  1.4075
11579TIP3    H256229   1.621   3.625  14.100  1.0532  0.6177 -0.8047
11580TIP3   OH256230   0.455   0.613  11.668 -0.2427 -0.4013  0.1842
11580TIP3    H156231   0.497   0.540  11.623  1.3611  0.2411  0.5758
11580TIP3    H256232   0.362   0.589  11.670 -0.1660 -1.1069 -2.1417
11581TIP3   OH256233   0.425   5.349  11.997 -0.2338  0.6696 -0.1621
11581TIP3    H156234   0.450   5.391  11.915 -0.6047 -1.3811 -1.3825
11581TIP3    H256235   0.490   5.280  12.009 -2.0752 -1.1957 -0.5142
11582TIP3   OH256236   1.701   1.939  14.877  0.2044 -0.4281  0.1454
11582TIP3    H156237   1.607   1.955  14.877  0.2898  0.3027 -1.5311
11582TIP3    H256238   1.740   2.026  14.864  1.0378 -0.8617 -0.3668
11583TIP3   OH256239   0.221   0.264   3.667  0.3807  0.4201  0.7552
11583TIP3    H156240   0.206   0.245   3.759  0.9079 -1.2006  0.5531
11583TIP3    H256241   0.315   0.250   3.654  0.1932 -0.1307 -0.1627
11584TIP3   OH256242   0.197   3.039   5.209  0.5318 -0.1046 -0.0800
11584TIP3    H156243   0.167   3.109   5.152 -3.4173 -1.2408  0.3189
11584TIP3    H256244   0.173   3.068   5.297  1.8251 -0.6065  0.4639
11585TIP3   OH256245   3.193   4.389  16.383  0.1839 -0.1374 -0.3343
11585TIP3    H156246   3.142   4.465  16.411 -0.0940  0.7208 -2.8780
11585TIP3    H256247   3.234   4.356  16.463 -0.9671  1.7282  1.0930
11586TIP3   OH256248   0.105   5.754   6.429 -0.0553  0.1558 -0.0612
11586TIP3    H156249   0.016   5.723   6.442  0.3806 -1.3483 -0.5173
11586TIP3    H256250   0.099   5.809   6.350 -0.8396  1.3133  0.7807
11587TIP3   OH256251   4.823   2.567   6.551  0.1894  0.2451  0.1685
11587TIP3    H156252   4.910   2.586   6.585 -1.3400  0.9945  4.2014
11587TIP3    H256253   4.816   2.472   6.554  0.8337  0.1765 -0.2389
11588TIP3   OH256254   1.007   2.020   4.057  0.1997 -0.2003  0.5871
11588TIP3    H156255   1.003   2.113   4.080  0.2295  0.6135 -2.3211
11588TIP3    H256256   0.918   1.997   4.034  0.3751 -0.5880  0.2878
11589TIP3   OH256257   2.500   6.689  17.005  0.1264  0.1256  0.0047
11589TIP3    H156258   2.498   6.597  16.979  1.3550 -0.0824  0.5716
11589TIP3    H256259   2.453   6.692  17.089 -2.5115  0.5490 -1.3681
11590TIP3   OH256260   2.552   5.753   5.721 -0.3761 -0.4242 -0.3368
11590TIP3    H156261   2.483   5.756   5.655 -0.2789 -2.8907 -0.6659
11590TIP3    H256262   2.506   5.748   5.805 -0.6204 -1.2118 -0.5053
11591TIP3   OH256263   2.215   4.046  15.505 -0.6654 -0.0081  0.2879
11591TIP3    H156264   2.248   4.134  15.493 -3.6525  1.2686  0.5348
11591TIP3    H256265   2.186   4.043  15.597  1.4994 -2.1076  1.0164
11592TIP3   OH256266   3.979   4.848  16.892  0.4814 -0.1711  0.2298
11592TIP3    H156267   3.927   4.776  16.927  0.2939  0.4969  1.3850
11592TIP3    H256268   4.041   4.869  16.962 -1.0984  2.4050  1.0061
11593TIP3   OH256269   5.502   1.572   2.083 -0.3812 -0.3885  0.5452
11593TIP3    H156270   5.474   1.504   2.144 -2.4796  1.2220  1.5201
11593TIP3    H256271   5.486   1.535   1.996 -2.1005 -0.9491  1.0564
11594TIP3   OH256272   4.117   6.142  11.744  0.6288 -0.0234  0.1265
11594TIP3    H156273   4.211   6.161  11.743  0.6877 -0.0852 -2.7376
11594TIP3    H256274   4.112   6.047  11.746  0.8089 -0.2054 -3.2863
11595TIP3   OH256275   0.037   1.824   5.731 -0.0222 -0.2222 -0.1353
11595TIP3    H156276   0.001   1.894   5.786 -0.0110  0.1822 -0.6387
11595TIP3    H256277   0.063   1.756   5.793 -2.4517 -0.9213  0.2264
11596TIP3   OH256278   5.523   1.619  12.492  0.1887 -0.2151 -0.7114
11596TIP3    H156279   5.488   1.533  12.469  0.1582 -0.3107 -0.3026
11596TIP3    H256280   5.551   1.611  12.583  0.3932  0.1420 -0.7398
11597TIP3   OH256281   1.931   5.327  15.964 -0.1987 -0.5094  1.0314
11597TIP3    H156282   1.862   5.262  15.955 -1.5296  0.6577  2.2274
11597TIP3    H256283   1.890   5.399  16.012  1.0682  1.4265 -0.6312
11598TIP3   OH256284   2.864   3.529  11.754 -0.5807  0.2307 -0.0351
11598TIP3    H156285   2.938   3.583  11.781  1.4589 -2.1218 -0.5312
11598TIP3    H256286   2.803   3.590  11.713  0.8384  2.3397  0.8264
11599TIP3   OH256287   2.911   1.033   6.562 -0.2225  0.5769 -0.3198
11599TIP3    H156288   2.866   0.954   6.591  1.5778 -0.6379 -0.7090
11599TIP3    H256289   2.856   1.105   6.595 -1.7178 -0.8026  0.3271
11600TIP3   OH256290   4.063   1.724   3.755 -0.1415  0.2041  0.5056
11600TIP3    H156291   3.999   1.653   3.750 -0.2543  0.1278  2.2658
11600TIP3    H256292   4.145   1.684   3.727 -0.7052  0.1267 -1.1371
11601TIP3   OH256293   2.429   5.627  16.626  0.5417  0.4107 -0.1944
11601TIP3    H156294   2.487   5.600  16.554  0.8917 -0.2639  0.3300
11601TIP3    H256295   2.420   5.548  16.680 -0.8691  0.5011 -0.2635
11602TIP3   OH256296   5.786   4.519   4.640  0.3474  0.0404 -0.3205
11602TIP3    H156297   5.786   4.513   4.736  3.2591  0.8749 -0.1873
11602TIP3    H256298   5.816   4.433   4.610  0.7551  0.2119 -0.4098
11603TIP3   OH256299   4.703   1.842   4.801  0.1492  0.1926  0.3189
11603TIP3    H156300   4.702   1.749   4.822 -1.7636  0.0786 -0.0984
11603TIP3    H256301   4.763   1.880   4.866  1.5701 -1.3858  0.0202
11604TIP3   OH256302   2.138   3.855  11.432  0.2893 -0.3741 -0.0188
11604TIP3    H156303   2.173   3.795  11.497 -1.4639 -0.4899  0.8861
11604TIP3    H256304   2.094   3.798  11.368 -2.0129 -0.1000  1.2323
11605TIP3   OH256305   6.180   4.735   1.897  0.3272  0.0692  0.2362
11605TIP3    H156306   6.199   4.822   1.862 -0.4216 -0.0113 -0.3906
11605TIP3    H256307   6.124   4.752   1.973  0.2381  0.1300  0.1563
11606TIP3   OH256308   2.779   6.798   3.593 -0.5464  0.0525 -0.1510
11606TIP3    H156309   2.722   6.857   3.543 -0.5137 -0.6942 -1.1016
11606TIP3    H256310   2.853   6.853   3.619 -1.2133  0.7867  0.2556
11607TIP3   OH256311   1.429   5.598  13.445 -0.3115  0.0757 -0.2645
11607TIP3    H156312   1.461   5.654  13.374 -2.6002  0.4434 -1.1164
11607TIP3    H256313   1.458   5.510  13.421  0.4368  0.4391 -0.7249
11608TIP3   OH256314   2.498   6.469  11.712 -0.4497  0.0238  0.0475
11608TIP3    H156315   2.590   6.459  11.736 -1.1861 -2.6636  2.1634
11608TIP3    H256316   2.485   6.407  11.640 -1.0425 -1.2770  1.2330
11609TIP3   OH256317   1.338   1.174   3.591 -0.4926 -0.2311  0.1178
11609TIP3    H156318   1.410   1.111   3.593  1.8854  2.2147 -1.2638
11609TIP3    H256319   1.345   1.222   3.673 -0.6946 -0.1510  0.0890
11610TIP3   OH256320   3.781   0.600   5.896  0.2411  0.6074 -0.2291
11610TIP3    H156321   3.819   0.530   5.950  0.8888 -0.0334 -1.4530
11610TIP3    H256322   3.822   0.680   5.928  1.3083  0.1322 -0.3454
11611TIP3   OH256323   4.413   6.551  15.326 -0.4478 -0.1309  0.3990
11611TIP3    H156324   4.446   6.465  15.301 -1.8737 -0.5221 -0.2138
11611TIP3    H256325   4.373   6.537  15.412  0.2497  0.1667  0.7793
11612TIP3   OH256326   5.128   2.222   4.201  0.5660 -0.4853 -0.1314
11612TIP3    H156327   5.199   2.247   4.142  1.0981  0.7355  0.9702
11612TIP3    H256328   5.063   2.182   4.144  0.8034  1.1588 -1.6531
11613TIP3   OH256329   0.124   5.098   4.351 -0.0290 -0.1080 -0.2371
11613TIP3    H156330   0.073   5.017   4.359  0.0810 -0.1477  0.0800
11613TIP3    H256331   0.064   5.167   4.383 -0.4367  0.0583 -1.3368
11614TIP3   OH256332   0.759   0.268  12.945 -0.5873  0.2905 -0.0639
11614TIP3    H156333   0.824   0.254  13.014 -0.0866 -0.5049 -0.6694
11614TIP3    H256334   0.694   0.199  12.959 -0.0652 -0.3751 -0.8489
11615TIP3   OH256335   0.137   0.699  14.159 -0.7008  0.0531  0.3715
11615TIP3    H156336   0.049   0.673  14.130 -0.4054  1.1349 -1.6954
11615TIP3    H256337   0.122   0.759  14.232 -1.5852 -1.0111  1.1067
11616TIP3   OH256338   2.870   3.353   1.265  0.3065 -1.0040  0.3279
11616TIP3    H156339   2.955   3.369   1.305  0.4356 -0.8490 -0.0085
11616TIP3    H256340   2.819   3.310   1.334  0.2865 -0.0742  0.9165
11617TIP3   OH256341   4.191   4.791   0.976 -0.1344  0.2036  0.1171
11617TIP3    H156342   4.141   4.818   1.052 -0.6915 -0.5772  0.0483
11617TIP3    H256343   4.144   4.714   0.943  1.6087 -1.1252  0.5865
11618TIP3   OH256344   3.668   2.931   3.833  0.1573  0.7730 -0.8124
11618TIP3    H156345   3.599   2.988   3.867  1.9745  1.6501  1.6759
11618TIP3    H256346   3.620   2.857   3.794 -2.1832  1.5346  0.4099
11619TIP3   OH256347   6.199   3.797  11.648  0.8629 -0.0323 -0.0842
11619TIP3    H156348   6.236   3.838  11.726  1.2264 -0.1889 -0.1752
11619TIP3    H256349   6.138   3.732  11.682 -0.8856  1.6033  0.0731
11620TIP3   OH256350   4.066   0.531   3.909  0.0544  0.0681  0.2346
11620TIP3    H156351   4.141   0.492   3.954  0.0977  0.7701  0.7893
11620TIP3    H256352   4.053   0.477   3.832  1.2289  0.0222  0.0598
11621TIP3   OH256353   2.717   2.626   3.626  0.4892  0.8262  0.2056
11621TIP3    H156354   2.705   2.654   3.716 -0.5421  1.0415  0.0104
11621TIP3    H256355   2.679   2.538   3.622  2.3640 -0.0445  0.4522
11622TIP3   OH256356   0.466   0.063   5.850 -0.3263 -0.3830 -0.0055
11622TIP3    H156357   0.386   0.055   5.798 -0.1251 -0.5076 -0.2962
11622TIP3    H256358   0.481   0.158   5.854 -0.4750 -0.3598  0.0314
11623TIP3   OH256359   2.502   6.131  13.261 -0.2167 -0.7153  0.0705
11623TIP3    H156360   2.513   6.144  13.355  3.5873  0.9820 -0.4657
11623TIP3    H256361   2.479   6.217  13.226 -2.2774 -1.4547 -0.6055
11624TIP3   OH256362   1.510   6.702  13.287 -0.1418 -0.2085  0.2374
11624TIP3    H156363   1.589   6.755  13.302  1.0072 -2.2376  1.9023
11624TIP3    H256364   1.543   6.617  13.259 -1.8748 -0.5163 -1.0209
11625TIP3   OH256365   4.205   3.298  17.271 -0.1958 -0.2293 -0.5459
11625TIP3    H156366   4.115   3.293  17.303  0.2262 -2.1125  0.5395
11625TIP3    H256367   4.232   3.206  17.262  1.6229  0.2948 -0.8377
11626TIP3   OH256368   1.583   4.713   0.183 -0.5046  0.3221  0.5795
11626TIP3    H156369   1.635   4.636   0.162 -0.1944  0.6671  0.0642
11626TIP3    H256370   1.575   4.711   0.279 -1.3441 -0.8858  0.5026
11627TIP3   OH256371   0.931   3.324  16.933 -0.4012 -0.3003  0.6181
11627TIP3    H156372   0.954   3.233  16.955 -2.0959 -0.8275  0.3634
11627TIP3    H256373   0.977   3.376  16.999  2.0843 -1.1510 -0.2929
11628TIP3   OH256374   5.960   3.872   4.131  0.1743  0.3426  0.1847
11628TIP3    H156375   5.976   3.818   4.053  1.8779  0.5146  0.3698
11628TIP3    H256376   6.034   3.853   4.188 -0.1038  1.5888  0.9849
11629TIP3   OH256377   6.797   1.747   1.096  0.5240  0.1627  0.2678
11629TIP3    H156378   6.734   1.750   1.024  1.1765  0.3212 -0.3071
11629TIP3    H256379   6.876   1.788   1.061  1.6300 -1.7838  0.2873
11630TIP3   OH256380   4.929   1.281  15.188  0.5738 -0.1982  0.4269
11630TIP3    H156381   4.964   1.198  15.156  0.0777 -1.6284  3.2765
11630TIP3    H256382   4.946   1.280  15.282  0.4649  2.9397  0.5895
11631TIP3   OH256383   2.963   3.359  11.570  0.3096  0.3029  0.1152
11631TIP3    H156384   3.045   3.403  11.590 -0.0683  2.1575 -1.9767
11631TIP3    H256385   2.896   3.409  11.617  0.1931 -0.2504  0.5589
11632TIP3   OH256386   6.424   1.765  13.899 -0.3038 -0.3240 -0.4809
11632TIP3    H156387   6.394   1.674  13.901 -0.9419 -0.1203  1.0726
11632TIP3    H256388   6.501   1.766  13.955  0.5861 -0.1759 -1.6898
11633TIP3   OH256389   4.048   2.464   1.925 -0.3966 -0.0561 -0.2444
11633TIP3    H156390   3.984   2.401   1.960 -1.1490  1.2430  0.8054
11633TIP3    H256391   4.000   2.513   1.859 -0.3623  0.6083  0.2140
11634TIP3   OH256392   1.195   2.129   2.371  0.2646  0.1498 -0.1733
11634TIP3    H156393   1.286   2.142   2.343  0.7307 -1.7690  0.3037
11634TIP3    H256394   1.143   2.162   2.298  1.3509  0.3209 -0.9040
11635TIP3   OH256395   1.068   4.287  15.170  0.4435 -0.1442 -0.1818
11635TIP3    H156396   1.088   4.237  15.249  3.1966 -0.4608 -0.9538
11635TIP3    H256397   1.152   4.328  15.147 -0.9303  2.1569 -1.4356
11636TIP3   OH256398   4.044   5.370  12.254 -0.1382  0.0740 -0.1195
11636TIP3    H156399   4.008   5.284  12.277 -0.7333  0.4951  0.5665
11636TIP3    H256400   4.052   5.416  12.337  1.6081  0.1570 -0.3024
11637TIP3   OH256401   4.814   5.146  12.900 -0.0041  0.2873 -0.0574
11637TIP3    H156402   4.786   5.237  12.895  0.3137  0.3574 -0.5946
11637TIP3    H256403   4.822   5.128  12.994  0.4321  0.9572  0.0347
11638TIP3   OH256404   5.734   2.449  12.258  0.2187  0.7479  0.3523
11638TIP3    H156405   5.716   2.542  12.243 -1.4718  0.2776 -0.7396
11638TIP3    H256406   5.726   2.409  12.172  2.2214 -0.2598  0.5728
11639TIP3   OH256407   4.390   1.791   0.490  0.2276 -0.5081  0.1724
11639TIP3    H156408   4.335   1.863   0.521 -0.7716 -0.9635 -0.5090
11639TIP3    H256409   4.420   1.819   0.404  1.5637 -0.0082  0.7816
11640TIP3   OH256410   1.843   6.148   4.985  0.0965  0.1335 -0.4808
11640TIP3    H156411   1.901   6.096   5.041  0.1453 -0.0981 -0.7444
11640TIP3    H256412   1.895   6.225   4.961  0.1467  0.1313 -0.3795
11641TIP3   OH256413   5.271   1.800   1.421 -0.0218  0.5349  0.0801
11641TIP3    H156414   5.293   1.774   1.332  0.9790 -0.6909  0.6574
11641TIP3    H256415   5.241   1.891   1.413  2.0666  1.1696 -1.2272
11642TIP3   OH256416   4.878   2.837  12.138 -0.1088  0.0537 -0.4501
11642TIP3    H156417   4.880   2.922  12.095  0.9725  0.3194  0.1111
11642TIP3    H256418   4.874   2.774  12.066 -1.6774  0.5657 -0.8625
11643TIP3   OH256419   6.734   4.991  15.104  0.2118 -0.3460 -0.6159
11643TIP3    H156420   6.825   4.962  15.118  0.4192  0.2443 -0.6843
11643TIP3    H256421   6.732   5.019  15.013  0.3770  1.0609 -0.2131
11644TIP3   OH256422   2.429   1.228   5.697 -0.3188 -0.5436  0.1265
11644TIP3    H156423   2.422   1.305   5.641 -2.2595 -0.6458  0.1708
11644TIP3    H256424   2.471   1.162   5.641  2.3344  0.7712  0.4062
11645TIP3   OH256425   0.003   3.227  17.001 -0.3522  0.3204 -0.1952
11645TIP3    H156426  -0.001   3.316  17.036  0.2435  0.5834 -0.7768
11645TIP3    H256427   0.092   3.218  16.968  0.2413 -1.1679  1.6067
11646TIP3   OH256428   5.780   2.315  14.475 -0.4344  0.3677 -0.1757
11646TIP3    H156429   5.744   2.268  14.400  0.9267 -0.1947 -0.5193
11646TIP3    H256430   5.767   2.407  14.454 -2.5177  0.1908  0.1892
11647TIP3   OH256431   1.953   5.958   3.423 -0.1504 -0.2731 -0.9645
11647TIP3    H156432   2.042   5.929   3.408  0.2704 -0.3988  1.3244
11647TIP3    H256433   1.911   5.884   3.468 -0.8313  0.4760 -0.3366
11648TIP3   OH256434   3.631   2.711   4.637 -0.0292 -0.7560 -0.0982
11648TIP3    H156435   3.560   2.759   4.680  0.9811  0.3160  0.4405
11648TIP3    H256436   3.588   2.664   4.566 -1.1634  0.5321 -0.3093
11649TIP3   OH256437   0.726   1.237   3.084 -0.1422  0.0385  0.1565
11649TIP3    H156438   0.641   1.257   3.043 -0.7760  0.7432  1.7159
11649TIP3    H256439   0.755   1.321   3.119  0.6799 -0.4204  0.5769
11650TIP3   OH256440   1.151   0.423   6.197 -0.2812 -0.4222  0.6371
11650TIP3    H156441   1.186   0.334   6.197  0.4566 -0.1343  0.5019
11650TIP3    H256442   1.115   0.434   6.108 -0.9631 -0.8010  0.8522
11651TIP3   OH256443   0.304   0.729   2.894 -0.2846  0.6156 -0.3057
11651TIP3    H156444   0.317   0.655   2.834 -0.2337  1.0438 -0.8377
11651TIP3    H256445   0.222   0.709   2.939  0.0267 -0.0444 -0.0190
11652TIP3   OH256446   3.631   3.046  13.456 -0.1602  0.0894  0.0212
11652TIP3    H156447   3.693   3.001  13.398  1.9799  1.2589  1.2701
11652TIP3    H256448   3.638   3.000  13.539 -0.1095  0.9222  0.4930
11653TIP3   OH256449   1.976   1.022  13.095 -0.2328  0.4248  1.1527
11653TIP3    H156450   2.034   0.986  13.163  1.5562  0.1448 -0.4311
11653TIP3    H256451   1.984   1.117  13.105 -0.8716  0.3926  2.0392
11654TIP3   OH256452   1.579   1.432   4.001 -0.0355  0.3516 -0.5116
11654TIP3    H156453   1.593   1.411   3.909  0.0438 -0.6359 -0.2901
11654TIP3    H256454   1.527   1.359   4.035 -0.4117  0.8979  0.1376
11655TIP3   OH256455   6.243   6.376   1.616  0.0254 -0.1178  0.7611
11655TIP3    H156456   6.217   6.444   1.554 -3.2767  0.3563  2.4076
11655TIP3    H256457   6.247   6.421   1.701 -0.5898 -1.6347  1.6319
11656TIP3   OH256458   4.594   1.883   4.071  0.1134  0.4729  0.0817
11656TIP3    H156459   4.601   1.975   4.046  1.8040 -0.2576 -2.6514
11656TIP3    H256460   4.509   1.855   4.037 -0.0185  0.8274  0.1192
11657TIP3   OH256461   0.752   2.977   2.400 -0.3569  0.1310 -0.0786
11657TIP3    H156462   0.694   2.903   2.381 -0.9044  0.6543 -0.4780
11657TIP3    H256463   0.764   2.975   2.495 -0.4999 -0.3727 -0.0698
11658TIP3   OH256464   6.479   6.251   1.865 -0.5234  0.6176 -0.6897
11658TIP3    H156465   6.549   6.271   1.803 -0.4804  0.2682 -0.7532
11658TIP3    H256466   6.444   6.167   1.836 -0.5151  0.4589 -0.2547
11659TIP3   OH256467   5.454   3.950  10.812 -0.2508  0.0367  0.1382
11659TIP3    H156468   5.495   3.884  10.754 -1.7734 -0.9912  0.1770
11659TIP3    H256469   5.363   3.922  10.818 -0.6621  1.5284  1.1075
11660TIP3   OH256470   2.481   4.843  15.886  0.4643  0.1065  0.0132
11660TIP3    H156471   2.391   4.814  15.900 -0.1388  1.8433 -0.0046
11660TIP3    H256472   2.505   4.886  15.968  0.5555  1.3743 -0.6544
11661TIP3   OH256473   0.615   2.285   1.366 -0.1232  0.2484 -0.1939
11661TIP3    H156474   0.524   2.257   1.360 -0.4151  1.0991  0.0728
11661TIP3    H256475   0.610   2.381   1.371  0.8587  0.3840 -1.5229
11662TIP3   OH256476   6.591   1.797  14.141  0.0601 -0.3328 -0.3291
11662TIP3    H156477   6.639   1.733  14.195  1.5435  0.8436 -0.1774
11662TIP3    H256478   6.571   1.869  14.201 -0.7330 -0.2102 -0.7269
11663TIP3   OH256479   6.610   2.800  12.397 -0.3711  0.1095 -0.0653
11663TIP3    H156480   6.678   2.762  12.342  0.4388  0.4798  0.6558
11663TIP3    H256481   6.639   2.890  12.411 -2.1879  1.0013 -1.6466
11664TIP3   OH256482   1.131   3.034  15.860 -0.3139  0.1898  0.0841
11664TIP3    H156483   1.188   3.077  15.797 -0.4543  0.1957 -0.0378
11664TIP3    H256484   1.167   2.946  15.868 -0.8337 -0.0984 -0.6815
11665TIP3   OH256485   2.576   6.411   5.467 -0.6201 -0.0504 -0.2170
11665TIP3    H156486   2.564   6.363   5.385 -2.8163 -1.3851  0.8040
11665TIP3    H256487   2.553   6.348   5.535 -0.5246  1.5509  1.3524
11666TIP3   OH256488   5.450   3.601   3.431 -0.2921  0.0752 -0.2684
11666TIP3    H156489   5.474   3.667   3.497 -0.9794 -1.2279  1.3572
11666TIP3    H256490   5.423   3.652   3.355  0.5742  1.6412  0.4243
11667TIP3   OH256491   6.437   0.749  15.638  0.0277 -0.0683 -0.3170
11667TIP3    H156492   6.346   0.730  15.658 -0.1384 -1.4779 -2.2361
11667TIP3    H256493   6.434   0.825  15.580  0.1509  0.3048  0.1500
11668TIP3   OH256494   5.104   1.925  14.789  0.5528  0.3312  1.3011
11668TIP3    H156495   5.118   1.862  14.860 -1.5392 -0.6368  0.9438
11668TIP3    H256496   5.188   1.930  14.744  0.8623 -2.1315  1.4458
11669TIP3   OH256497   3.987   3.132  11.155 -0.1827  0.0882 -0.3388
11669TIP3    H156498   3.954   3.214  11.120  1.0095  0.8948  0.3334
11669TIP3    H256499   4.070   3.156  11.197  1.1375 -1.7588 -1.7261
11670TIP3   OH256500   2.574   6.454  16.160 -0.3996  0.0142  0.1510
11670TIP3    H156501   2.494   6.499  16.133 -2.1407 -2.7987  0.2698
11670TIP3    H256502   2.564   6.442  16.254  0.1991 -0.3073  0.1746
11671TIP3   OH256503   6.145   3.448   0.157  0.2132 -0.3554 -0.0567
11671TIP3    H156504   6.206   3.475   0.226 -1.6972  2.0672  0.8474
11671TIP3    H256505   6.085   3.388   0.201  0.7504 -1.2097 -0.4531
11672TIP3   OH256506   1.602   3.073   5.031 -0.5391  0.0203  0.3804
11672TIP3    H156507   1.689   3.033   5.038 -1.0658 -1.0981  0.6173
11672TIP3    H256508   1.606   3.150   5.088  0.1023 -0.3600  0.8540
11673TIP3   OH256509   3.500   5.506  13.316  0.3833 -0.0614 -0.4502
11673TIP3    H156510   3.575   5.518  13.374 -0.1634  0.2348  0.2125
11673TIP3    H256511   3.538   5.494  13.230  1.2195 -0.6543 -0.0101
11674TIP3   OH256512   1.389   1.892  13.754  0.0382  0.5869  0.1878
11674TIP3    H156513   1.451   1.964  13.744 -0.2055  0.9473  1.1530
11674TIP3    H256514   1.341   1.913  13.834  0.2001 -0.8286  0.6765
11675TIP3   OH256515   2.984   4.638  13.527  0.0347  0.2659  0.2569
11675TIP3    H156516   3.035   4.696  13.583 -0.9116  0.0472  1.3726
11675TIP3    H256517   2.963   4.692  13.450  0.0831  1.0544  0.7827
11676TIP3   OH256518   5.478   3.187  15.049  0.5933 -0.1837 -0.0516
11676TIP3    H156519   5.389   3.158  15.031  0.4940 -0.4651  0.8160
11676TIP3    H256520   5.468   3.266  15.103  0.8716  0.5773 -1.0892
11677TIP3   OH256521   0.814   1.928  13.541 -0.2384 -0.0711 -0.2802
11677TIP3    H156522   0.727   1.936  13.501 -0.7569  0.1563  0.8339
11677TIP3    H256523   0.869   1.989  13.493 -1.3431  1.7460  0.6597
11678TIP3   OH256524   6.306   3.701   1.415 -0.4390  0.1615 -0.7442
11678TIP3    H156525   6.401   3.706   1.410 -0.3435  1.6665  1.4003
11678TIP3    H256526   6.277   3.792   1.425 -2.0391 -0.3319 -0.5120
11679TIP3   OH256527   4.473   3.594   1.607 -0.1646  0.1968 -0.1192
11679TIP3    H156528   4.502   3.675   1.566 -2.2410  1.1981  0.2608
11679TIP3    H256529   4.492   3.606   1.700 -0.3351  0.1983 -0.0833
11680TIP3   OH256530   6.107   2.831  13.741  0.2642 -0.7701 -0.0951
11680TIP3    H156531   6.073   2.832  13.652  1.2305 -1.1196 -0.4801
11680TIP3    H256532   6.059   2.760  13.784 -1.0055  0.1194  0.0122
11681TIP3   OH256533   3.710   5.208  12.590 -0.3155 -1.0004 -0.5529
11681TIP3    H156534   3.632   5.207  12.535  0.1534 -0.4878 -1.2289
11681TIP3    H256535   3.698   5.133  12.649 -0.6558 -1.7689 -1.5679
11682TIP3   OH256536   1.554   0.713   0.959 -0.4673 -0.0616  0.2094
11682TIP3    H156537   1.499   0.652   0.910  0.0041 -1.2565  1.1384
11682TIP3    H256538   1.491   0.767   1.007 -0.8703 -0.2181 -0.1329
11683TIP3   OH256539   0.019   1.689   3.588 -0.0608 -0.3555  0.2611
11683TIP3    H156540   0.046   1.781   3.584  0.3420 -0.5075 -1.3223
11683TIP3    H256541  -0.056   1.684   3.529 -1.3404 -0.6690  1.8712
11684TIP3   OH256542   2.473   3.964   5.486  0.2210 -0.4895 -0.0037
11684TIP3    H156543   2.558   3.961   5.443  0.4979 -1.2863  0.5731
11684TIP3    H256544   2.421   4.025   5.433  0.7264 -1.0268 -1.1528
11685TIP3   OH256545   3.254   4.424   2.485  0.0977  0.6043  0.5534
11685TIP3    H156546   3.318   4.357   2.507 -0.4753  0.3230  1.4001
11685TIP3    H256547   3.227   4.403   2.395  1.3322  0.8582  0.1079
11686TIP3   OH256548   1.163   5.796  12.306 -0.6181  0.4733  0.6802
11686TIP3    H156549   1.166   5.752  12.221 -0.4550 -1.4904  1.6610
11686TIP3    H256550   1.227   5.750  12.359  0.5016  2.7519  1.4227
11687TIP3   OH256551   0.988   6.059   2.341 -0.2779  0.2180  0.1298
11687TIP3    H156552   1.025   5.979   2.378 -2.8974 -1.0038  0.3341
11687TIP3    H256553   0.934   6.095   2.411 -1.4363  0.5352 -0.8974
11688TIP3   OH256554   5.503   0.978   5.497 -0.2169  0.3433  0.1288
11688TIP3    H156555   5.485   1.030   5.575 -0.4651  1.6670 -0.7798
11688TIP3    H256556   5.569   0.914   5.525 -0.7577  0.3875  1.5608
11689TIP3   OH256557   0.509   3.110  11.377 -0.0251  0.2625  0.0094
11689TIP3    H156558   0.514   3.106  11.282  0.5331 -1.8836  0.0739
11689TIP3    H256559   0.423   3.074  11.398  0.5206 -0.8704  0.3582
11690TIP3   OH256560   1.341   6.654   6.132 -0.0160 -0.3765  0.6293
11690TIP3    H156561   1.400   6.589   6.093  1.9378  1.4782  0.2676
11690TIP3    H256562   1.397   6.703   6.192 -1.3009  1.2234  0.5836
11691TIP3   OH256563   2.005   0.554   3.950  0.7366  0.2005 -0.7413
11691TIP3    H156564   1.969   0.613   3.884  0.0210 -2.4144 -2.8911
11691TIP3    H256565   1.932   0.537   4.010  0.0798 -0.5122 -1.6936
11692TIP3   OH256566   2.936   2.166  16.855  0.3403 -0.0264  0.0135
11692TIP3    H156567   2.979   2.245  16.888 -0.0741  0.4040 -0.4514
11692TIP3    H256568   2.848   2.170  16.893  0.2660 -0.1814 -0.1436
11693TIP3   OH256569   3.567   4.756  16.068  0.3368 -0.3959  0.4215
11693TIP3    H156570   3.534   4.787  15.984  0.4083  1.4233  1.0178
11693TIP3    H256571   3.582   4.662  16.055 -1.5698 -0.5607 -0.9519
11694TIP3   OH256572   6.468   2.547  11.968 -0.1530 -0.1531  0.1544
11694TIP3    H156573   6.525   2.623  11.981  0.9102 -0.9822  0.4855
11694TIP3    H256574   6.478   2.495  12.048 -0.9394 -0.5914 -0.0221
11695TIP3   OH256575   0.963   4.870   1.993  0.8461 -0.8462  0.1521
11695TIP3    H156576   0.906   4.916   1.931  2.4777 -1.6653 -2.0821
11695TIP3    H256577   0.950   4.916   2.075 -1.2150  0.4938 -0.8275
11696TIP3   OH256578   5.356   2.930   0.100 -0.1364 -0.5916  0.1063
11696TIP3    H156579   5.339   2.944   0.007  0.5278 -0.6832 -0.0345
11696TIP3    H256580   5.400   3.010   0.129 -1.3452 -0.0959  0.6110
11697TIP3   OH256581   6.558   3.803  17.121  0.3501 -0.3480  0.3983
11697TIP3    H156582   6.494   3.810  17.192 -2.4987  2.7801 -2.1396
11697TIP3    H256583   6.629   3.862  17.147  1.0620 -1.8162  2.0341
11698TIP3   OH256584   5.789   6.808   4.365  0.4956 -0.0550 -0.3751
11698TIP3    H156585   5.786   6.858   4.284  0.5983  0.7385  0.1078
11698TIP3    H256586   5.882   6.801   4.385  0.4449  0.1683 -0.0647
11699TIP3   OH256587   3.796   1.932  16.788 -0.1878  0.0751  0.0505
11699TIP3    H156588   3.779   1.992  16.861 -0.2472 -1.3634  1.2750
11699TIP3    H256589   3.744   1.854  16.809  0.3439 -0.6347 -1.1844
11700TIP3   OH256590   2.088   5.253   0.478  0.1193 -0.4889  0.3636
11700TIP3    H156591   2.137   5.174   0.457  1.3797  0.5951 -1.0390
11700TIP3    H256592   2.010   5.248   0.424  0.7186 -0.2925 -0.5393
11701TIP3   OH256593   2.100   6.726   1.898  0.1056  0.1761  0.1432
11701TIP3    H156594   2.126   6.634   1.891  0.2705  0.2796 -0.7368
11701TIP3    H256595   2.069   6.749   1.810  0.7960  1.1800  0.1447
11702TIP3   OH256596   3.172   0.478  16.576  0.2415  0.0894  0.0067
11702TIP3    H156597   3.086   0.497  16.613  1.4700  0.7729  2.7539
11702TIP3    H256598   3.188   0.386  16.598  0.6608  0.2886  0.5846
11703TIP3   OH256599   5.351   4.277  14.555  0.3032 -0.3505  0.5745
11703TIP3    H156600   5.444   4.256  14.556  0.3219 -0.3217 -0.1257
11703TIP3    H256601   5.339   4.337  14.628  1.0547  0.5585 -0.0250
11704TIP3   OH256602   0.463   5.280   1.173 -0.3380 -0.0616 -0.2294
11704TIP3    H156603   0.390   5.219   1.180 -1.2390  0.4746 -3.2856
11704TIP3    H256604   0.530   5.233   1.123  0.7216  0.0630  1.0129
11705TIP3   OH256605   4.953   6.129  13.835  0.4239  0.4947 -0.3463
11705TIP3    H156606   4.907   6.073  13.771 -2.5216 -1.0816  2.7900
11705TIP3    H256607   4.885   6.189  13.866  1.1685 -0.0140  2.5151
11706TIP3   OH256608   6.426   4.931   3.405 -0.2175  0.0374  0.5447
11706TIP3    H156609   6.375   4.856   3.374 -0.2049  0.7013 -1.1812
11706TIP3    H256610   6.362   4.988   3.448 -0.7392  0.3053 -0.5597
11707TIP3   OH256611   2.136   2.009  10.844  0.1472  0.5633 -0.3119
11707TIP3    H156612   2.057   1.955  10.849 -0.1512  1.1217  1.8772
11707TIP3    H256613   2.117   2.073  10.775 -0.7265 -0.1996 -0.8006
11708TIP3   OH256614   2.968   1.655   4.709 -0.0334  0.3586 -0.5684
11708TIP3    H156615   2.879   1.688   4.723 -1.0733 -2.1618 -0.7421
11708TIP3    H256616   2.995   1.695   4.627 -1.1024  0.9566 -0.6554
11709TIP3   OH256617   4.544   5.983  12.749 -0.0487 -0.1694 -0.0293
11709TIP3    H156618   4.548   5.925  12.673  0.0971 -0.2378  0.0298
11709TIP3    H256619   4.534   6.071  12.713  1.8233  0.0119 -0.1937
11710TIP3   OH256620   4.457   0.805  11.010 -0.6795  0.3406  0.2637
11710TIP3    H156621   4.424   0.755  10.935 -2.3079 -0.7539  1.6568
11710TIP3    H256622   4.414   0.891  11.001 -3.5150 -0.8134  1.6238
11711TIP3   OH256623   2.959   6.199  15.028  0.0077 -0.1939  0.1705
11711TIP3    H156624   2.935   6.225  15.117 -0.9811  1.0707 -0.4290
11711TIP3    H256625   2.949   6.279  14.976  3.5258 -0.0648 -0.5794
11712TIP3   OH256626   0.224   4.606  12.522  0.0028  0.4436  0.2897
11712TIP3    H156627   0.317   4.627  12.523 -0.0197  0.5385  1.5671
11712TIP3    H256628   0.188   4.649  12.599 -1.2461  0.9872 -0.5589
11713TIP3   OH256629   6.754   6.670   3.346  0.1428 -0.2698  0.6796
11713TIP3    H156630   6.739   6.751   3.298  1.2214 -1.1216 -1.2515
11713TIP3    H256631   6.674   6.619   3.332 -0.2520  0.1731  1.2974
11714TIP3   OH256632   1.647   4.030   5.666 -0.3325 -0.2568 -0.0528
11714TIP3    H156633   1.740   4.009   5.673  0.0060  1.4247  0.8557
11714TIP3    H256634   1.610   4.002   5.751 -0.3420  0.5420  0.2094
11715TIP3   OH256635   3.297   0.563  14.124  0.2854 -0.5585  0.2757
11715TIP3    H156636   3.234   0.576  14.195 -0.8849 -0.3679 -0.7643
11715TIP3    H256637   3.301   0.648  14.079  2.2152 -0.2118  1.0358
11716TIP3   OH256638   3.420   4.114   5.377 -0.0587  0.4748 -0.3711
11716TIP3    H156639   3.338   4.161   5.390 -0.8426 -0.9734  0.0132
11716TIP3    H256640   3.481   4.155   5.439 -0.6928  1.0494 -0.1201
11717TIP3   OH256641   2.009   1.724  13.444  0.6233  0.1390  0.6906
11717TIP3    H156642   1.953   1.658  13.484  1.1230 -0.9238 -0.3050
11717TIP3    H256643   1.985   1.724  13.351  1.1691  0.7969  0.5354
11718TIP3   OH256644   3.433   6.231  13.224  0.0918  0.2232  0.0308
11718TIP3    H156645   3.364   6.165  13.221 -0.4096  0.7591 -1.0974
11718TIP3    H256646   3.505   6.193  13.174  0.1770  0.1338  0.2206
11719TIP3   OH256647   6.710   3.689   6.156 -0.5651  0.2404  0.7152
11719TIP3    H156648   6.804   3.672   6.156 -0.5411  0.3135 -0.3127
11719TIP3    H256649   6.695   3.741   6.235  0.3493  0.6988  0.5997
11720TIP3   OH256650   4.227   6.802  14.875  0.1446  0.2790  0.7262
11720TIP3    H156651   4.310   6.808  14.827 -0.1771  0.4144  0.1860
11720TIP3    H256652   4.197   6.893  14.882 -0.9167  0.0817 -0.7776
11721TIP3   OH256653   3.553   2.982   0.394 -0.2953  0.0544  0.3578
11721TIP3    H156654   3.577   3.018   0.480  1.1640 -0.9223  0.3833
11721TIP3    H256655   3.583   3.048   0.331  0.9091 -0.3671  0.4814
11722TIP3   OH256656   2.404   0.252   3.292  0.1513  0.2160  0.4163
11722TIP3    H156657   2.392   0.327   3.234 -2.4755 -0.6909 -0.3649
11722TIP3    H256658   2.390   0.286   3.380  0.5959  0.9205  0.2191
11723TIP3   OH256659   0.293   1.538  16.869 -0.3592 -0.6476 -0.2703
11723TIP3    H156660   0.250   1.477  16.930 -0.0273 -0.4701  0.1505
11723TIP3    H256661   0.372   1.566  16.916  0.3820 -1.2118 -1.1515
11724TIP3   OH256662   3.286   3.421  16.146  0.2554 -0.8103 -0.0163
11724TIP3    H156663   3.354   3.375  16.194 -1.5130 -1.7993  1.7163
11724TIP3    H256664   3.288   3.510  16.180 -1.7351 -1.7627  3.0109
11725TIP3   OH256665   2.949   2.602   4.987  0.4099  0.5660  0.1197
11725TIP3    H156666   2.907   2.517   4.973  0.2422  0.8190 -1.0041
11725TIP3    H256667   2.890   2.665   4.946  1.8792  0.9258 -1.5894
11726TIP3   OH256668   4.453   4.521  14.196  0.2740  0.2415 -0.0257
11726TIP3    H156669   4.431   4.450  14.257 -0.2570  0.3335 -0.1031
11726TIP3    H256670   4.434   4.485  14.110  0.4846  0.3084 -0.1003
11727TIP3   OH256671   0.176   4.090   0.072 -0.1511 -0.1236 -0.1825
11727TIP3    H156672   0.100   4.063   0.123  2.0630 -1.0954  2.9384
11727TIP3    H256673   0.219   4.008   0.047  0.5322  0.4099 -0.8047
11728TIP3   OH256674   2.602   2.077   5.707  0.0405  0.0594  0.7946
11728TIP3    H156675   2.581   2.132   5.632  0.5881  1.1475  1.4235
11728TIP3    H256676   2.654   2.006   5.670 -2.1331 -1.0698 -0.3084
11729TIP3   OH256677   1.718   0.166   2.179  1.0384 -0.0861 -0.1929
11729TIP3    H156678   1.683   0.099   2.119 -0.9355 -1.5738  2.3776
11729TIP3    H256679   1.806   0.135   2.201  0.6084 -1.2447  0.0031
11730TIP3   OH256680   2.228   0.123  11.385 -0.4092 -0.0298  0.1312
11730TIP3    H156681   2.288   0.191  11.419 -0.4679  0.0009  0.1748
11730TIP3    H256682   2.171   0.103  11.460 -1.3078  0.8789 -0.2800
11731TIP3   OH256683   3.384   4.157   2.542  0.0328  0.4460  0.0841
11731TIP3    H156684   3.450   4.117   2.486  0.7224  0.8149  0.6130
11731TIP3    H256685   3.326   4.085   2.566  0.9637 -0.1550  0.6133
11732TIP3   OH256686   1.199   0.191  15.028 -0.1156  0.1077  0.7014
11732TIP3    H156687   1.167   0.265  14.976  1.6581  1.7217  1.7617
11732TIP3    H256688   1.221   0.229  15.113  2.6526 -1.2048  0.6776
11733TIP3   OH256689   0.971   3.136   4.155 -1.0819  0.4049 -0.5608
11733TIP3    H156690   0.995   3.076   4.085  1.3640  0.6557 -0.0100
11733TIP3    H256691   0.916   3.202   4.112 -2.2209 -1.1311 -1.5547
11734TIP3   OH256692   4.389   2.392   4.295  0.7929 -0.1184  0.3537
11734TIP3    H156693   4.363   2.338   4.220  1.2495 -0.3172  0.3371
11734TIP3    H256694   4.349   2.477   4.278  0.5612 -0.2784  0.0839
11735TIP3   OH256695   0.662   0.636   1.812 -0.1034  0.5418  0.0511
11735TIP3    H156696   0.601   0.562   1.817 -0.9077  1.1010 -1.1606
11735TIP3    H256697   0.746   0.599   1.838 -0.9773 -0.1932  1.9819
11736TIP3   OH256698   4.795   6.273  11.282 -0.0252 -0.4244 -0.1389
11736TIP3    H156699   4.730   6.303  11.219  0.0198 -1.0805 -0.5102
11736TIP3    H256700   4.844   6.352  11.305 -0.3937 -0.0777 -0.5113
11737TIP3   OH256701   1.961   4.507   2.991 -0.0268 -0.1478 -0.4021
11737TIP3    H156702   1.917   4.546   3.067 -0.8276  0.4346 -1.1535
11737TIP3    H256703   2.017   4.439   3.029  0.6574  1.0547  0.8477
11738TIP3   OH256704   4.823   6.571  17.100 -0.4928 -0.1374  0.6238
11738TIP3    H156705   4.788   6.633  17.035 -0.8284 -1.1842 -0.2110
11738TIP3    H256706   4.754   6.565  17.166 -0.5624  0.1763  0.5835
11739TIP3   OH256707   3.198   5.482  15.529 -0.2111 -0.7729  0.0436
11739TIP3    H156708   3.113   5.451  15.558 -0.2643 -0.6855 -0.0171
11739TIP3    H256709   3.235   5.526  15.606 -0.9141  0.6243 -0.3923
11740TIP3   OH256710   0.626   1.481  16.817 -0.3598  0.1807 -0.5125
11740TIP3    H156711   0.668   1.555  16.773  0.3531 -0.9711 -1.8185
11740TIP3    H256712   0.692   1.448  16.878 -0.7530  0.7207  0.2282
11741TIP3   OH256713   3.981   5.887  16.719  0.4615  0.3983  0.1234
11741TIP3    H156714   3.939   5.897  16.804  0.6541 -0.3403  0.3081
11741TIP3    H256715   3.943   5.957  16.665 -3.1971 -1.8845 -0.5817
11742TIP3   OH256716   4.910   3.917   2.757  0.2445  0.4329  0.0347
11742TIP3    H156717   4.874   3.957   2.836 -0.7896  1.8835 -1.1361
11742TIP3    H256718   4.927   3.826   2.782 -1.7013  0.4076  1.4132
11743TIP3   OH256719   6.033   1.775   1.509  0.2777 -0.6063  0.3843
11743TIP3    H156720   5.955   1.813   1.551 -0.9257 -2.3523 -0.1281
11743TIP3    H256721   6.092   1.849   1.497 -1.5843  0.9369  0.1546
11744TIP3   OH256722   2.361   1.336  15.976 -0.1885 -0.6430 -0.1085
11744TIP3    H156723   2.352   1.430  15.962 -0.5845 -0.5164  0.9011
11744TIP3    H256724   2.389   1.301  15.891 -1.9156  0.1200 -1.0271
11745TIP3   OH256725   4.328   5.025   6.007 -0.9302  0.2679  0.0132
11745TIP3    H156726   4.353   5.004   5.917 -0.3856  2.2711 -0.3526
11745TIP3    H256727   4.259   4.962   6.028 -0.0441 -1.1857 -1.2656
11746TIP3   OH256728   5.253   3.698  15.945 -0.1660 -0.1780 -0.3283
11746TIP3    H156729   5.296   3.728  16.025  0.6807 -1.3193 -0.3206
11746TIP3    H256730   5.185   3.638  15.974  0.6920 -1.2525 -0.4646
11747TIP3   OH256731   2.061   5.112  16.155 -0.6103  0.0230 -0.0781
11747TIP3    H156732   2.043   5.095  16.063 -0.3424 -0.4420 -0.0479
11747TIP3    H256733   2.139   5.168  16.154 -1.4294  1.1672 -0.1734
11748TIP3   OH256734   2.875   0.395  10.537 -0.5933  0.3034  0.2062
11748TIP3    H156735   2.780   0.380  10.537 -0.6252  0.2893 -1.4849
11748TIP3    H256736   2.884   0.490  10.543 -0.7328  0.3197  0.1820
11749TIP3   OH256737   0.952   2.278   4.429 -0.0686  0.7393  0.2612
11749TIP3    H156738   0.931   2.186   4.414  1.3954  0.5883 -1.2760
11749TIP3    H256739   0.888   2.326   4.377 -0.9366  0.6207  1.1934
11750TIP3   OH256740   4.523   1.163  13.572 -0.1365  0.0146  0.1579
11750TIP3    H156741   4.609   1.157  13.530 -1.2886 -0.4316 -2.3624
11750TIP3    H256742   4.507   1.076  13.607  0.3955  0.0769  0.5666
11751TIP3   OH256743   6.373   1.735   1.744 -0.0585  0.2870  0.1779
11751TIP3    H156744   6.308   1.755   1.812  1.4935 -1.6137  2.4091
11751TIP3    H256745   6.440   1.803   1.753  0.5550 -0.4174  1.2182
11752TIP3   OH256746   6.348   0.511  12.017 -0.3151  0.6531  0.3359
11752TIP3    H156747   6.385   0.553  12.095 -1.3276  1.2645  0.5122
11752TIP3    H256748   6.421   0.508  11.955  1.0882 -1.7146  1.9655
11753TIP3   OH256749   6.105   4.672   4.596  0.7419 -0.3053  0.3693
11753TIP3    H156750   6.161   4.750   4.590  0.5439 -0.2806 -1.6943
11753TIP3    H256751   6.137   4.626   4.674  0.4454  2.1174  2.0423
11754TIP3   OH256752   4.804   3.262   2.084 -0.1317  0.0058 -0.1052
11754TIP3    H156753   4.783   3.232   1.996 -0.9813 -1.3207  0.5049
11754TIP3    H256754   4.733   3.322   2.107 -1.7284 -2.0999  0.8069
11755TIP3   OH256755   4.157   0.903  14.224 -0.2661 -0.1734 -0.2653
11755TIP3    H156756   4.162   0.856  14.141 -0.0467 -1.2752  0.3484
11755TIP3    H256757   4.247   0.928  14.243  0.0054 -1.6568  0.5761
11756TIP3   OH256758   6.736   0.645  13.461  0.1586  0.4026  0.3085
11756TIP3    H156759   6.773   0.560  13.439 -1.5581 -0.1360 -0.6428
11756TIP3    H256760   6.745   0.650  13.557  0.5994 -0.6860  0.3425
11757TIP3   OH256761   1.188   5.160  11.172  0.2845 -0.0495  0.0297
11757TIP3    H156762   1.179   5.155  11.267 -0.5786  0.9527  0.0123
11757TIP3    H256763   1.234   5.079  11.148 -0.4810 -0.8420  1.1627
11758TIP3   OH256764   5.126   0.846   1.582 -0.1069  0.8862 -0.0647
11758TIP3    H156765   5.123   0.823   1.675 -1.4992 -1.0627 -0.5255
11758TIP3    H256766   5.150   0.938   1.581 -1.1814  1.2686  2.2930
11759TIP3   OH256767   1.748   1.667  16.633  0.7601 -0.3491  0.5515
11759TIP3    H156768   1.729   1.619  16.553  1.0972 -0.7399  0.7001
11759TIP3    H256769   1.843   1.679  16.631  0.4083  3.3799 -1.2112
11760TIP3   OH256770   1.818   4.386   0.526  0.4935 -0.1285  0.5828
11760TIP3    H156771   1.836   4.376   0.619  0.4802 -0.6383  0.5299
11760TIP3    H256772   1.844   4.303   0.487 -0.8008 -0.4321  0.3196
11761TIP3   OH256773   3.017   0.907   3.641 -0.6951  0.5531  0.1753
11761TIP3    H156774   2.924   0.888   3.654  0.1299 -2.5317  2.6752
11761TIP3    H256775   3.044   0.951   3.722  0.2462  0.4510 -0.0759
11762TIP3   OH256776   1.098   1.722  14.773  0.2107  0.2501  0.3022
11762TIP3    H156777   1.069   1.709  14.683 -0.4309  0.7790  0.4245
11762TIP3    H256778   1.126   1.813  14.776 -0.3285  0.4080  0.7780
11763TIP3   OH256779   1.271   2.354  15.867  0.5066  0.0483  0.3734
11763TIP3    H156780   1.209   2.424  15.849 -0.1727 -0.8941 -1.1260
11763TIP3    H256781   1.237   2.313  15.947  1.4987  2.0120  1.8844
11764TIP3   OH256782   1.203   6.050  11.334 -0.1417 -0.4666 -0.0539
11764TIP3    H156783   1.113   6.021  11.319 -0.1950 -0.4365  0.2126
11764TIP3    H256784   1.228   6.093  11.252 -0.6374  0.2211  0.1556
11765TIP3   OH256785   1.943   6.601   5.178 -0.1622  0.2468  0.5158
11765TIP3    H156786   1.982   6.681   5.143  0.7739  0.2233  1.4442
11765TIP3    H256787   1.853   6.601   5.145  0.2976  0.8651 -0.7997
11766TIP3   OH256788   1.684   0.407   5.162 -0.4815 -0.4718  0.7499
11766TIP3    H156789   1.744   0.377   5.229  0.4557  0.8423  0.5388
11766TIP3    H256790   1.716   0.368   5.081  0.7484  1.0414  0.4717
11767TIP3   OH256791   3.769   4.848   1.667  0.2856  0.0801  0.0623
11767TIP3    H156792   3.797   4.762   1.637 -0.8845 -1.5460  3.1558
11767TIP3    H256793   3.685   4.863   1.623  0.9706  0.1600 -1.2572
11768TIP3   OH256794   1.405   2.384   6.334 -0.6222  0.2962  1.2235
11768TIP3    H156795   1.324   2.423   6.365 -1.4793 -0.9432  0.6120
11768TIP3    H256796   1.456   2.366   6.413 -1.4073  0.1142  1.6910
11769TIP3   OH256797   0.848   6.670  12.576  0.1146 -0.2596  0.7177
11769TIP3    H156798   0.766   6.656  12.622  0.6789  2.1039  2.6356
11769TIP3    H256799   0.833   6.748  12.523  1.5643  1.3459  2.5153
11770TIP3   OH256800   5.007   6.576   4.508 -0.8537 -0.1857  0.3495
11770TIP3    H156801   5.026   6.650   4.566 -0.1966 -1.3103  1.6394
11770TIP3    H256802   4.950   6.519   4.560 -0.7185 -0.9462 -0.3138
11771TIP3   OH256803   4.427   6.056  13.101 -0.1081  0.2368  0.0256
11771TIP3    H156804   4.383   5.998  13.164 -0.6084  1.0705  0.4556
11771TIP3    H256805   4.389   6.142  13.117  1.4082  0.9133  0.1322
11772TIP3   OH256806   0.714   5.399   2.910  0.2246  0.6116  0.2258
11772TIP3    H156807   0.748   5.487   2.925  0.3919  0.4980  0.5190
11772TIP3    H256808   0.792   5.344   2.905  0.0719  0.2001  1.8335
11773TIP3   OH256809   5.818   4.426   6.392  0.5044  0.4673  0.8365
11773TIP3    H156810   5.829   4.391   6.304  1.0148 -2.6446  2.0226
11773TIP3    H256811   5.739   4.479   6.387 -0.0480 -0.4514 -1.2457
11774TIP3   OH256812   1.106   2.053  15.760 -0.8820  0.2765  0.2521
11774TIP3    H156813   1.093   2.074  15.852 -2.2271 -1.1626  0.4242
11774TIP3    H256814   1.132   1.962  15.758 -1.2036  0.1829 -0.7985
11775TIP3   OH256815   6.305   5.442   5.133 -0.3360  0.0244  0.5636
11775TIP3    H156816   6.397   5.458   5.112 -0.8976  2.4658 -0.3916
11775TIP3    H256817   6.285   5.503   5.204 -1.1996 -0.5587  0.8433
11776TIP3   OH256818   0.131   4.331   2.758 -0.4078  0.0606 -0.1052
11776TIP3    H156819   0.056   4.273   2.743 -1.1566  0.8090  0.5996
11776TIP3    H256820   0.180   4.288   2.828  0.0876 -0.6538 -0.8635
11777TIP3   OH256821   5.525   5.008  15.865 -0.3858  0.7450 -0.5284
11777TIP3    H156822   5.452   4.975  15.813 -0.6426  2.4996 -1.3629
11777TIP3    H256823   5.567   5.073  15.809  2.2781 -0.6616 -0.3482
11778TIP3   OH256824   1.679   4.281   1.600  0.0734  0.5667  0.5543
11778TIP3    H156825   1.594   4.314   1.570 -0.3566 -1.3922 -0.5529
11778TIP3    H256826   1.704   4.340   1.671 -2.3333  1.0636  1.0725
11779TIP3   OH256827   3.848   5.836   5.305 -0.0151 -0.2184 -0.7137
11779TIP3    H156828   3.926   5.796   5.342  0.2408  1.2995  0.5005
11779TIP3    H256829   3.806   5.766   5.256  1.0320 -1.6188  0.3109
11780TIP3   OH256830   2.667   2.347   6.736  0.0033 -0.4034  0.0499
11780TIP3    H156831   2.576   2.315   6.735 -0.9622  2.0365 -2.4770
11780TIP3    H256832   2.681   2.373   6.827 -2.4135  0.5434  0.2431
11781TIP3   OH256833   6.701   2.241  13.405 -0.6306 -0.3653 -0.4596
11781TIP3    H156834   6.690   2.336  13.408  0.0709 -0.2959  0.4465
11781TIP3    H256835   6.648   2.208  13.478  2.1109 -0.3108  1.7117
11782TIP3   OH256836   1.527   2.942  16.104 -0.3307 -0.1281 -0.3237
11782TIP3    H156837   1.559   2.955  16.194  2.1711 -2.7906 -0.6541
11782TIP3    H256838   1.461   2.873  16.112  1.1952 -1.7014 -0.6097
11783TIP3   OH256839   2.827   4.942   2.635 -0.2248  0.1679 -0.5602
11783TIP3    H156840   2.901   4.900   2.590 -0.2340  1.5969 -2.0140
11783TIP3    H256841   2.767   4.871   2.656  0.7175 -0.7821 -1.0377
11784TIP3   OH256842   6.275   1.180  15.284  0.5592 -0.1285 -0.2712
11784TIP3    H156843   6.194   1.204  15.239  0.9346 -1.6670 -1.8945
11784TIP3    H256844   6.345   1.206  15.225  1.1102 -1.3700 -0.2145
11785TIP3   OH256845   6.041   0.333  15.362  0.5705 -0.4117  0.4290
11785TIP3    H156846   6.073   0.383  15.287  0.2851 -1.0561 -0.1299
11785TIP3    H256847   6.120   0.296  15.402  0.8443  0.9182  1.1821
11786TIP3   OH256848   3.270   2.740   1.867 -0.1174 -0.5876 -0.0328
11786TIP3    H156849   3.298   2.781   1.785 -0.4527  0.8925  0.5520
11786TIP3    H256850   3.352   2.722   1.913  0.0359  1.5622  0.6574
11787TIP3   OH256851   0.158   1.321  13.737 -0.1654  0.2966  0.6857
11787TIP3    H156852   0.182   1.229  13.746  1.3303  0.6685  0.7826
11787TIP3    H256853   0.162   1.356  13.826 -0.6838  0.4687  0.6431
11788TIP3   OH256854   1.592   4.639  14.414 -0.7128  0.4515 -0.6117
11788TIP3    H156855   1.529   4.585  14.366 -1.7800  0.6746  0.4842
11788TIP3    H256856   1.546   4.722  14.428  0.3241  1.0895 -0.9164
11789TIP3   OH256857   0.863   2.436  13.965 -0.2237 -0.0703  0.5975
11789TIP3    H156858   0.773   2.459  13.942  0.0817  0.3878 -0.2004
11789TIP3    H256859   0.916   2.479  13.897  0.6295  0.1546  1.3883
11790TIP3   OH256860   3.069   2.155   3.846  0.8734  0.5668  0.1066
11790TIP3    H156861   2.975   2.156   3.858  0.8996  0.2807  0.3574
11790TIP3    H256862   3.085   2.215   3.773  0.4097 -0.0699 -0.5373
11791TIP3   OH256863   4.760   4.709   0.543  0.3706  0.2865  0.2147
11791TIP3    H156864   4.787   4.693   0.634 -0.6554 -0.5931  0.3914
11791TIP3    H256865   4.826   4.664   0.491  0.0445 -0.6591  0.5919
11792TIP3   OH256866   3.661   1.241   1.441 -0.4084 -0.6816 -0.1031
11792TIP3    H156867   3.574   1.269   1.467 -0.2486 -0.3863  0.1280
11792TIP3    H256868   3.708   1.323   1.422 -0.3884 -0.8713 -0.8914
11793TIP3   OH256869   3.337   1.583   5.378 -0.0775  0.4468 -0.0756
11793TIP3    H156870   3.400   1.654   5.369 -1.7742  2.3868  2.0050
11793TIP3    H256871   3.280   1.592   5.302  1.9381 -1.2215 -1.8816
11794TIP3   OH256872   5.971   5.068  17.273 -0.7669  0.3111 -0.0268
11794TIP3    H156873   6.022   5.146  17.251 -1.0329  0.8995  1.3456
11794TIP3    H256874   5.884   5.087  17.239 -1.2538  1.3425  1.6973
11795TIP3   OH256875   4.575   1.241   3.967  0.4084 -0.4008  0.6293
11795TIP3    H156876   4.639   1.297   3.922 -0.3503 -1.4851 -1.9509
11795TIP3    H256877   4.491   1.286   3.955  0.1976 -0.6830  1.0175
11796TIP3   OH256878   3.195   1.264   4.034 -0.7389  0.1060  0.2080
11796TIP3    H156879   3.245   1.327   3.982  0.0549 -0.1172  0.6776
11796TIP3    H256880   3.130   1.317   4.080  0.6326  0.7897  1.4681
11797TIP3   OH256881   1.794   2.949   6.551 -0.0719 -0.1980 -0.5264
11797TIP3    H156882   1.762   2.974   6.638  0.1595  0.2327 -0.5591
11797TIP3    H256883   1.877   2.904   6.568  0.8572  1.3946 -0.5994
11798TIP3   OH256884   0.462   2.764   5.592 -0.3446 -0.1631  0.3687
11798TIP3    H156885   0.514   2.779   5.671 -0.3069 -0.1533  0.3418
11798TIP3    H256886   0.400   2.696   5.617  1.0227 -1.6715 -0.2151
11799TIP3   OH256887   3.892   5.558  13.256 -0.0703 -0.2580 -0.4832
11799TIP3    H156888   3.824   5.501  13.220  1.4780 -1.1607 -2.1558
11799TIP3    H256889   3.968   5.501  13.267  0.9093  1.0425 -0.2443
11800TIP3   OH256890   0.052   4.238  17.049 -0.5737  0.1867  0.1652
11800TIP3    H156891   0.068   4.206  16.960 -0.6793  0.7495 -0.0571
11800TIP3    H256892   0.133   4.219  17.096  0.1256  1.4387 -0.5027
11801TIP3   OH256893   3.160   3.286   1.993 -0.0698  0.5735 -0.3501
11801TIP3    H156894   3.162   3.253   2.083 -1.3350  0.6842 -0.2715
11801TIP3    H256895   3.094   3.233   1.949  0.1912  0.8488 -1.0896
11802TIP3   OH256896   3.210   0.219   3.214  0.3410 -0.6468  0.4686
11802TIP3    H156897   3.130   0.272   3.215  1.0376  0.4396  0.5169
11802TIP3    H256898   3.272   0.272   3.163  0.6487 -2.0546 -0.6804
11803TIP3   OH256899   3.025   3.825  12.015 -0.0552  0.3290  0.1989
11803TIP3    H156900   3.109   3.782  12.030 -0.1762 -0.2497 -0.7219
11803TIP3    H256901   3.037   3.914  12.050  0.0848 -0.5050  2.4724
11804TIP3   OH256902   6.212   1.975   1.262 -0.2141  0.0924 -0.1895
11804TIP3    H156903   6.145   1.934   1.207  1.0702 -3.6672  0.7644
11804TIP3    H256904   6.283   1.996   1.201  0.9623 -3.5158 -0.2747
11805TIP3   OH256905   5.806   3.580  14.758 -0.7932  0.1654 -0.2189
11805TIP3    H156906   5.835   3.605  14.670 -1.2742 -0.7477 -0.6546
11805TIP3    H256907   5.711   3.576  14.751 -0.7323 -2.9732 -0.5569
11806TIP3   OH256908   2.267   2.312  17.117  0.3229 -0.1599 -0.5739
11806TIP3    H156909   2.184   2.357  17.105  1.2441  2.0709  0.6950
11806TIP3    H256910   2.275   2.301  17.212  1.3690 -0.5402 -0.6890
11807TIP3   OH256911   5.807   5.079   1.038 -0.2633  0.7283 -0.4028
11807TIP3    H156912   5.845   4.992   1.026  2.6802  1.7886  0.1899
11807TIP3    H256913   5.767   5.076   1.125 -2.0509 -0.5610 -1.2091
11808TIP3   OH256914   5.770   2.799   1.957 -0.4690  0.0756 -0.1010
11808TIP3    H156915   5.788   2.789   2.051 -0.9787  0.9509  0.1003
11808TIP3    H256916   5.761   2.709   1.925 -0.9915 -0.2283  0.8337
11809TIP3   OH256917   0.105   6.693   5.914 -0.3739  0.1382 -0.3447
11809TIP3    H156918   0.134   6.613   5.958  2.1753  1.4159  0.5623
11809TIP3    H256919   0.115   6.761   5.981 -0.7321  1.4693 -1.6021
11810TIP3   OH256920   0.134   4.120  16.801 -0.2741  0.5533 -0.3736
11810TIP3    H156921   0.175   4.067  16.870  2.2918  2.2531 -0.4703
11810TIP3    H256922   0.206   4.168  16.761 -2.3737  4.2254 -0.2245
11811TIP3   OH256923   1.016   4.647   5.554 -0.2023  0.2136 -0.0832
11811TIP3    H156924   1.105   4.646   5.592 -0.3701  0.8337  0.3443
11811TIP3    H256925   1.004   4.558   5.521  0.5729  0.1106 -0.1282
11812TIP3   OH256926   1.324   4.821   0.974 -0.3061  0.7935  0.6690
11812TIP3    H156927   1.339   4.868   0.892 -0.1173  0.5013  0.5340
11812TIP3    H256928   1.229   4.823   0.986 -0.6602 -1.5785 -1.0111
11813TIP3   OH256929   1.528   3.927   1.634  0.0081 -0.1867 -0.6121
11813TIP3    H156930   1.516   3.893   1.723 -2.7764  0.2020 -0.7377
11813TIP3    H256931   1.530   3.849   1.578  0.5128 -0.3788 -0.3356
11814TIP3   OH256932   3.141   5.443  17.055  0.5270 -0.2784 -0.4690
11814TIP3    H156933   3.181   5.528  17.076  0.8340 -1.0267  2.3420
11814TIP3    H256934   3.214   5.390  17.023  0.5128  0.2040 -1.3404
11815TIP3   OH256935   0.687   5.211  12.273 -0.0396 -0.0126 -0.0270
11815TIP3    H156936   0.692   5.306  12.268 -2.8491  0.3317  1.5190
11815TIP3    H256937   0.675   5.183  12.183 -2.0252  1.4368 -0.3048
11816TIP3   OH256938   4.862   5.547   3.536  1.1663 -0.1508  0.0946
11816TIP3    H156939   4.889   5.591   3.456 -0.0070  1.9535  0.7815
11816TIP3    H256940   4.930   5.569   3.600  0.0791  1.6231  0.7074
11817TIP3   OH256941   3.709   1.953   4.284 -0.0058 -0.8105  0.3731
11817TIP3    H156942   3.777   2.015   4.258 -0.0961 -0.7836  0.2014
11817TIP3    H256943   3.635   1.973   4.227 -0.2514 -0.6611  0.7368
11818TIP3   OH256944   2.028   4.888  15.388  0.7106 -0.5762  0.0978
11818TIP3    H156945   2.004   4.805  15.430  0.9540 -0.6741  0.0495
11818TIP3    H256946   1.978   4.955  15.435 -0.1051 -0.8333 -0.3855
11819TIP3   OH256947   5.475   1.543   0.457  0.7555  0.4072  0.0153
11819TIP3    H156948   5.529   1.562   0.380  0.4864  1.9809  0.1712
11819TIP3    H256949   5.385   1.543   0.424  0.7145 -0.2221  0.1136
11820TIP3   OH256950   5.507   3.641  11.564 -0.0465 -0.6023  0.4767
11820TIP3    H156951   5.457   3.562  11.587  2.0522 -2.3324 -0.4875
11820TIP3    H256952   5.598   3.613  11.567  0.8251  1.9821  0.6094
11821TIP3   OH256953   1.997   4.983   3.045  0.2349 -0.0093  0.2702
11821TIP3    H156954   1.919   4.942   3.083 -0.8389  0.6488 -1.1137
11821TIP3    H256955   1.965   5.065   3.008  1.7562  0.6538  0.3522
11822TIP3   OH256956   1.977   0.143  11.278  0.2073 -0.2224  0.1505
11822TIP3    H156957   2.058   0.105  11.313  0.2096  1.1150  1.6910
11822TIP3    H256958   1.990   0.237  11.283 -1.5494  0.0273  0.6960
11823TIP3   OH256959   4.019   2.437   0.034 -0.0905 -0.0997 -0.4695
11823TIP3    H156960   4.064   2.505  -0.016  0.2788  1.1525  1.4592
11823TIP3    H256961   4.087   2.398   0.088 -0.3192 -2.0167 -1.4748
11824TIP3   OH256962   4.835   1.438   4.118 -0.8338  0.1181 -0.0856
11824TIP3    H156963   4.898   1.417   4.188  0.4556 -0.6917 -1.4245
11824TIP3    H256964   4.810   1.529   4.135  1.4611  0.8153 -0.0263
11825TIP3   OH256965   4.933   5.694  12.169  0.2332  0.0321 -0.8662
11825TIP3    H156966   4.963   5.756  12.103  1.5291 -1.6885 -1.9876
11825TIP3    H256967   4.844   5.670  12.142  1.1473 -1.5131 -2.7549
11826TIP3   OH256968   5.122   0.001   5.109  0.0014  0.6497  0.4851
11826TIP3    H156969   5.050   0.045   5.064  1.2188 -0.0457 -2.3777
11826TIP3    H256970   5.200   0.027   5.059  1.4960 -0.1353  2.3075
11827TIP3   OH256971   5.416   6.626  10.711 -1.1400  0.0982  0.3425
11827TIP3    H156972   5.338   6.664  10.671 -1.1244 -1.3365 -1.1900
11827TIP3    H256973   5.397   6.532  10.715 -0.4417  0.0059  2.2212
11828TIP3   OH256974   5.418   3.109   0.879  0.0421 -0.3160 -0.9726
11828TIP3    H156975   5.416   3.049   0.804  0.7752 -0.2661 -1.0311
11828TIP3    H256976   5.330   3.101   0.917 -0.1458 -0.7851 -1.4847
11829TIP3   OH256977   1.740   6.751  16.147  0.4632 -0.1048  0.4348
11829TIP3    H156978   1.654   6.776  16.181  0.8575  0.7173  0.8388
11829TIP3    H256979   1.799   6.820  16.177  1.3866 -0.9987  0.7066
11830TIP3   OH256980   6.686   5.043  17.123  0.0273 -0.2266  0.2500
11830TIP3    H156981   6.615   5.055  17.186  0.1180  0.2918  0.2545
11830TIP3    H256982   6.765   5.070  17.169  0.1957 -0.5482  0.1563
11831TIP3   OH256983   1.382   6.238  10.839 -0.3958 -0.1323  0.0270
11831TIP3    H156984   1.413   6.326  10.858  1.5776 -0.3084 -2.0224
11831TIP3    H256985   1.458   6.181  10.853 -0.6599 -1.0356 -1.7764
11832TIP3   OH256986   4.976   3.027   0.295 -0.9543  0.5659  0.2999
11832TIP3    H156987   4.961   2.941   0.254 -0.3027  1.0345 -0.9708
11832TIP3    H256988   4.971   3.089   0.222 -1.1417  1.5853  1.1680
11833TIP3   OH256989   2.791   1.507  16.525  0.3829 -0.1774  0.4078
11833TIP3    H156990   2.871   1.504  16.472 -0.0095  0.0798 -0.2170
11833TIP3    H256991   2.732   1.445  16.483  0.0758  0.0085  0.5584
11834TIP3   OH256992   1.634   0.416  11.870 -0.0429 -0.1738  0.0495
11834TIP3    H156993   1.566   0.397  11.805 -0.9547 -2.2612  1.5159
11834TIP3    H256994   1.587   0.465  11.938  0.6432  0.9727 -0.2733
11835TIP3   OH256995   0.688   0.368   5.464 -0.0735  0.3683 -0.5605
11835TIP3    H156996   0.723   0.371   5.553  0.5683 -0.8648 -0.7476
11835TIP3    H256997   0.749   0.421   5.413  0.4262 -0.1650 -0.5292
11836TIP3   OH256998   5.110   1.747  13.381 -0.0279  0.2226  0.5031
11836TIP3    H156999   5.106   1.659  13.343  2.1271  0.1836  0.2269
11836TIP3    H257000   5.169   1.738  13.456 -1.2201  1.0868  1.5881
11837TIP3   OH257001   4.746   4.695  15.936  0.6826 -0.3230 -0.2487
11837TIP3    H157002   4.733   4.660  16.024 -0.1463 -1.3933 -0.7675
11837TIP3    H257003   4.832   4.737  15.938  0.7756 -0.5600  0.9953
11838TIP3   OH257004   2.363   1.720   4.476  0.2539 -0.1690 -0.0861
11838TIP3    H157005   2.391   1.698   4.388  0.9204  0.8836 -0.1578
11838TIP3    H257006   2.421   1.669   4.533  0.1838 -0.4358 -0.2535
11839TIP3   OH257007   1.775   4.587   4.058 -0.1311  0.4038 -0.4304
11839TIP3    H157008   1.811   4.667   4.097  1.0560 -0.8591  1.2475
11839TIP3    H257009   1.852   4.532   4.042 -1.0858 -1.7327  1.7088
11840TIP3   OH257010   4.567   3.110  15.851 -0.1713  0.1171  0.1987
11840TIP3    H157011   4.534   3.024  15.825 -2.3142  1.2460 -1.1575
11840TIP3    H257012   4.494   3.170  15.831  2.0315  2.5562 -1.0738
11841TIP3   OH257013   4.937   1.240  15.758 -0.1207 -0.0911  0.2856
11841TIP3    H157014   4.878   1.306  15.794 -0.5852  0.1952 -0.9661
11841TIP3    H257015   4.885   1.159  15.755 -0.1953 -0.0291 -0.0783
11842TIP3   OH257016   1.580   3.195   4.305 -0.3939 -0.2173 -1.0606
11842TIP3    H157017   1.486   3.214   4.311 -0.2504  0.3818 -0.6225
11842TIP3    H257018   1.586   3.101   4.322 -0.9463 -0.3265 -1.4490
11843TIP3   OH257019   4.371   2.415  13.477  0.2175 -0.1874  0.4487
11843TIP3    H157020   4.316   2.342  13.506 -0.8484 -0.8033 -2.7558
11843TIP3    H257021   4.451   2.373  13.444  0.8382  0.3766  1.1918
11844TIP3   OH257022   1.661   0.448   1.394 -0.4242  0.4469 -0.5720
11844TIP3    H157023   1.630   0.433   1.304 -0.4360 -2.6754 -0.1372
11844TIP3    H257024   1.580   0.459   1.445 -0.5340 -0.4835 -0.5396
11845TIP3   OH257025   5.568   1.815  16.294 -0.6534  0.6368  0.0451
11845TIP3    H157026   5.648   1.869  16.289 -0.7728  1.2983  3.2866
11845TIP3    H257027   5.592   1.733  16.250  2.0140  0.6396  1.3022
11846TIP3   OH257028   1.814   2.155  15.394 -0.1553  0.4731  0.3982
11846TIP3    H157029   1.798   2.248  15.410 -1.1040  0.7137 -1.5964
11846TIP3    H257030   1.828   2.117  15.481  1.2160  2.6203  1.2020
11847TIP3   OH257031   0.792   3.467   5.711  0.1220 -0.1303 -0.6130
11847TIP3    H157032   0.735   3.523   5.658 -0.5724 -0.4167 -0.1788
11847TIP3    H257033   0.832   3.527   5.775 -1.2978 -0.2470  0.4269
11848TIP3   OH257034   6.756   0.269  14.589  0.7719 -0.1448 -0.3432
11848TIP3    H157035   6.694   0.275  14.516  0.9751  0.9187 -0.4504
11848TIP3    H257036   6.838   0.239  14.548  0.6555 -0.3695 -0.4109
11849TIP3   OH257037   1.977   5.071  14.438  0.4823  0.0873 -0.2917
11849TIP3    H157038   2.049   5.033  14.489  0.2674  0.6187  0.4320
11849TIP3    H257039   2.017   5.145  14.392  0.4006  0.4198  0.1576
11850TIP3   OH257040   1.063   1.425   3.851  0.0320  0.1243 -0.2534
11850TIP3    H157041   1.146   1.463   3.879  0.1031  0.9234 -1.4479
11850TIP3    H257042   1.031   1.378   3.927  0.5449  1.5962  0.9268
11851TIP3   OH257043   2.450   3.556  12.549  0.4614  0.0765 -0.6084
11851TIP3    H157044   2.459   3.462  12.562  1.9899  0.1416 -0.9494
11851TIP3    H257045   2.529   3.581  12.500 -0.9171  1.2054 -2.3674
11852TIP3   OH257046   1.073   6.774  15.356  0.1017  0.2603 -0.2784
11852TIP3    H157047   1.167   6.793  15.362  0.3798 -1.5209  1.7333
11852TIP3    H257048   1.062   6.737  15.268  0.6348  3.3691 -1.8005
11853TIP3   OH257049   6.240   2.564   4.888 -0.4044 -0.4757  0.5282
11853TIP3    H157050   6.296   2.486   4.895  2.1485  1.3767  2.3904
11853TIP3    H257051   6.178   2.554   4.960  0.1369 -0.6334  0.9829
11854TIP3   OH257052   4.501   0.735   1.179 -0.7113  0.2298  0.2221
11854TIP3    H157053   4.576   0.679   1.200 -1.3603 -1.1561 -0.9772
11854TIP3    H257054   4.533   0.794   1.111 -0.9997 -1.2935 -1.3333
11855TIP3   OH257055   3.014   0.347   2.858  0.3116 -0.0527  0.4484
11855TIP3    H157056   2.964   0.386   2.930  1.4223  2.7412 -0.1723
11855TIP3    H257057   3.105   0.365   2.880  0.7133  0.0546 -1.2106
11856TIP3   OH257058   2.984   2.231   1.462 -0.2906  0.4388  0.2930
11856TIP3    H157059   2.899   2.186   1.468 -0.6780  1.2553  1.0614
11856TIP3    H257060   3.021   2.226   1.550  1.0277 -0.9529 -0.3008
11857TIP3   OH257061   1.152   4.163   5.827 -0.3320  0.2048  0.1885
11857TIP3    H157062   1.183   4.144   5.738 -0.7397  2.6201 -0.5539
11857TIP3    H257063   1.170   4.256   5.838  1.1207 -0.3283  3.2662
11858TIP3   OH257064   1.150   0.161  14.574 -0.1366  0.2672  0.2530
11858TIP3    H157065   1.066   0.131  14.607 -1.1537  0.0893 -2.2874
11858TIP3    H257066   1.186   0.085  14.528  0.6452  0.8231 -0.0748
11859TIP3   OH257067   2.667   2.394  14.343 -0.3829 -0.6920  0.1503
11859TIP3    H157068   2.580   2.383  14.304 -0.0459 -0.4041 -0.7090
11859TIP3    H257069   2.720   2.325  14.303 -0.4769 -1.5846  1.5142
11860TIP3   OH257070   4.100   6.063   2.287 -0.1444 -0.8024 -0.2002
11860TIP3    H157071   4.150   6.124   2.341  0.2019 -1.5115  0.2984
11860TIP3    H257072   4.015   6.057   2.332 -0.2410 -0.5553 -0.3478
11861TIP3   OH257073   2.841   5.727  15.949 -0.4877 -0.4511 -0.4457
11861TIP3    H157074   2.873   5.771  16.028  2.3223  1.5183 -2.4744
11861TIP3    H257075   2.865   5.635  15.962  2.1849  0.2261  0.0957
11862TIP3   OH257076   0.322   0.523  15.549  1.0754 -0.0234  0.5503
11862TIP3    H157077   0.411   0.489  15.550  0.5713 -1.4239  0.5944
11862TIP3    H257078   0.281   0.488  15.628  0.5301  0.7517  0.6281
11863TIP3   OH257079   1.237   4.771  17.294 -0.3644 -0.5268 -0.2253
11863TIP3    H157080   1.166   4.716  17.326 -0.5701 -2.0965 -3.0123
11863TIP3    H257081   1.314   4.741  17.343 -1.2184 -0.2485  1.3487
11864TIP3   OH257082   5.414   5.879   0.429  0.1970 -0.1347 -0.2115
11864TIP3    H157083   5.338   5.842   0.472  1.9026 -2.1802  1.2327
11864TIP3    H257084   5.483   5.814   0.440  2.2018  1.6352 -1.3838
11865TIP3   OH257085   6.141   6.652  13.521  0.2618 -0.0058  0.8652
11865TIP3    H157086   6.168   6.578  13.575 -0.5204  0.1030  1.4268
11865TIP3    H257087   6.053   6.674  13.553 -1.4278 -1.6065 -2.1528
11866TIP3   OH257088   3.616   0.603  12.195  0.0941  0.7046 -0.9337
11866TIP3    H157089   3.524   0.623  12.176  0.2115  1.4093 -0.8186
11866TIP3    H257090   3.648   0.557  12.117 -0.5843 -0.3392 -0.6114
11867TIP3   OH257091   3.051   0.757  13.381  0.1752 -0.1139  0.0795
11867TIP3    H157092   2.980   0.822  13.385 -0.3261 -0.6881  0.7160
11867TIP3    H257093   3.112   0.785  13.449 -0.2577 -0.5563  0.6528
11868TIP3   OH257094   5.520   3.797   3.585 -0.4559 -0.1840 -0.7004
11868TIP3    H157095   5.574   3.782   3.663 -0.5246  2.6227  0.0013
11868TIP3    H257096   5.570   3.860   3.533 -1.1705 -0.7706 -2.1583
11869TIP3   OH257097   2.776   5.613   4.723  0.2855  0.5515  0.1736
11869TIP3    H157098   2.840   5.663   4.672  0.8984 -1.6330 -1.3768
11869TIP3    H257099   2.699   5.670   4.728  0.8860  1.6010 -1.6090
11870TIP3   OH257100   2.282   4.836  13.467  0.0288 -0.0500  0.8324
11870TIP3    H157101   2.368   4.824  13.426 -0.7160 -0.1993 -0.7476
11870TIP3    H257102   2.220   4.836  13.394 -1.1082  2.5283  1.6764
11871TIP3   OH257103   4.459   4.112   1.811 -0.5279  0.5364  0.0173
11871TIP3    H157104   4.386   4.051   1.805  1.7059 -2.3228 -0.0235
11871TIP3    H257105   4.536   4.060   1.789  1.4850  3.6028 -0.8269
11872TIP3   OH257106   2.392   3.693   0.211 -0.0852 -0.0835 -0.1877
11872TIP3    H157107   2.454   3.754   0.252  1.3444 -1.2015 -0.6403
11872TIP3    H257108   2.422   3.685   0.121 -0.6950 -0.8948 -0.3298
11873TIP3   OH257109   5.345   6.349  14.602 -0.4287  0.2725 -0.2541
11873TIP3    H157110   5.372   6.434  14.569  0.3819 -0.2540 -0.9780
11873TIP3    H257111   5.349   6.291  14.526 -0.7388 -0.4652  0.2818
11874TIP3   OH257112   3.358   3.857   3.983  0.0822  0.0557  0.6528
11874TIP3    H157113   3.272   3.815   3.974  0.3379  0.0241 -2.7913
11874TIP3    H257114   3.337   3.945   4.015 -1.1593 -0.2135  0.6607
11875TIP3   OH257115   0.375   0.840  15.946 -0.1160  0.3935 -0.0509
11875TIP3    H157116   0.382   0.932  15.972  0.0506 -0.0554  1.6503
11875TIP3    H257117   0.443   0.829  15.879  0.3501  1.3513  0.2377
11876TIP3   OH257118   5.635   1.371   2.856  0.2630  0.7560 -0.2360
11876TIP3    H157119   5.652   1.302   2.791 -3.0720  0.3167 -0.7832
11876TIP3    H257120   5.600   1.325   2.932 -0.0973  1.6758  0.1739
11877TIP3   OH257121   6.104   0.134  14.160  0.1501 -0.6161  0.6728
11877TIP3    H157122   6.175   0.073  14.140  0.0523 -0.3607 -0.5380
11877TIP3    H257123   6.035   0.112  14.097  0.6761  1.6558 -0.8232
11878TIP3   OH257124   6.472   3.283  15.859 -0.2508 -0.0625 -0.4959
11878TIP3    H157125   6.447   3.225  15.787  0.8344  1.1217 -1.8851
11878TIP3    H257126   6.390   3.324  15.887 -0.4019  1.4953 -2.9264
11879TIP3   OH257127   2.146   6.039   5.388 -0.2549 -0.1527 -0.3607
11879TIP3    H157128   2.211   6.097   5.429 -1.0005  0.9365 -0.6825
11879TIP3    H257129   2.116   6.087   5.311 -1.5441 -0.5753 -0.1453
11880TIP3   OH257130   2.276   0.825  13.102 -0.1021  0.8949  0.0962
11880TIP3    H157131   2.262   0.780  13.185  0.4864  1.6827  0.6351
11880TIP3    H257132   2.371   0.838  13.097 -0.0318  0.1322 -1.0956
11881TIP3   OH257133   3.997   0.034  15.312  0.3649  0.2060  0.6406
11881TIP3    H157134   3.935   0.094  15.354  1.1067  1.0749  0.5230
11881TIP3    H257135   3.950   0.002  15.235  0.1710  1.1477  0.3442
11882TIP3   OH257136   5.927   5.429   4.188 -0.3352  0.4057  0.1695
11882TIP3    H157137   5.870   5.376   4.133  0.1247 -0.0652  0.1449
11882TIP3    H257138   5.888   5.517   4.185 -0.7731  0.2006 -0.2439
11883TIP3   OH257139   2.058   5.098   3.898 -0.5113  0.4762 -0.2373
11883TIP3    H157140   2.114   5.103   3.975 -1.4021  1.4850  0.3824
11883TIP3    H257141   2.101   5.035   3.840  1.4773  1.5034  0.0284
11884TIP3   OH257142   3.288   5.919   3.732 -0.4927  0.7774  0.5416
11884TIP3    H157143   3.264   6.009   3.709  1.1775  1.1016 -0.0520
11884TIP3    H257144   3.381   5.924   3.755  0.3259 -1.1999 -1.9249
11885TIP3   OH257145   4.111   3.400   4.245  0.4696 -0.3377 -0.3668
11885TIP3    H157146   4.040   3.393   4.181 -0.6774  2.0140  0.5263
11885TIP3    H257147   4.169   3.467   4.209  0.8385 -0.3948  0.1182
11886TIP3   OH257148   0.941   0.876  15.751 -0.3783 -0.1273 -0.2946
11886TIP3    H157149   0.896   0.930  15.686  0.3503  0.6762 -0.1485
11886TIP3    H257150   0.927   0.921  15.834 -0.2320 -0.4621 -0.0871
11887TIP3   OH257151   3.085   5.340   4.017 -0.2097  0.2070 -0.4922
11887TIP3    H157152   3.049   5.356   4.104  0.3232 -0.5652 -0.1161
11887TIP3    H257153   3.171   5.381   4.018  0.3572 -0.9495 -0.1819
11888TIP3   OH257154   0.652   0.365   1.688  0.2385 -0.2815 -0.5763
11888TIP3    H157155   0.651   0.408   1.602  0.3139  2.9990  0.8879
11888TIP3    H257156   0.737   0.389   1.725 -0.5224 -0.0219  1.0905
11889TIP3   OH257157   6.448   6.047  13.814  0.1079 -0.0726 -0.3014
11889TIP3    H157158   6.534   6.010  13.834 -0.2136 -1.1290 -0.8130
11889TIP3    H257159   6.395   6.028  13.892 -0.1518 -1.0504 -0.6909
11890TIP3   OH257160   2.970   1.339  11.886 -0.7946 -1.0595  0.4441
11890TIP3    H157161   2.937   1.317  11.799 -1.2847 -2.2070  0.8981
11890TIP3    H257162   3.065   1.330  11.879 -0.8249 -1.0532  0.0058
11891TIP3   OH257163   6.048   0.619   4.172  0.5926 -0.2189 -0.5717
11891TIP3    H157164   5.993   0.548   4.138 -1.2154  1.1586 -0.6087
11891TIP3    H257165   6.085   0.659   4.093  1.2204 -0.7651 -0.5711
11892TIP3   OH257166   4.889   1.198  13.619 -0.4819  0.6462  0.1771
11892TIP3    H157167   4.833   1.165  13.549 -0.3650  0.3506  0.2196
11892TIP3    H257168   4.974   1.156  13.604 -0.4456  0.6096  0.4706
11893TIP3   OH257169   4.636   1.544  13.958 -0.4262  0.7280 -0.2673
11893TIP3    H157170   4.633   1.528  13.864  2.1967 -2.1359 -0.0231
11893TIP3    H257171   4.553   1.510  13.991 -1.1051  1.1730 -1.4671
11894TIP3   OH257172   2.752   1.614  14.266 -0.3111  0.6096 -0.3029
11894TIP3    H157173   2.707   1.697  14.251  0.3211  0.4792 -3.8118
11894TIP3    H257174   2.690   1.547  14.237  0.6498  0.2091 -1.5725
11895TIP3   OH257175   1.377   4.081   5.651 -0.1636 -0.0842 -0.2507
11895TIP3    H157176   1.470   4.065   5.637 -0.2155 -0.6213  0.0013
11895TIP3    H257177   1.333   4.019   5.593 -0.3731 -1.6988  1.5448
11896TIP3   OH257178   2.360   1.429   5.246  0.2674 -0.2977 -0.7179
11896TIP3    H157179   2.406   1.457   5.325 -0.4359  0.4329 -0.5503
11896TIP3    H257180   2.415   1.460   5.174 -0.0285  0.7234 -0.5202
11897TIP3   OH257181   0.236   4.476   1.321  0.7054  0.0236  0.1611
11897TIP3    H157182   0.308   4.426   1.359  0.3409  0.6062  1.6939
11897TIP3    H257183   0.278   4.538   1.262  1.3518 -0.4386  0.1264
11898TIP3   OH257184   4.388   5.075   1.545 -0.1565 -0.5850 -0.2330
11898TIP3    H157185   4.430   5.133   1.480 -0.5834 -0.3427 -0.2957
11898TIP3    H257186   4.319   5.030   1.497 -1.9904  1.2613  0.5223
11899TIP3   OH257187   1.216   1.135  15.116 -0.2546 -0.1953  0.7709
11899TIP3    H157188   1.291   1.120  15.058  0.6939  0.4841  1.7930
11899TIP3    H257189   1.144   1.087  15.075  0.4817 -0.0366 -0.7715
11900TIP3   OH257190   3.810   3.394   3.199  0.2285 -0.3186  0.3614
11900TIP3    H157191   3.717   3.406   3.221 -0.0279  0.2498 -0.9277
11900TIP3    H257192   3.818   3.300   3.180 -0.1327 -0.3350  0.2795
11901TIP3   OH257193   3.680   1.855   0.590  0.3306 -0.1917 -0.1050
11901TIP3    H157194   3.685   1.946   0.562  1.1246 -0.9072 -2.4810
11901TIP3    H257195   3.747   1.847   0.658  1.2596  0.6649 -0.8976
11902TIP3   OH257196   5.639   2.492  15.453 -0.1145 -0.6014  0.0168
11902TIP3    H157197   5.673   2.554  15.518 -0.6732 -0.6733  0.3775
11902TIP3    H257198   5.687   2.411  15.471  0.5145 -0.3225 -0.3637
11903TIP3   OH257199   0.667   0.823  16.469  0.3544  0.0807  0.0592
11903TIP3    H157200   0.613   0.802  16.394 -0.3081  0.1363  0.5158
11903TIP3    H257201   0.610   0.811  16.545  1.2728 -0.8580  0.6258
11904TIP3   OH257202   5.604   4.525   3.197 -0.8221 -0.6932  0.4678
11904TIP3    H157203   5.672   4.573   3.148 -1.9487 -1.7257 -2.2872
11904TIP3    H257204   5.527   4.581   3.191 -1.1461 -1.1372  0.4994
11905TIP3   OH257205   3.077   6.587   2.443 -0.1247  0.3304 -0.3379
11905TIP3    H157206   3.081   6.651   2.514  0.3086 -1.0119  0.8857
11905TIP3    H257207   2.987   6.590   2.412 -0.6783 -0.0250  1.1877
11906TIP3   OH257208   6.329   6.106   4.764  0.9458 -0.5220 -0.3574
11906TIP3    H157209   6.241   6.097   4.728 -0.0217  1.9116  1.1089
11906TIP3    H257210   6.355   6.196   4.744  2.0447 -0.3907  1.3609
11907TIP3   OH257211   6.519   5.374   1.681 -0.2103 -0.9070  0.4755
11907TIP3    H157212   6.528   5.445   1.617  0.7312 -1.5251 -0.0856
11907TIP3    H257213   6.453   5.406   1.742 -2.0545 -0.7802 -1.4603
11908TIP3   OH257214   0.865   2.008  16.650  0.3427  0.1369 -0.2732
11908TIP3    H157215   0.801   1.939  16.670 -0.4894  0.0198 -2.9074
11908TIP3    H257216   0.830   2.086  16.693 -0.5668 -0.3368 -0.1078
11909TIP3   OH257217   0.044   5.765  12.157 -0.2112  0.5651 -0.3881
11909TIP3    H157218  -0.011   5.724  12.223  0.0984  1.0015  0.1539
11909TIP3    H257219  -0.002   5.845  12.133  0.5178  1.3331  0.6324
11910TIP3   OH257220   3.120   4.904  12.334  0.4903  0.2274  0.5259
11910TIP3    H157221   3.097   4.976  12.393  0.8709 -0.2267  1.2435
11910TIP3    H257222   3.077   4.925  12.251  0.9587  1.5188  0.5896
11911TIP3   OH257223   5.069   5.004  16.682 -0.8789  0.3911  0.3867
11911TIP3    H157224   5.100   5.037  16.766 -0.8318 -1.2750  1.0779
11911TIP3    H257225   5.107   4.916  16.676 -0.1455  0.7853 -1.8064
11912TIP3   OH257226   3.297   2.623   0.740  0.2792  0.1425  0.5039
11912TIP3    H157227   3.390   2.600   0.752  0.6165 -0.0594 -1.9544
11912TIP3    H257228   3.253   2.539   0.729 -0.1608  0.2562  1.3172
11913TIP3   OH257229   1.228   3.595   5.413 -0.2888  0.2332 -0.0049
11913TIP3    H157230   1.145   3.620   5.372 -0.6954 -1.7738 -0.5189
11913TIP3    H257231   1.207   3.516   5.463  1.3551 -0.4703 -0.3533
11914TIP3   OH257232   3.748   1.788  16.540 -0.4905 -0.1406  0.5498
11914TIP3    H157233   3.793   1.831  16.612  0.3029  1.0131 -0.5836
11914TIP3    H257234   3.774   1.696  16.546  1.3387  0.3331  0.4576
11915TIP3   OH257235   2.819   2.121   4.051 -0.4101  0.0156  0.7083
11915TIP3    H157236   2.746   2.180   4.069 -0.7614  0.5025 -2.0221
11915TIP3    H257237   2.782   2.033   4.058 -0.9542  0.2299  0.5258
11916TIP3   OH257238   2.774   5.891  12.835  0.6090  0.8190 -0.2509
11916TIP3    H157239   2.827   5.847  12.901 -0.1412 -1.3132 -0.9785
11916TIP3    H257240   2.787   5.839  12.756 -2.7642 -0.0389 -0.3749
11917TIP3   OH257241   1.382   5.039   0.453 -0.4111  0.9031 -0.2045
11917TIP3    H157242   1.291   5.029   0.426 -0.6730 -1.1146  1.2086
11917TIP3    H257243   1.394   5.134   0.464 -3.0955  1.1142  1.9190
11918TIP3   OH257244   0.019   3.522   1.978 -0.1453  0.4932 -0.0794
11918TIP3    H157245   0.024   3.609   2.017  0.4142  1.6235 -2.5065
11918TIP3    H257246   0.089   3.472   2.021 -0.2707  1.3086  1.1111
11919TIP3   OH257247   2.975   5.474  12.023 -0.1419  0.4830 -0.0060
11919TIP3    H157248   2.939   5.416  12.090  1.9977 -0.3464  0.5069
11919TIP3    H257249   3.021   5.415  11.963 -0.5988  1.3884 -1.2844
11920TIP3   OH257250   5.684   2.821  15.566  0.5222  0.7854 -0.3965
11920TIP3    H157251   5.704   2.801  15.657  0.4010 -1.3774 -0.7855
11920TIP3    H257252   5.716   2.910  15.553  0.5206  1.1396  1.7431
11921TIP3   OH257253   0.839   0.608  15.813  0.0857  0.1284  0.8640
11921TIP3    H157254   0.835   0.617  15.908 -0.2764 -0.0791  0.8669
11921TIP3    H257255   0.867   0.695  15.782 -1.7138  0.7977  1.0208
11922TIP3   OH257256   4.226   5.128  14.216  0.1939 -0.4388  0.2581
11922TIP3    H157257   4.281   5.206  14.210  1.0113 -1.0773 -0.9356
11922TIP3    H257258   4.283   5.062  14.254 -0.1760 -0.7309  0.3047
11923TIP3   OH257259   6.765   3.900   1.495 -0.1237 -0.1640  0.5112
11923TIP3    H157260   6.732   3.864   1.578  0.3712  0.5501  1.0356
11923TIP3    H257261   6.749   3.994   1.502 -1.5907 -0.2751 -0.9241
11924TIP3   OH257262   1.830   6.218  13.792 -0.0825  0.1456 -0.0639
11924TIP3    H157263   1.771   6.188  13.861  1.0523 -0.9013  0.4954
11924TIP3    H257264   1.900   6.264  13.839  0.6794 -0.5368 -0.5163
11925TIP3   OH257265   4.673   0.088   3.623  0.1742  0.0456 -0.7537
11925TIP3    H157266   4.708  -0.000   3.638  0.1062 -0.0150 -0.9463
11925TIP3    H257267   4.589   0.073   3.581 -0.6320  0.1564  0.7479
11926TIP3   OH257268   4.189   5.650  12.058 -0.2226  0.0241  0.0504
11926TIP3    H157269   4.191   5.579  11.993 -0.2799 -1.5104  1.6282
11926TIP3    H257270   4.228   5.725  12.014 -0.8097 -0.7806 -1.9324
11927TIP3   OH257271   2.870   6.527  13.682  0.0788 -0.0653  0.2417
11927TIP3    H157272   2.926   6.449  13.690 -0.2783 -0.2026  1.5312
11927TIP3    H257273   2.913   6.580  13.615  0.2850 -1.3994 -0.7445
11928TIP3   OH257274   6.566   3.011   6.286 -0.5183  0.0193 -0.6711
11928TIP3    H157275   6.647   3.053   6.256  0.0995 -0.8386 -0.2508
11928TIP3    H257276   6.594   2.953   6.357 -1.5947  0.1722 -0.0976
11929TIP3   OH257277   4.495   6.522   0.244 -0.9413 -0.1266  0.0806
11929TIP3    H157278   4.489   6.564   0.329  0.4162  1.0187 -0.3370
11929TIP3    H257279   4.419   6.554   0.195 -1.2119 -0.0514  0.5489
11930TIP3   OH257280   0.951   6.126   4.960  0.8284 -0.0997 -0.2876
11930TIP3    H157281   0.980   6.101   4.872  1.2064  0.0118 -0.1959
11930TIP3    H257282   0.860   6.153   4.948  1.2765  1.2356 -0.8939
11931TIP3   OH257283   5.753   2.589  17.228 -0.2491  0.1964 -0.2487
11931TIP3    H157284   5.790   2.501  17.230  0.5953  0.5649  0.5968
11931TIP3    H257285   5.672   2.582  17.278 -0.9867 -0.4399 -1.4819
11932TIP3   OH257286   3.859   0.502   4.084 -0.2154 -0.0550  0.1423
11932TIP3    H157287   3.888   0.561   4.154  0.4291 -0.9799  0.6742
11932TIP3    H257288   3.933   0.500   4.023 -0.1748 -0.4259  0.2042
11933TIP3   OH257289   1.617   2.876  11.102  0.0077 -0.9385 -0.3449
11933TIP3    H157290   1.696   2.864  11.049 -0.2716  1.4380 -1.4226
11933TIP3    H257291   1.646   2.929  11.176 -0.7014  0.8640 -1.2948
11934TIP3   OH257292   4.884   6.717   3.436 -0.6503 -0.0584  0.4290
11934TIP3    H157293   4.815   6.737   3.499 -1.4744  1.0975 -0.7739
11934TIP3    H257294   4.851   6.752   3.353 -0.0624 -2.4223 -0.8915
11935TIP3   OH257295   4.554   0.093  15.156  0.2950  0.1049  1.0497
11935TIP3    H157296   4.468   0.051  15.154 -0.2388  1.1691  1.1103
11935TIP3    H257297   4.560   0.141  15.073  1.7744 -1.7235  0.0070
11936TIP3   OH257298   3.607   5.645   4.121  0.0353 -0.5345  0.2675
11936TIP3    H157299   3.660   5.722   4.139  0.2466 -0.2909 -1.2718
11936TIP3    H257300   3.554   5.633   4.199  2.1163 -0.6082  1.7513
11937TIP3   OH257301   4.039   3.830  13.250 -0.7437  0.1307 -0.9335
11937TIP3    H157302   4.063   3.737  13.245 -0.0222  0.2667 -0.2444
11937TIP3    H257303   3.949   3.830  13.283 -1.6878 -0.3829 -3.2457
11938TIP3   OH257304   5.484   6.421   2.113 -0.4521  0.0915 -0.0525
11938TIP3    H157305   5.476   6.385   2.201 -2.0356 -0.2930 -0.3133
11938TIP3    H257306   5.578   6.419   2.094 -0.3138 -2.6349  0.4811
11939TIP3   OH257307   4.860   2.353  16.827  0.4983  0.2051  0.1947
11939TIP3    H157308   4.768   2.377  16.814 -0.1806 -1.9489  0.7226
11939TIP3    H257309   4.900   2.364  16.741  0.1941  2.6853  0.2767
11940TIP3   OH257310   3.825   5.471   1.490 -0.3127  0.4793  0.1367
11940TIP3    H157311   3.782   5.403   1.541  2.0892 -2.1700 -1.0876
11940TIP3    H257312   3.901   5.496   1.542  1.2507 -1.0760 -1.2576
11941TIP3   OH257313   0.411   6.522   1.747  0.5471  0.0174 -0.5125
11941TIP3    H157314   0.455   6.439   1.767 -0.0620 -0.4652 -1.1059
11941TIP3    H257315   0.435   6.540   1.656  1.4483  1.0009 -0.0986
11942TIP3   OH257316   2.764   5.537  13.983 -0.1416  0.9880 -0.2336
11942TIP3    H157317   2.781   5.593  13.906  1.3947  1.0475  0.1093
11942TIP3    H257318   2.825   5.570  14.049  1.0978 -1.3102 -0.1397
11943TIP3   OH257319   1.784   1.650   1.180 -0.3255  0.0326  0.6060
11943TIP3    H157320   1.691   1.664   1.163  0.1132  0.2081 -1.9530
11943TIP3    H257321   1.793   1.555   1.186 -0.5041 -0.0400 -0.2297
11944TIP3   OH257322   5.390   1.832  12.211 -0.1529  0.3388  0.2599
11944TIP3    H157323   5.302   1.802  12.232 -0.1500 -0.3498 -0.6613
11944TIP3    H257324   5.440   1.815  12.291 -0.2340 -1.8401 -0.0893
11945TIP3   OH257325   1.205   3.104  12.416 -0.1421 -0.1402 -0.0371
11945TIP3    H157326   1.197   3.094  12.511 -0.4893  1.7296  0.1649
11945TIP3    H257327   1.136   3.048  12.381  0.5679 -1.5780  0.7367
11946TIP3   OH257328   1.254   1.179  16.721 -0.3629 -0.9110  0.4128
11946TIP3    H157329   1.278   1.091  16.751  0.3586 -0.8739 -0.0424
11946TIP3    H257330   1.305   1.193  16.642 -0.9507 -0.3222  0.1255
11947TIP3   OH257331   6.208   2.917   4.842 -0.5712 -0.3888  0.2065
11947TIP3    H157332   6.175   2.843   4.791 -0.3092  0.0837 -0.6743
11947TIP3    H257333   6.294   2.936   4.804 -0.3256 -0.0908  0.8995
11948TIP3   OH257334   0.407   1.912   2.506  0.0117  0.0218  0.1694
11948TIP3    H157335   0.339   1.979   2.516  0.1380  0.0915  0.5672
11948TIP3    H257336   0.489   1.961   2.504  0.1727 -0.1898  1.4006
11949TIP3   OH257337   6.810   5.566  14.546  0.1072 -0.0842 -0.1740
11949TIP3    H157338   6.880   5.510  14.511 -0.1906 -0.0139 -0.9079
11949TIP3    H257339   6.731   5.512  14.540  0.1357 -0.2776  0.9472
11950TIP3   OH257340   6.089   3.311   2.783  0.0603 -0.3218 -0.2890
11950TIP3    H157341   6.028   3.354   2.722 -0.3214  0.5997  0.7223
11950TIP3    H257342   6.146   3.259   2.726 -2.4641 -2.3121 -1.2153
11951TIP3   OH257343   3.975   2.844  13.668 -0.0008  0.0975 -0.0147
11951TIP3    H157344   4.014   2.760  13.692 -3.5106 -1.5787  0.4852
11951TIP3    H257345   3.938   2.877  13.750 -1.2996  0.5782 -0.7652
11952TIP3   OH257346   6.071   6.440  12.640  0.6957  0.1634  0.3595
11952TIP3    H157347   6.016   6.510  12.675 -1.6284 -1.3784 -0.0041
11952TIP3    H257348   6.157   6.456  12.678 -0.3068  1.8926  2.0760
11953TIP3   OH257349   6.300   4.378  12.142 -0.0257  0.7972 -0.2640
11953TIP3    H157350   6.254   4.421  12.070 -2.5894 -2.1419 -0.6273
11953TIP3    H257351   6.383   4.349  12.104 -0.8627  0.2520 -1.7752
11954TIP3   OH257352   0.920   3.989  11.268 -0.4369 -0.5424  0.1107
11954TIP3    H157353   0.943   4.079  11.291 -0.5554 -0.5194  0.1373
11954TIP3    H257354   0.964   3.973  11.185  0.1264 -0.6747  0.4265
11955TIP3   OH257355   3.341   0.711  11.281  0.3090 -0.4814 -0.4401
11955TIP3    H157356   3.369   0.687  11.369 -2.0247 -0.6045  0.3256
11955TIP3    H257357   3.362   0.804  11.273 -0.0189 -0.3205  0.4906
11956TIP3   OH257358   2.858   3.137   0.656 -0.0655 -0.0252  0.1148
11956TIP3    H157359   2.805   3.207   0.695  1.4040  0.0546  2.1075
11956TIP3    H257360   2.927   3.184   0.609  0.0228 -0.1350  0.1358
11957TIP3   OH257361   5.310   1.361   6.091 -0.2776  0.4442 -0.1234
11957TIP3    H157362   5.316   1.369   5.996 -1.3017 -0.7716 -0.3086
11957TIP3    H257363   5.286   1.448   6.121  0.8567  1.0436 -0.8936
11958TIP3   OH257364   5.955   1.606  14.494 -0.3286 -0.1318  0.1928
11958TIP3    H157365   6.016   1.627  14.565 -0.5260 -0.5696  0.4952
11958TIP3    H257366   5.972   1.673  14.428  2.9298 -2.1094 -1.2719
11959TIP3   OH257367   6.526   4.198  15.614 -0.6285  0.2816  0.2223
11959TIP3    H157368   6.607   4.214  15.663  0.0222  0.5775 -0.9106
11959TIP3    H257369   6.551   4.133  15.549 -1.4310  0.0338  0.1551
11960TIP3   OH257370   1.527   5.061   6.144 -0.7454 -0.2156 -0.5182
11960TIP3    H157371   1.581   5.027   6.215 -0.3199  0.0785 -0.6911
11960TIP3    H257372   1.532   4.994   6.076  1.2893  0.7770 -1.4432
11961TIP3   OH257373   4.783   0.262   2.554  1.2512 -0.0859 -0.3081
11961TIP3    H157374   4.755   0.354   2.551  0.2377 -0.2779  1.6137
11961TIP3    H257375   4.746   0.223   2.474  0.1169  0.7729 -0.2322
11962TIP3   OH257376   3.298   0.159  13.187 -1.0164  0.3899 -0.2696
11962TIP3    H157377   3.377   0.187  13.141 -0.2649 -0.4427  0.4743
11962TIP3    H257378   3.238   0.233  13.178  0.0211  1.2371 -0.4295
11963TIP3   OH257379   0.773   3.460  11.423 -0.8749  0.4306 -0.2854
11963TIP3    H157380   0.797   3.467  11.331  0.9836  1.9278  0.2552
11963TIP3    H257381   0.753   3.367  11.435  0.8533 -0.1813 -1.7415
11964TIP3   OH257382   0.797   5.970  15.714 -0.5452 -0.0130 -0.3333
11964TIP3    H157383   0.805   5.930  15.800  0.9819  0.7611 -0.0789
11964TIP3    H257384   0.794   5.896  15.653  0.0292 -0.5484  0.2735
11965TIP3   OH257385   2.617   5.101   4.845 -0.2842 -0.9326 -0.2373
11965TIP3    H157386   2.554   5.163   4.808  0.3655  0.3757  0.7423
11965TIP3    H257387   2.698   5.119   4.797  0.3306  0.1658  1.1374
11966TIP3   OH257388   1.441   5.844   1.948 -0.3513 -0.4740  0.1366
11966TIP3    H157389   1.481   5.890   2.022 -1.5879  1.5519 -0.3880
11966TIP3    H257390   1.357   5.813   1.981 -0.9600  0.5392 -0.4120
11967TIP3   OH257391   2.103   1.493   5.416  0.2544 -0.0310  0.9070
11967TIP3    H157392   2.188   1.512   5.376 -0.2555  2.4555  0.8034
11967TIP3    H257393   2.061   1.432   5.357  1.5048 -0.3758  0.3437
11968TIP3   OH257394   4.810   5.223  13.841 -0.1142  0.2145  0.3904
11968TIP3    H157395   4.830   5.304  13.796 -1.4049  1.0109  1.1888
11968TIP3    H257396   4.895   5.188  13.868  0.3805  2.0356  1.2837
11969TIP3   OH257397   4.598   5.098   5.384 -0.9773  0.5896 -0.2131
11969TIP3    H157398   4.620   5.005   5.393 -0.3198  0.8285  0.8272
11969TIP3    H257399   4.637   5.139   5.461 -0.5515  1.8632 -1.0718
11970TIP3   OH257400   0.062   4.168   5.015 -0.3906 -0.0634 -0.5149
11970TIP3    H157401   0.006   4.237   4.979 -1.3600 -0.7118 -0.2921
11970TIP3    H257402   0.018   4.140   5.096 -0.6773 -1.7680 -1.2143
11971TIP3   OH257403   0.144   0.093   6.089  0.3456  0.9329  0.4963
11971TIP3    H157404   0.139   0.082   6.184 -1.0454  1.9057  0.5693
11971TIP3    H257405   0.151   0.188   6.076  2.4513  0.7037 -0.3403
11972TIP3   OH257406   5.231   1.144  13.761  0.2289  0.4159  0.1237
11972TIP3    H157407   5.233   1.057  13.800 -0.4274  0.2014 -0.3140
11972TIP3    H257408   5.205   1.202  13.832 -0.9976  0.0234  0.0126
11973TIP3   OH257409   5.297   4.748   1.947 -0.5212 -0.0710 -0.2981
11973TIP3    H157410   5.214   4.771   1.989  0.3852  3.0624  0.0836
11973TIP3    H257411   5.323   4.665   1.987 -1.7180  0.7012  2.2887
11974TIP3   OH257412   1.722   5.205  13.927  0.0600  0.3758  0.2348
11974TIP3    H157413   1.691   5.255  14.003 -2.2911 -1.3795  0.5470
11974TIP3    H257414   1.690   5.255  13.852 -0.6067  0.3622  0.4983
11975TIP3   OH257415   1.297   2.479  13.741 -0.0861  0.0648  0.2720
11975TIP3    H157416   1.203   2.496  13.733 -0.2399 -1.0270 -0.3602
11975TIP3    H257417   1.311   2.471  13.835 -0.8647 -0.9833  0.3213
11976TIP3   OH257418   4.340   4.282  17.051 -1.2566  0.8085  0.5306
11976TIP3    H157419   4.318   4.327  17.133 -1.9073  1.0394  0.2361
11976TIP3    H257420   4.261   4.232  17.029 -0.6971 -0.1346  0.6167
11977TIP3   OH257421   0.691   3.563  16.563 -0.0202  0.5341  0.6812
11977TIP3    H157422   0.635   3.557  16.640  1.9438  2.7446  2.4266
11977TIP3    H257423   0.780   3.553  16.596  0.8374  0.3904 -1.4754
11978TIP3   OH257424   3.445   1.783  16.596 -0.7835 -0.8161  0.1520
11978TIP3    H157425   3.430   1.847  16.666 -3.5998 -2.2205  0.9689
11978TIP3    H257426   3.540   1.785  16.582 -0.3845  1.0785  2.4742
11979TIP3   OH257427   1.860   1.341   2.612 -0.4287 -0.0382  0.4777
11979TIP3    H157428   1.796   1.378   2.552 -3.7409 -1.2175  2.9648
11979TIP3    H257429   1.899   1.417   2.655 -2.0781  0.7477  0.6629
11980TIP3   OH257430   2.995   2.688   1.992 -0.6032  0.3328 -0.1743
11980TIP3    H157431   2.941   2.760   2.027 -0.7403  0.6902 -1.1078
11980TIP3    H257432   3.073   2.731   1.958 -0.4112 -0.0301 -0.1893
11981TIP3   OH257433   5.753   2.127  13.355 -0.2325 -0.4297 -0.1250
11981TIP3    H157434   5.699   2.188  13.405  0.4492  0.9120 -0.9529
11981TIP3    H257435   5.717   2.130  13.266  0.3187 -0.6068 -0.3599
11982TIP3   OH257436   2.413   4.263  11.494 -0.0434 -0.9180  0.2242
11982TIP3    H157437   2.360   4.269  11.574  0.7349 -0.9960  0.7479
11982TIP3    H257438   2.390   4.178  11.457 -1.7247 -0.1653 -0.5932
11983TIP3   OH257439   1.117   6.685   1.112 -0.1665 -0.8263 -0.2909
11983TIP3    H157440   1.120   6.776   1.084 -1.2131 -0.6793  0.0195
11983TIP3    H257441   1.208   6.655   1.108  0.1659  0.1829 -0.5333
11984TIP3   OH257442   4.088   5.894   3.423  0.6900  0.3058  0.1317
11984TIP3    H157443   4.041   5.830   3.477 -0.5493  0.5177 -0.6476
11984TIP3    H257444   4.122   5.843   3.349  0.6750  0.3525  0.0927
11985TIP3   OH257445   5.254   3.686  16.620  0.1272 -0.2023  0.6195
11985TIP3    H157446   5.295   3.739  16.688 -1.2406  0.0945  1.2539
11985TIP3    H257447   5.319   3.618  16.600  1.5994  1.2284  0.3340
11986TIP3   OH257448   3.293   0.140  17.016  0.4367 -0.0779 -0.5330
11986TIP3    H157449   3.197   0.136  17.019  0.3093  0.9084 -2.0509
11986TIP3    H257450   3.316   0.201  17.086 -0.0410 -0.3106 -0.1649
11987TIP3   OH257451   6.002   0.659   5.809 -0.1130 -0.6802  0.1056
11987TIP3    H157452   5.988   0.578   5.858 -0.2855 -0.8509 -0.2299
11987TIP3    H257453   6.064   0.635   5.740 -1.5227 -0.9685 -1.1112
11988TIP3   OH257454   1.272   5.513  13.933  0.5404  0.0298  0.1123
11988TIP3    H157455   1.204   5.574  13.961  0.1726  0.2169 -1.1259
11988TIP3    H257456   1.288   5.535  13.841  2.1873 -0.0978  0.3261
11989TIP3   OH257457   2.441   5.788  10.956  0.0190 -0.2800  0.5941
11989TIP3    H157458   2.521   5.832  10.986  0.1966 -1.0234  1.2506
11989TIP3    H257459   2.376   5.810  11.023 -0.1759 -0.1597  0.3668
11990TIP3   OH257460   2.745   0.981  12.949  0.8671  0.3188 -0.2278
11990TIP3    H157461   2.660   1.013  12.918  0.4564 -0.1693  0.3706
11990TIP3    H257462   2.778   1.050  13.007  1.2890  0.8963 -1.1303
11991TIP3   OH257463   0.717   3.729  12.864 -0.2156 -0.1506 -0.3719
11991TIP3    H157464   0.642   3.671  12.879  0.1312  0.1444  3.2470
11991TIP3    H257465   0.703   3.803  12.922  2.9659 -0.2057  0.6720
11992TIP3   OH257466   1.399   3.780   1.174  0.6532  0.0344  0.2467
11992TIP3    H157467   1.383   3.834   1.097 -0.2902  1.1599  1.1871
11992TIP3    H257468   1.459   3.712   1.144 -0.8328 -0.4353 -1.8320
11993TIP3   OH257469   2.480   4.076   4.524 -0.3405  0.4320  0.6160
11993TIP3    H157470   2.434   4.048   4.445 -0.2610 -1.7340  1.2671
11993TIP3    H257471   2.411   4.087   4.590 -0.2601  0.6784  0.6596
11994TIP3   OH257472   5.398   4.681  16.037 -0.3737 -0.2194  0.2741
11994TIP3    H157473   5.341   4.621  16.084 -0.6678 -0.1970 -0.0462
11994TIP3    H257474   5.365   4.679  15.947 -1.1840  1.3804  0.4990
11995TIP3   OH257475   0.333   4.308  17.043  0.2180 -0.1915 -0.5877
11995TIP3    H157476   0.320   4.376  16.977 -0.8530  0.0770 -0.1104
11995TIP3    H257477   0.426   4.315  17.066  0.1982  0.8818 -0.7853
11996TIP3   OH257478   0.094   6.744  14.846  0.0092 -0.4576 -0.0428
11996TIP3    H157479   0.033   6.708  14.782  0.0660  0.6254 -0.7385
11996TIP3    H257480   0.044   6.748  14.928 -0.4116 -0.8284 -0.2765
11997TIP3   OH257481   4.428   3.871   2.666  0.5483 -0.5662  0.0897
11997TIP3    H157482   4.490   3.840   2.732  1.0501 -0.7338 -0.4492
11997TIP3    H257483   4.421   3.965   2.680  0.2995 -0.6695  0.6704
11998TIP3   OH257484   6.677   2.311  11.104  0.1987 -0.4009  0.1894
11998TIP3    H157485   6.738   2.253  11.058  0.6415 -0.6935  1.1315
11998TIP3    H257486   6.594   2.262  11.104  0.5307 -0.9817  0.8465
11999TIP3   OH257487   0.632   2.815   4.607 -0.6615 -0.2048  0.4945
11999TIP3    H157488   0.723   2.842   4.623 -0.6633 -0.9189  1.9480
11999TIP3    H257489   0.632   2.721   4.624 -1.2501 -0.6370 -1.6150
12000TIP3   OH257490   5.705   5.049  11.015  0.1957 -0.1083 -0.1314
12000TIP3    H157491   5.706   5.020  10.924 -0.6222  0.4072 -0.3180
12000TIP3    H257492   5.628   5.006  11.053 -1.6133  2.4247 -0.6550
12001TIP3   OH257493   1.772   3.725  15.325  0.5387 -0.0702 -0.3384
12001TIP3    H157494   1.833   3.695  15.257 -0.0706 -0.2705 -0.8112
12001TIP3    H257495   1.704   3.658  15.327 -0.3894  0.8295 -0.8042
12002TIP3   OH257496   6.701   4.046  16.700  0.2035 -0.0286 -0.1693
12002TIP3    H157497   6.777   4.078  16.748  0.0583  0.6323 -0.3762
12002TIP3    H257498   6.735   3.974  16.646  0.7016  0.3383 -0.3499
12003TIP3   OH257499   6.090   5.383   2.083  0.4609 -0.1600 -0.4154
12003TIP3    H157500   6.013   5.372   2.139  0.0426 -1.0678 -1.1444
12003TIP3    H257501   6.163   5.392   2.144 -0.2292  0.8911  0.2923
12004TIP3   OH257502   3.648   6.140  16.482 -0.0881  0.0497 -0.1825
12004TIP3    H157503   3.633   6.058  16.434  2.5290 -1.5204  1.4340
12004TIP3    H257504   3.601   6.206  16.431 -1.5489 -2.2697 -2.0857
12005TIP3   OH257505   3.902   6.369  15.115  0.1233 -0.3014  0.4548
12005TIP3    H157506   3.915   6.287  15.162  3.6333  0.6330  1.3719
12005TIP3    H257507   3.987   6.412  15.115 -1.8255  4.2521  1.6709
12006TIP3   OH257508   0.642   4.942   2.225 -0.2358 -0.2674 -0.4473
12006TIP3    H157509   0.621   4.854   2.194 -0.6505 -0.9905  1.7154
12006TIP3    H257510   0.733   4.956   2.198  0.3462 -2.0090  0.4465
12007TIP3   OH257511   3.522   1.416   5.903 -0.1247  0.8696  0.6479
12007TIP3    H157512   3.432   1.440   5.928 -0.3579 -0.3728  1.0810
12007TIP3    H257513   3.529   1.324   5.927  0.0774 -0.0995 -2.7405
12008TIP3   OH257514   3.423   5.140   2.527 -0.0386 -0.1605  0.4018
12008TIP3    H157515   3.420   5.115   2.619  2.1793 -0.4758  0.4553
12008TIP3    H257516   3.438   5.057   2.481 -0.3331  0.1041 -0.1773
12009TIP3   OH257517   6.231   1.303   1.585  0.2392 -0.0640  0.5591
12009TIP3    H157518   6.207   1.394   1.603  0.6602  0.1414  0.1064
12009TIP3    H257519   6.189   1.253   1.654 -0.8226  0.3722  0.2432
12010TIP3   OH257520   5.548   2.243  11.828  0.0201  0.6538 -0.6767
12010TIP3    H157521   5.542   2.264  11.735  0.6023  1.1533 -0.6117
12010TIP3    H257522   5.476   2.182  11.844 -0.3469  0.8978 -1.3573
12011TIP3   OH257523   6.196   6.275   3.776 -0.5295  0.3109  0.4253
12011TIP3    H157524   6.192   6.341   3.707  0.9683  1.2314  1.1551
12011TIP3    H257525   6.135   6.306   3.842  1.2120  1.8298  1.4163
12012TIP3   OH257526   4.101   0.152  16.535  0.1850 -0.1212 -0.2604
12012TIP3    H157527   4.144   0.150  16.450  0.1734  0.4752 -0.2864
12012TIP3    H257528   4.165   0.113  16.595 -0.0374 -1.0951 -0.6283
12013TIP3   OH257529   4.305   1.887   2.902 -0.2874  0.1591 -0.4058
12013TIP3    H157530   4.350   1.852   2.979 -0.8001  0.9063  0.2469
12013TIP3    H257531   4.246   1.817   2.874  2.1161 -1.3937 -2.0816
12014TIP3   OH257532   0.697   3.894   2.421 -0.1512  0.1681  0.1069
12014TIP3    H157533   0.743   3.972   2.452 -0.2884  0.4320 -0.3507
12014TIP3    H257534   0.648   3.864   2.498 -0.0999  0.5318  0.2845
12015TIP3   OH257535   5.498   4.237  12.998 -0.6817 -0.0989 -0.0328
12015TIP3    H157536   5.515   4.282  12.915 -1.0280  1.5282  0.7370
12015TIP3    H257537   5.429   4.289  13.039 -1.2790 -1.5168  0.7980
12016TIP3   OH257538   4.832   2.166   5.053  0.4085  0.2265 -0.4403
12016TIP3    H157539   4.849   2.083   5.008  0.6520 -0.3015  0.5858
12016TIP3    H257540   4.856   2.234   4.990  1.2122 -0.4877 -0.9205
12017TIP3   OH257541   5.686   0.990  12.557  0.1872 -0.0880  0.5540
12017TIP3    H157542   5.707   1.064  12.501 -0.5732  0.4147  0.9287
12017TIP3    H257543   5.623   1.023  12.620 -0.5461 -1.1773  0.4244
12018TIP3   OH257544   4.313   6.541  13.477 -0.5222  0.0177  0.6586
12018TIP3    H157545   4.256   6.497  13.414  1.2870 -2.8348  0.7871
12018TIP3    H257546   4.367   6.600  13.424  0.1715 -1.4686 -0.3649
12019TIP3   OH257547   3.663   3.472   3.994  0.5310  0.4893 -0.2394
12019TIP3    H157548   3.654   3.513   3.908 -2.0416 -0.3845 -0.4557
12019TIP3    H257549   3.739   3.414   3.985  1.5338  1.8670 -1.2519
12020TIP3   OH257550   5.691   4.890  15.388  0.5370 -0.0841 -0.4067
12020TIP3    H157551   5.715   4.853  15.473  0.8908 -0.2872 -0.5925
12020TIP3    H257552   5.645   4.819  15.343  1.2441 -0.3186 -0.7753
12021TIP3   OH257553   4.941   4.375   0.150 -0.1750 -0.2946  0.2369
12021TIP3    H157554   5.003   4.402   0.218  0.1184  2.0509 -0.8649
12021TIP3    H257555   4.879   4.447   0.145 -1.1117 -1.1539 -0.9297
12022TIP3   OH257556   6.469   0.167  15.646  0.3852  0.2711 -0.6313
12022TIP3    H157557   6.536   0.230  15.675 -0.9327  1.7892 -0.7800
12022TIP3    H257558   6.486   0.088  15.699  1.9618  0.7919 -0.3058
12023TIP3   OH257559   1.101   3.478   2.335  0.4215 -0.0665 -0.3575
12023TIP3    H157560   1.117   3.515   2.421  0.1437 -1.0588  0.1371
12023TIP3    H257561   1.161   3.525   2.277 -0.1173  1.3230  0.1875
12024TIP3   OH257562   3.876   4.608   1.537 -0.1683  0.3238 -0.3380
12024TIP3    H157563   3.840   4.524   1.508 -0.2335  0.6811 -1.3578
12024TIP3    H257564   3.965   4.587   1.567 -0.1236 -0.0923 -0.7512
12025TIP3   OH257565   2.754   3.126   4.439  0.0257 -0.3156 -0.1536
12025TIP3    H157566   2.825   3.062   4.424 -0.2313 -0.7170  0.3211
12025TIP3    H257567   2.690   3.079   4.493  0.7264  0.9378  1.8933
12026TIP3   OH257568   5.135   0.400   3.228  1.0748 -0.1876 -0.4325
12026TIP3    H157569   5.136   0.392   3.324 -0.6034 -1.4524 -0.4872
12026TIP3    H257570   5.043   0.417   3.207  1.4610  0.2645 -1.8331
12027TIP3   OH257571   1.468   6.715   5.473  0.3207  0.2953 -0.6889
12027TIP3    H157572   1.508   6.802   5.483  1.3298 -0.1205 -0.9251
12027TIP3    H257573   1.528   6.657   5.520 -0.5830 -0.2179 -0.1572
12028TIP3   OH257574   3.419   2.071  12.016  0.1166  0.4529  0.4717
12028TIP3    H157575   3.506   2.106  12.036  0.3647 -0.1052  0.3867
12028TIP3    H257576   3.388   2.034  12.099 -1.1546  2.9324  1.2009
12029TIP3   OH257577   0.477   1.717   2.149  0.0931 -1.1424 -0.1554
12029TIP3    H157578   0.415   1.790   2.156  2.4606  0.8975  1.0150
12029TIP3    H257579   0.503   1.717   2.057 -0.6349 -1.1313 -0.3669
12030TIP3   OH257580   6.794   2.456  12.437 -0.8344  0.4071 -0.5245
12030TIP3    H157581   6.822   2.376  12.482 -1.8381  1.0962  1.4446
12030TIP3    H257582   6.817   2.526  12.498 -1.8201  1.4403 -1.3022
12031TIP3   OH257583   3.469   3.059   5.523  0.1975 -0.1679 -0.2967
12031TIP3    H157584   3.415   2.980   5.516  0.1140  0.0102 -2.2391
12031TIP3    H257585   3.424   3.114   5.587 -1.4855 -0.3753 -1.2472
12032TIP3   OH257586   0.798   3.967  12.760 -0.3109 -0.2955  0.7306
12032TIP3    H157587   0.758   3.884  12.786  0.4379 -0.7905  0.3361
12032TIP3    H257588   0.752   4.033  12.812 -0.8642 -0.9588  1.1031
12033TIP3   OH257589   3.992   0.303  13.869  0.2125  0.8099 -0.4787
12033TIP3    H157590   4.047   0.241  13.821 -0.2916 -0.6648  0.7603
12033TIP3    H257591   3.908   0.259  13.877 -0.8170  2.5359 -1.3065
12034TIP3   OH257592   5.991   2.953  15.590 -0.3581 -0.3542  0.0379
12034TIP3    H157593   5.997   2.860  15.568 -2.7157  0.0916 -3.3466
12034TIP3    H257594   6.050   2.997  15.529 -0.3518  0.4789  0.6165
12035TIP3   OH257595   4.447   5.511   3.663 -0.2444  0.2074  0.2649
12035TIP3    H157596   4.495   5.548   3.737 -0.3504 -1.2280  1.0851
12035TIP3    H257597   4.483   5.556   3.587 -1.5576  3.2314  1.2847
12036TIP3   OH257598   2.419   3.412  16.442  0.1788 -0.2503  0.2512
12036TIP3    H157599   2.456   3.362  16.514  3.1437  2.7343  1.0525
12036TIP3    H257600   2.360   3.475  16.483  0.7046  0.4609 -0.0540
12037TIP3   OH257601   6.053   4.097   3.092 -0.6914  0.1574 -0.1547
12037TIP3    H157602   5.970   4.142   3.074 -0.2083  1.5205  0.8974
12037TIP3    H257603   6.027   4.016   3.137 -1.4127  1.2546  1.4935
12038TIP3   OH257604   1.449   1.125   4.660  0.3410  0.0215 -0.2424
12038TIP3    H157605   1.512   1.053   4.668  0.3528 -0.3259 -2.6107
12038TIP3    H257606   1.379   1.103   4.722  0.2905 -2.1045 -0.9602
12039TIP3   OH257607   0.590   5.633  16.178 -0.5894  0.4945  0.7289
12039TIP3    H157608   0.656   5.635  16.247 -0.5038 -1.9094  0.7922
12039TIP3    H257609   0.507   5.650  16.223 -0.2481  1.7831  0.9192
12040TIP3   OH257610   1.709   4.181   4.791 -0.6386 -0.4435 -0.2843
12040TIP3    H157611   1.798   4.173   4.756 -0.9685 -1.2260 -0.9683
12040TIP3    H257612   1.703   4.272   4.821 -0.1942  0.1302 -1.8498
12041TIP3   OH257613   2.226   6.166  16.978 -0.1248 -0.8765 -0.2631
12041TIP3    H157614   2.319   6.140  16.976  0.4163  0.9426 -1.5072
12041TIP3    H257615   2.200   6.169  16.886 -0.7672  0.7218 -0.0600
12042TIP3   OH257616   5.135   5.595  15.193  0.0535 -0.1355  0.0393
12042TIP3    H157617   5.119   5.603  15.287 -0.3224  1.9908 -0.1724
12042TIP3    H257618   5.226   5.621  15.182 -0.3537  1.1544 -0.3563
12043TIP3   OH257619   4.706   2.949   4.038 -0.0555  0.4311  0.1190
12043TIP3    H157620   4.756   2.886   3.987 -1.8979 -0.9303 -0.0906
12043TIP3    H257621   4.769   2.983   4.103  0.8200 -2.1920  0.7557
12044TIP3   OH257622   1.815   4.876   2.415 -0.1118  0.8025  0.3205
12044TIP3    H157623   1.869   4.808   2.374 -0.5138 -0.0758  1.1760
12044TIP3    H257624   1.814   4.852   2.508 -0.7305  1.6713  0.5520
12045TIP3   OH257625   2.992   0.161   3.558 -0.3833  0.0952  0.1712
12045TIP3    H157626   3.018   0.071   3.537  0.6800  0.2376  0.7701
12045TIP3    H257627   3.060   0.215   3.517 -0.2533  0.5432  0.9555
12046TIP3   OH257628   5.730   5.425  14.503 -0.5075  0.3855  0.5446
12046TIP3    H157629   5.727   5.345  14.450  2.1885  0.1579  0.6214
12046TIP3    H257630   5.679   5.488  14.452 -0.0529 -0.5132 -1.1136
12047TIP3   OH257631   1.183   3.429  14.115  0.0458  0.7706  0.4050
12047TIP3    H157632   1.161   3.452  14.025  1.4904 -2.0180 -0.7726
12047TIP3    H257633   1.097   3.415  14.157 -0.6448  2.1630 -0.4699
12048TIP3   OH257634   1.180   1.267  10.940 -0.0861  0.0436 -0.2777
12048TIP3    H157635   1.087   1.264  10.963 -0.5269  0.9877 -1.7994
12048TIP3    H257636   1.197   1.182  10.899  0.3821 -1.1188  2.1177
12049TIP3   OH257637   2.324   5.312   0.027 -0.7369 -0.2677  0.3444
12049TIP3    H157638   2.320   5.408   0.027 -0.7604 -0.2666 -0.0117
12049TIP3    H257639   2.377   5.290   0.104  0.2119  0.0719 -0.1964
12050TIP3   OH257640   0.937   1.340   5.577  0.2936 -0.2503  0.5806
12050TIP3    H157641   0.968   1.292   5.653  0.3676 -3.0606 -1.0798
12050TIP3    H257642   0.842   1.332   5.580  0.3224 -0.7970  0.1289
12051TIP3   OH257643   0.197   1.500  11.926 -0.4605 -0.2188 -0.0683
12051TIP3    H157644   0.166   1.506  12.016 -1.6232  0.0167 -0.4638
12051TIP3    H257645   0.127   1.453  11.880 -0.3591  0.5571 -1.0484
12052TIP3   OH257646   5.342   4.404   3.251  0.3275 -0.5993 -0.7316
12052TIP3    H157647   5.397   4.423   3.327 -0.9657  0.5098 -0.0467
12052TIP3    H257648   5.347   4.308   3.242 -2.1625 -1.2788  2.9060
12053TIP3   OH257649   2.184   3.412  17.209  0.3467  0.1286  0.6994
12053TIP3    H157650   2.207   3.502  17.187 -0.9635  0.4363  0.4730
12053TIP3    H257651   2.099   3.420  17.253 -1.3234 -1.2062 -2.0431
12054TIP3   OH257652   4.740   3.188   0.214  0.1051  0.6296 -0.6920
12054TIP3    H157653   4.727   3.118   0.279  0.2170  0.7166 -0.5751
12054TIP3    H257654   4.709   3.267   0.258  2.1473  1.0686  0.0678
12055TIP3   OH257655   4.080   1.292   4.973  0.2910 -0.1274  0.1776
12055TIP3    H157656   3.987   1.317   4.980  0.2388 -0.4306  0.6012
12055TIP3    H257657   4.079   1.197   4.968  0.5972 -0.1559  0.5511
12056TIP3   OH257658   6.812   2.587   2.969 -0.0616  0.1907 -0.0245
12056TIP3    H157659   6.745   2.646   3.004  0.1512 -0.1912  1.0397
12056TIP3    H257660   6.862   2.641   2.908 -0.1392  0.9897  0.6143
12057TIP3   OH257661   6.538   2.809  14.974  0.8490  0.0517  0.1343
12057TIP3    H157662   6.534   2.879  14.909 -0.4113  0.8958  1.0794
12057TIP3    H257663   6.473   2.745  14.946 -1.1427  1.3487  1.5426
12058TIP3   OH257664   1.940   6.693   3.374 -0.3480 -0.0130 -0.4147
12058TIP3    H157665   1.895   6.609   3.385  0.2213 -0.3444 -0.5430
12058TIP3    H257666   1.952   6.700   3.279 -0.7066  0.3826 -0.4299
12059TIP3   OH257667   4.676   2.382   4.162 -0.4163  0.4086 -0.2616
12059TIP3    H157668   4.756   2.348   4.121 -0.7791 -0.5215 -0.2185
12059TIP3    H257669   4.625   2.416   4.089 -0.1980  0.5471 -0.3508
12060TIP3   OH257670   4.211   5.086  14.551 -0.0799  0.3053  0.0158
12060TIP3    H157671   4.164   5.120  14.627 -2.1146  0.0881 -1.0921
12060TIP3    H257672   4.165   5.006  14.527  2.2294 -1.1828  0.1774
12061TIP3   OH257673   3.705   5.012  13.190 -0.4088 -0.1537 -0.2145
12061TIP3    H157674   3.794   5.022  13.155  0.6035 -3.6413  0.9307
12061TIP3    H257675   3.707   5.057  13.274  0.2966 -0.2449 -0.1801
12062TIP3   OH257676   3.733   4.501  15.707 -0.8646  0.2336 -0.2537
12062TIP3    H157677   3.672   4.539  15.644  0.4365  0.9561 -1.1343
12062TIP3    H257678   3.754   4.415  15.672 -2.9503 -0.9168  1.1562
12063TIP3   OH257679   2.911   4.326   4.339  0.2073  0.0901 -0.3190
12063TIP3    H157680   3.004   4.341   4.352  0.4278 -2.1819  1.4118
12063TIP3    H257681   2.907   4.248   4.283 -0.4823 -1.8106  2.1615
12064TIP3   OH257682   2.492   0.458  13.577 -0.6465  0.7558 -0.1782
12064TIP3    H157683   2.412   0.454  13.524 -0.9059  0.5159  0.2226
12064TIP3    H257684   2.466   0.423  13.662  0.0996 -0.1045 -0.2967
12065TIP3   OH257685   2.552   2.099  16.795 -0.3203 -0.3928 -0.5901
12065TIP3    H157686   2.489   2.050  16.741  0.1652 -0.8066 -0.7959
12065TIP3    H257687   2.555   2.186  16.755 -2.0845  0.2099  0.4974
12066TIP3   OH257688   0.072   2.670  12.249  0.6609 -0.0243  0.4725
12066TIP3    H157689   0.106   2.715  12.326 -1.3320  0.1611  1.3019
12066TIP3    H257690   0.057   2.580  12.278 -1.7647  0.4472  0.9247
12067TIP3   OH257691   2.374   3.437   6.119 -0.6793 -0.8754  0.1407
12067TIP3    H157692   2.463   3.404   6.131 -0.2519  0.1527 -0.0904
12067TIP3    H257693   2.357   3.487   6.199 -0.5101  0.0730 -0.3949
12068TIP3   OH257694   6.629   0.206   4.323 -0.3699  0.7418  0.0082
12068TIP3    H157695   6.567   0.155   4.375 -0.6169  0.6906 -0.3335
12068TIP3    H257696   6.713   0.192   4.366 -0.2472 -0.7624 -0.6477
12069TIP3   OH257697   0.735   2.167  14.309  0.1217  0.2538 -0.0872
12069TIP3    H157698   0.743   2.083  14.264  2.8746 -1.1915  2.6625
12069TIP3    H257699   0.806   2.220  14.274 -0.3735  0.7102 -0.4115
12070TIP3   OH257700   5.045   5.701   0.873  0.1072 -0.4819 -0.4441
12070TIP3    H157701   5.002   5.634   0.926  0.9816  0.4425  1.5026
12070TIP3    H257702   5.001   5.783   0.897  0.7488  0.0056 -0.8864
12071TIP3   OH257703   1.253   6.220   5.873  0.2421  0.2932 -0.2110
12071TIP3    H157704   1.182   6.276   5.844 -0.6263 -1.1258 -0.9530
12071TIP3    H257705   1.228   6.194   5.962 -0.6730 -0.8924 -0.7727
12072TIP3   OH257706   5.480   1.990  16.792 -0.0614 -0.1026 -0.3152
12072TIP3    H157707   5.513   2.080  16.791  0.5353 -0.3171 -0.2900
12072TIP3    H257708   5.407   1.992  16.855 -0.0150  0.3490 -0.2724
12073TIP3   OH257709   5.922   1.106  17.188  0.3723  0.0239  0.0441
12073TIP3    H157710   5.895   1.024  17.146 -1.5450  0.4017  0.4855
12073TIP3    H257711   5.873   1.174  17.142  0.6087  0.7620  0.8642
12074TIP3   OH257712   1.505   1.931   3.190  0.8937 -0.0769  0.1366
12074TIP3    H157713   1.472   2.013   3.228 -0.2914 -0.1622 -0.6542
12074TIP3    H257714   1.456   1.921   3.109  2.0728 -0.8387 -0.5025
12075TIP3   OH257715   1.700   5.612   1.943  0.1320 -0.3238 -0.2247
12075TIP3    H157716   1.691   5.707   1.946  0.3661 -0.2879 -0.5973
12075TIP3    H257717   1.610   5.580   1.929  0.0309 -0.1690  0.0579
12076TIP3   OH257718   1.468   0.197  13.353  0.7866  0.4378 -0.4552
12076TIP3    H157719   1.539   0.201  13.289  0.4712 -2.7421 -1.1819
12076TIP3    H257720   1.407   0.133  13.318 -0.2332 -0.2368  2.2463
12077TIP3   OH257721   1.010   0.030   5.301 -0.0313 -0.2146  0.1311
12077TIP3    H157722   1.092  -0.015   5.323 -0.8518 -1.4777  0.7441
12077TIP3    H257723   1.011   0.109   5.355  1.1356  0.1879 -0.4558
12078TIP3   OH257724   5.230   6.247   6.091  0.5252  0.2203  0.6114
12078TIP3    H157725   5.293   6.190   6.134  1.2085 -0.8340 -1.6504
12078TIP3    H257726   5.147   6.199   6.098  1.0154 -0.9451 -0.9046
12079TIP3   OH257727   2.529   5.193  12.760  0.3631  0.0114  0.2743
12079TIP3    H157728   2.463   5.192  12.690 -0.3115 -1.0140  0.8994
12079TIP3    H257729   2.533   5.284  12.788  0.4186  0.3786 -0.8885
12080TIP3   OH257730   1.699   3.334   2.057  0.0319 -0.5300 -0.6465
12080TIP3    H157731   1.698   3.314   1.963  1.5654 -0.9007 -0.6127
12080TIP3    H257732   1.789   3.361   2.075 -0.5569  0.8268  0.4748
12081TIP3   OH257733   3.643   1.604   6.288  0.0224  0.0187 -0.2889
12081TIP3    H157734   3.717   1.611   6.347 -0.6004 -0.3351  0.5505
12081TIP3    H257735   3.637   1.511   6.266  0.7500  0.2465 -1.5928
12082TIP3   OH257736   0.489   4.422   4.242  0.7514 -0.7509  0.2857
12082TIP3    H157737   0.544   4.498   4.228 -0.3839  0.1079  0.3175
12082TIP3    H257738   0.440   4.412   4.160 -0.0325 -0.6416  0.7224
12083TIP3   OH257739   3.983   3.214  14.784 -0.5594 -0.5153  0.4214
12083TIP3    H157740   4.029   3.183  14.706 -1.7412 -0.5733 -0.2754
12083TIP3    H257741   3.907   3.156  14.791 -0.7923 -0.1238  1.2708
12084TIP3   OH257742   2.124   1.964   2.628 -0.4776  0.8431  0.0753
12084TIP3    H157743   2.219   1.967   2.634 -0.4150 -0.1042 -0.2733
12084TIP3    H257744   2.105   1.984   2.537 -0.6819  2.0612  0.3690
12085TIP3   OH257745   4.692   5.276  10.647  0.0622 -0.0382  0.4277
12085TIP3    H157746   4.701   5.181  10.643  0.6103 -0.1248  2.5670
12085TIP3    H257747   4.597   5.291  10.653 -0.0263 -0.4376  0.0787
12086TIP3   OH257748   4.160   0.018   2.505  0.0582 -0.1707 -0.0169
12086TIP3    H157749   4.123  -0.039   2.572  1.8067  1.5375  2.5485
12086TIP3    H257750   4.106   0.097   2.507 -2.1987 -1.3878 -3.3776
12087TIP3   OH257751   2.945   6.206   4.534  0.6218 -0.2386 -0.0313
12087TIP3    H157752   2.889   6.254   4.473  0.3293 -1.1363 -0.4909
12087TIP3    H257753   2.969   6.270   4.601 -2.2689 -0.1795  1.0753
12088TIP3   OH257754   0.022   4.311   5.783  0.2620 -0.6914 -0.1568
12088TIP3    H157755   0.040   4.231   5.734  0.0648 -1.0381  0.3236
12088TIP3    H257756  -0.071   4.328   5.769  0.1662 -0.8866  0.2319
12089TIP3   OH257757   2.521   3.506   2.863  0.2477  0.5920  0.2511
12089TIP3    H157758   2.506   3.500   2.769 -0.4396 -2.2137  0.4343
12089TIP3    H257759   2.435   3.493   2.902  0.5586  1.4931  1.2945
12090TIP3   OH257760   3.999   6.546  16.026  0.1041  0.4136  0.2367
12090TIP3    H157761   3.957   6.631  16.035 -0.2055  0.4951 -1.6043
12090TIP3    H257762   3.932   6.483  16.053  0.1435  0.7218  1.0654
12091TIP3   OH257763   5.352   5.950  15.769 -0.2393 -0.1371  0.0778
12091TIP3    H157764   5.373   5.903  15.688  1.4508  0.2531  0.2481
12091TIP3    H257765   5.341   6.041  15.741 -0.2472 -0.1040  0.1906
12092TIP3   OH257766   2.301   0.519   2.468 -0.0324  0.5169 -0.4181
12092TIP3    H157767   2.276   0.594   2.414  3.4494  1.2654 -1.2834
12092TIP3    H257768   2.285   0.548   2.558  0.2288  1.8912 -0.7887
12093TIP3   OH257769   5.195   6.303   3.108 -0.1221  0.0875  0.3603
12093TIP3    H157770   5.139   6.373   3.077  0.5949  0.6315  0.2614
12093TIP3    H257771   5.243   6.342   3.181 -1.6499 -1.1062  2.0880
12094TIP3   OH257772   3.790   3.602   0.533  0.2002  0.8141  0.2019
12094TIP3    H157773   3.865   3.545   0.549 -0.9779 -0.4127  1.7373
12094TIP3    H257774   3.785   3.609   0.438  3.1971  2.2982  0.0382
12095TIP3   OH257775   4.891   4.530   2.760 -0.5642 -0.0707  0.2357
12095TIP3    H157776   4.943   4.558   2.835  0.1142  0.1632 -0.3116
12095TIP3    H257777   4.938   4.564   2.684 -0.5640 -1.3479 -0.3593
12096TIP3   OH257778   2.367   1.055   2.762 -0.1740 -0.4427  0.0528
12096TIP3    H157779   2.393   1.091   2.847  1.3987 -1.3418 -0.0195
12096TIP3    H257780   2.410   1.111   2.698  0.7787 -1.3030 -0.0849
12097TIP3   OH257781   1.123   3.140  13.526  0.0260  0.5705 -0.3063
12097TIP3    H157782   1.032   3.171  13.520 -0.5947 -0.6682  1.7182
12097TIP3    H257783   1.164   3.200  13.589  0.2790  0.4266 -0.3335
12098TIP3   OH257784   5.654   3.795  16.644 -0.3052 -0.6336  0.7977
12098TIP3    H157785   5.594   3.869  16.651 -0.4847 -0.7589  0.5924
12098TIP3    H257786   5.729   3.819  16.699  0.8314  0.8374 -1.2842
12099TIP3   OH257787   0.719   1.443   3.370  0.2023  0.3214 -0.1295
12099TIP3    H157788   0.789   1.391   3.331 -0.4149  0.5269 -1.5438
12099TIP3    H257789   0.647   1.381   3.383  0.3676  0.2722  0.6470
12100TIP3   OH257790   3.975   4.615  15.761  0.4705 -0.5525 -0.4300
12100TIP3    H157791   3.887   4.578  15.753  0.1849  0.2007 -0.9050
12100TIP3    H257792   4.012   4.573  15.838 -0.2178 -1.0609 -0.3684
12101TIP3   OH257793   6.168   4.056   1.659 -0.0999 -0.5301  0.1026
12101TIP3    H157794   6.110   4.110   1.713 -1.0733 -0.7404 -0.6997
12101TIP3    H257795   6.168   4.098   1.573 -0.0259 -1.2015 -0.2381
12102TIP3   OH257796   2.554   0.186   1.113  0.7353 -0.0613  0.5260
12102TIP3    H157797   2.577   0.123   1.044 -1.8952  2.2465 -2.8374
12102TIP3    H257798   2.638   0.210   1.152  2.5159 -1.0812 -2.3257
12103TIP3   OH257799   6.549   1.976   1.391  0.1486 -0.5632 -0.8920
12103TIP3    H157800   6.558   1.886   1.358  0.7253 -0.1426 -1.9348
12103TIP3    H257801   6.474   2.011   1.344 -1.0649 -0.9636  0.6616
12104TIP3   OH257802   3.518   5.369   0.131  0.3217 -0.2032 -0.1523
12104TIP3    H157803   3.552   5.429   0.064 -1.1062 -1.1935 -1.8265
12104TIP3    H257804   3.431   5.403   0.153 -0.1201 -1.1246 -0.4334
12105TIP3   OH257805   6.254   1.711  16.091  0.3646  0.4791 -0.7829
12105TIP3    H157806   6.344   1.689  16.070  0.3229  1.1002 -1.6392
12105TIP3    H257807   6.257   1.737  16.183  0.8772 -0.4399 -0.5277
12106TIP3   OH257808   0.272   6.434   4.706 -0.1259 -0.0644  0.4091
12106TIP3    H157809   0.238   6.498   4.769  0.9848  0.4623  0.5036
12106TIP3    H257810   0.291   6.485   4.627  1.1044 -0.1781  0.6047
12107TIP3   OH257811   3.136   6.018   3.975 -0.5579  0.1190  0.3034
12107TIP3    H157812   3.175   6.004   3.889  0.7236  0.6686  0.7848
12107TIP3    H257813   3.153   5.936   4.023  0.4460  0.5299  0.6685
12108TIP3   OH257814   1.554   2.421  11.203  0.6546 -0.0315  0.0354
12108TIP3    H157815   1.620   2.421  11.273  1.0428 -0.8216 -0.3085
12108TIP3    H257816   1.471   2.406  11.248  0.4579  2.5108  0.6509
12109TIP3   OH257817   5.018   5.673   5.446  0.3822  0.1000  0.3563
12109TIP3    H157818   5.109   5.701   5.437  0.7465 -0.4764  1.8425
12109TIP3    H257819   4.970   5.752   5.470  0.8406  0.0864  1.3813
12110TIP3   OH257820   6.301   4.007  15.467  0.1720 -0.4522  0.2863
12110TIP3    H157821   6.297   4.046  15.379  0.8335  0.5767  0.6843
12110TIP3    H257822   6.236   4.057  15.517 -0.7751 -1.5716  0.1997
12111TIP3   OH257823   2.541   1.613  12.459  0.0770  0.6151 -0.4713
12111TIP3    H157824   2.455   1.655  12.454 -0.2343  0.0864  0.2859
12111TIP3    H257825   2.601   1.676  12.419 -0.7079  0.8374 -1.3309
12112TIP3   OH257826   3.104   1.942   4.513 -0.2511 -0.1283  0.1899
12112TIP3    H157827   3.184   1.940   4.565 -0.8994 -1.5771  1.1857
12112TIP3    H257828   3.117   2.015   4.453  1.2642  0.4827  1.1959
12113TIP3   OH257829   3.183   2.893   0.680 -0.1129 -0.1407 -0.1377
12113TIP3    H157830   3.098   2.850   0.686 -0.1593  0.0422  0.6304
12113TIP3    H257831   3.243   2.833   0.723 -0.2327  0.6719  1.2229
12114TIP3   OH257832   5.098   5.219  11.940 -0.0275  0.6651  0.1611
12114TIP3    H157833   5.075   5.310  11.923  2.1010  0.8926 -2.0563
12114TIP3    H257834   5.067   5.171  11.863 -1.1545 -0.5459  1.3122
12115TIP3   OH257835   3.413   3.908   2.381  0.1560  0.2605 -0.2345
12115TIP3    H157836   3.492   3.863   2.411  0.4490 -0.5694 -2.1070
12115TIP3    H257837   3.446   3.980   2.326 -0.3773  0.3881 -0.3872
12116TIP3   OH257838   3.660   4.821   3.049 -0.2542 -0.3412 -0.1117
12116TIP3    H157839   3.715   4.747   3.022  0.4900 -0.7977  2.3594
12116TIP3    H257840   3.579   4.781   3.079 -0.1726 -0.1028  0.4468
12117TIP3   OH257841   6.803   0.623  16.346  0.6731  0.6315  0.4568
12117TIP3    H157842   6.769   0.596  16.261 -0.0543  0.7948  0.6895
12117TIP3    H257843   6.771   0.713  16.357  1.1856  0.7907  0.6823
12118TIP3   OH257844   0.720   1.098  11.033 -0.3678 -0.3623  0.3553
12118TIP3    H157845   0.708   1.007  11.007 -2.6647  0.1004 -0.5087
12118TIP3    H257846   0.646   1.117  11.091 -0.3837  1.1162 -0.0826
12119TIP3   OH257847   3.922   5.375   0.722 -0.0966 -0.2881  0.5433
12119TIP3    H157848   4.003   5.340   0.685 -0.2720 -0.9160  0.7300
12119TIP3    H257849   3.944   5.463   0.751  0.1482  0.0938 -0.7059
12120TIP3   OH257850   0.735   0.969   0.103  0.3804 -0.1593 -0.7003
12120TIP3    H157851   0.782   0.891   0.130  0.5547  0.7433  1.8638
12120TIP3    H257852   0.750   0.976   0.009  2.5048 -1.7659 -0.5274
12121TIP3   OH257853   6.314   6.257   2.850  0.1296 -0.5963  0.1038
12121TIP3    H157854   6.388   6.300   2.807  2.0863 -1.2890  2.5211
12121TIP3    H257855   6.252   6.239   2.779  1.3636  1.7837 -1.7210
12122TIP3   OH257856   3.247   3.059   2.482 -0.4511  0.1721 -0.2140
12122TIP3    H157857   3.331   3.014   2.474 -0.0711  0.8813 -0.3775
12122TIP3    H257858   3.202   3.041   2.399  0.3324  1.3122 -0.9217
12123TIP3   OH257859   4.736   4.704  14.147 -0.3494 -0.3050 -0.2666
12123TIP3    H157860   4.777   4.743  14.070 -1.9174  0.6062 -0.6872
12123TIP3    H257861   4.789   4.626  14.166  1.0444  0.3646 -1.2504
12124TIP3   OH257862   4.698   4.551   1.184 -0.4070  0.0345 -0.1074
12124TIP3    H157863   4.721   4.609   1.112 -0.3495  0.3449  0.1591
12124TIP3    H257864   4.609   4.576   1.208 -1.0581 -1.1679 -1.1392
12125TIP3   OH257865   4.705   6.245   3.905 -0.5897  0.8075 -0.2094
12125TIP3    H157866   4.705   6.250   3.809  0.6761  0.9398 -0.2177
12125TIP3    H257867   4.794   6.221   3.927 -1.5286 -2.0415  0.8268
12126TIP3   OH257868   0.084   1.178   2.835 -0.8860 -0.4134 -0.0968
12126TIP3    H157869   0.081   1.083   2.821  1.8333 -0.5700 -0.2598
12126TIP3    H257870   0.167   1.205   2.797 -1.0666  1.8730  0.9430
12127TIP3   OH257871   1.783   6.523   2.085 -0.6604  0.3248  0.3278
12127TIP3    H157872   1.785   6.459   2.156  0.3224  1.0104  0.9371
12127TIP3    H257873   1.807   6.472   2.007 -2.2107 -0.5337  0.3574
12128TIP3   OH257874   0.032   1.034   1.101 -0.2811  0.1876  0.1115
12128TIP3    H157875  -0.011   1.043   1.186 -1.8678 -0.7480 -0.5615
12128TIP3    H257876  -0.038   1.040   1.037  0.6854 -0.5845 -1.0754
12129TIP3   OH257877   2.287   1.520  15.694 -0.0234 -0.1106 -0.6957
12129TIP3    H157878   2.311   1.432  15.724  1.4437  0.0016 -1.4780
12129TIP3    H257879   2.195   1.529  15.718 -0.1852 -1.8498 -0.5558
12130TIP3   OH257880   2.194   2.530   1.321  0.1612 -0.5462 -0.2521
12130TIP3    H157881   2.201   2.463   1.389  2.1892 -1.5322 -1.3608
12130TIP3    H257882   2.114   2.508   1.273 -0.3801 -0.8226  0.7503
12131TIP3   OH257883   3.166   0.562  14.385  0.0920  0.3168  0.4283
12131TIP3    H157884   3.182   0.470  14.401  1.2228  0.3743 -0.2573
12131TIP3    H257885   3.086   0.582  14.434  0.6996 -0.6342  1.8658
12132TIP3   OH257886   2.373   4.930   5.460 -0.3851  0.6433 -0.0372
12132TIP3    H157887   2.282   4.901   5.468 -0.3055  0.7753  1.8004
12132TIP3    H257888   2.420   4.854   5.426 -0.9767  0.1567  0.2104
12133TIP3   OH257889   6.463   5.461  13.673 -0.5089  0.1029  0.1252
12133TIP3    H157890   6.532   5.459  13.739 -0.4180  1.0928  0.0758
12133TIP3    H257891   6.494   5.404  13.604 -0.1979 -0.2450  0.5465
12134TIP3   OH257892   1.191   0.551  11.426  0.1393 -0.1594 -0.0195
12134TIP3    H157893   1.132   0.614  11.385  0.3495 -1.0461 -1.7694
12134TIP3    H257894   1.271   0.555  11.374  0.2059 -1.7513 -0.0811
12135TIP3   OH257895   4.530   6.403   2.962 -0.1210  0.2274 -0.0444
12135TIP3    H157896   4.515   6.313   2.934 -1.0227  0.5850 -0.7361
12135TIP3    H257897   4.546   6.396   3.057 -2.6889 -0.4268  0.4196
12136TIP3   OH257898   1.323   4.025   2.556  0.4152  0.0237  0.4090
12136TIP3    H157899   1.342   4.060   2.469 -1.4158  0.7437  0.2544
12136TIP3    H257900   1.341   3.931   2.549 -0.2980 -0.0300 -0.9485
12137TIP3   OH257901   4.260   1.472  11.183  0.3044  0.1055  0.1407
12137TIP3    H157902   4.194   1.526  11.226  1.1955  1.2457  0.1432
12137TIP3    H257903   4.285   1.523  11.105  1.1197 -0.3350  0.1072
12138TIP3   OH257904   5.727   3.711   6.651  0.0023 -0.4210  0.4541
12138TIP3    H157905   5.729   3.801   6.617 -3.1583 -0.5086 -0.2162
12138TIP3    H257906   5.695   3.658   6.578  0.9389 -2.0070  1.1216
12139TIP3   OH257907   2.531   1.887   5.302  0.2825 -0.0319  0.3920
12139TIP3    H157908   2.557   1.820   5.239  1.4242  0.9386 -0.1888
12139TIP3    H257909   2.484   1.952   5.250 -2.0791 -0.9935  1.1709
12140TIP3   OH257910   4.865   0.143   4.731  0.4469  0.1393  0.2932
12140TIP3    H157911   4.891   0.181   4.815 -1.5812 -1.0275  1.5354
12140TIP3    H257912   4.783   0.186   4.709  1.2130  0.8149 -1.4175
12141TIP3   OH257913   3.269   5.482   2.964  0.0944  0.5169 -0.1903
12141TIP3    H157914   3.364   5.486   2.976  0.0079  2.7942  0.1853
12141TIP3    H257915   3.251   5.542   2.893 -1.0869  0.1761 -0.1980
12142TIP3   OH257916   5.444   6.639   3.552 -0.2841  0.3053 -0.1718
12142TIP3    H157917   5.368   6.658   3.497 -1.5204 -0.3608  1.2673
12142TIP3    H257918   5.441   6.545   3.567  1.4414  0.0793 -0.9312
12143TIP3   OH257919   5.379   4.084   4.119 -0.0915 -0.7472 -0.2138
12143TIP3    H157920   5.419   4.072   4.033 -0.0419 -1.2202 -0.1305
12143TIP3    H257921   5.319   4.158   4.108  1.8331  0.9336  0.0154
12144TIP3   OH257922   4.837   1.721  14.076  0.9295 -0.0641 -0.2020
12144TIP3    H157923   4.763   1.676  14.036  1.2311 -0.0222 -0.8246
12144TIP3    H257924   4.825   1.813  14.051  1.0749 -0.0262 -0.1307
12145TIP3   OH257925   4.567   6.712  12.859  0.2799  0.1711  0.0613
12145TIP3    H157926   4.541   6.717  12.767 -0.4225  1.3655  0.3082
12145TIP3    H257927   4.660   6.737  12.859  0.5029 -0.6197 -0.4048
12146TIP3   OH257928   3.539   2.005   0.941 -0.3749  0.1989  0.4828
12146TIP3    H157929   3.536   2.049   1.026  1.6909 -1.0866  1.2985
12146TIP3    H257930   3.465   1.945   0.942 -0.3962  0.2270  1.3571
12147TIP3   OH257931   1.375   2.979   0.624 -0.4721 -0.3374  0.2644
12147TIP3    H157932   1.316   2.969   0.549  0.9595  0.7039 -1.0559
12147TIP3    H257933   1.450   3.026   0.590  0.4840 -0.3032  2.2564
12148TIP3   OH257934   0.486   1.576  11.543 -0.4275 -0.5700 -0.5461
12148TIP3    H157935   0.402   1.622  11.535 -1.5676 -2.3128  0.7039
12148TIP3    H257936   0.520   1.572  11.453 -1.9254 -0.2670 -1.1527
12149TIP3   OH257937   0.061   4.359  13.099  0.1582  0.0227 -0.2004
12149TIP3    H157938  -0.009   4.421  13.121 -0.2698 -0.4394 -0.2525
12149TIP3    H257939   0.017   4.291  13.048  0.4464 -0.8121  0.6448
12150TIP3   OH257940   0.641   5.235   4.459  0.5126 -0.2965 -0.4886
12150TIP3    H157941   0.690   5.153   4.465  0.3673 -0.3591 -0.1044
12150TIP3    H257942   0.552   5.208   4.438  1.0925 -0.0667 -3.8053
12151TIP3   OH257943   3.899   6.538   2.635 -0.3505  0.6448  0.6523
12151TIP3    H157944   3.964   6.477   2.671  1.0133  0.3549 -2.0642
12151TIP3    H257945   3.827   6.483   2.606  0.4995  0.3386 -0.9985
12152TIP3   OH257946   5.947   4.583   0.357 -0.0853 -0.0722 -0.0187
12152TIP3    H157947   6.024   4.635   0.335 -0.8112  1.4454  0.9237
12152TIP3    H257948   5.926   4.608   0.447 -0.7001 -1.7109  0.3290
12153TIP3   OH257949   1.007   1.755   5.722  0.3257  0.9259  0.8344
12153TIP3    H157950   1.086   1.702   5.709 -1.5638 -1.2893 -4.2628
12153TIP3    H257951   0.944   1.694   5.760 -1.0446 -0.0344 -2.5500
12154TIP3   OH257952   4.647   3.721   4.994 -0.3236 -0.8585  0.1977
12154TIP3    H157953   4.608   3.759   5.073  3.1825  1.7979  0.8796
12154TIP3    H257954   4.606   3.769   4.922  0.7401  1.1230  0.8322
12155TIP3   OH257955   4.730   3.611  15.460  0.2444 -0.8683  0.7483
12155TIP3    H157956   4.770   3.610  15.373 -0.5140 -0.2075  0.3835
12155TIP3    H257957   4.726   3.519  15.486 -0.1039 -1.1272 -0.1870
12156TIP3   OH257958   3.241   5.711   2.157 -0.6772 -0.2868 -0.4073
12156TIP3    H157959   3.330   5.728   2.129 -0.1468  0.3160  1.4801
12156TIP3    H257960   3.193   5.693   2.076  0.8375  0.7391 -1.5890
12157TIP3   OH257961   6.471   5.062   5.204 -0.0669  0.7531  1.3049
12157TIP3    H157962   6.535   5.096   5.266  1.4982  0.9931 -0.3714
12157TIP3    H257963   6.466   5.129   5.136 -0.0373 -0.4914  0.0338
12158TIP3   OH257964   5.496   0.568   3.360 -0.0757  0.1963 -0.8564
12158TIP3    H157965   5.561   0.625   3.401 -0.2149  0.0651 -0.4502
12158TIP3    H257966   5.444   0.626   3.305  0.5430  0.2651 -1.3908
12159TIP3   OH257967   0.439   3.874  13.519 -0.5065  0.3393 -0.0202
12159TIP3    H157968   0.490   3.925  13.581 -0.1277  0.5098 -0.4643
12159TIP3    H257969   0.486   3.790  13.512  0.6646  1.0717 -1.6430
12160TIP3   OH257970   3.988   3.465  13.252 -0.1402  0.0577  0.0858
12160TIP3    H157971   3.921   3.403  13.224  0.1750 -0.3283  0.1854
12160TIP3    H257972   4.039   3.417  13.318  2.9202 -1.1892 -2.9270
12161TIP3   OH257973   6.108   5.596  13.732 -0.0674 -0.2866 -0.3127
12161TIP3    H157974   6.138   5.524  13.788  1.2250  0.9012  0.5830
12161TIP3    H257975   6.188   5.632  13.695 -0.4386  2.1061  1.0328
12162TIP3   OH257976   2.630   1.057   4.424 -0.2087 -0.6530 -0.2561
12162TIP3    H157977   2.602   1.130   4.480  0.8733  0.5167 -1.1927
12162TIP3    H257978   2.552   1.034   4.374 -0.5393 -0.0922 -0.0085
12163TIP3   OH257979   0.655   1.634   5.873  0.5328 -0.3669  0.4982
12163TIP3    H157980   0.652   1.542   5.848  0.7644 -0.3304  0.3276
12163TIP3    H257981   0.597   1.641   5.949  0.5906 -0.6723  0.5718
12164TIP3   OH257982   3.011   2.720   2.872  0.0189  1.0548 -0.2086
12164TIP3    H157983   2.959   2.719   2.952 -0.0139 -1.6954 -0.1844
12164TIP3    H257984   2.947   2.717   2.801  0.0131 -1.7788 -0.1854
12165TIP3   OH257985   2.190   1.973   0.015  0.1299  0.3848  0.4908
12165TIP3    H157986   2.273   1.949   0.056 -1.0146 -4.2472  0.5714
12165TIP3    H257987   2.124   1.960   0.083 -1.1017 -0.7499 -0.8553
12166TIP3   OH257988   3.717   1.584   3.927  0.0974  0.3315  0.0515
12166TIP3    H157989   3.753   1.547   3.847  0.0269 -1.8253  0.9668
12166TIP3    H257990   3.655   1.518   3.960  1.3723  0.3453  2.7621
12167TIP3   OH257991   6.217   3.036  15.464  0.0647  0.2914  0.6253
12167TIP3    H157992   6.275   2.967  15.435  0.4660  0.5959  0.6981
12167TIP3    H257993   6.200   3.088  15.386  1.3530  1.2630  0.9577
12168TIP3   OH257994   6.296   2.401   4.509 -0.1004 -1.0287 -0.1892
12168TIP3    H157995   6.390   2.386   4.520  0.1215 -0.4828 -1.1672
12168TIP3    H257996   6.281   2.489   4.544  0.3665  0.1686 -2.7796
12169TIP3   OH257997   5.305   4.039  15.110 -0.9003  0.1688 -0.0542
12169TIP3    H157998   5.320   3.953  15.070 -0.6658  0.4469 -0.5698
12169TIP3    H257999   5.343   4.101  15.049 -0.9256  0.6346  0.3968
12170TIP3   OH258000   6.001   0.250   3.388 -0.1724  0.7130  0.5933
12170TIP3    H158001   5.908   0.251   3.409  0.2864 -0.8516  3.0379
12170TIP3    H258002   6.006   0.206   3.303 -1.5925 -0.4110  1.0615
12171TIP3   OH258003   6.494   4.563   6.103 -0.0760  0.3169 -0.2796
12171TIP3    H158004   6.491   4.641   6.158  0.5831 -0.0662  0.3296
12171TIP3    H258005   6.574   4.573   6.052 -1.5544  1.5060 -2.5022
12172TIP3   OH258006   0.604   1.798   4.857 -0.4781  0.1701  0.0601
12172TIP3    H158007   0.524   1.849   4.850  0.2330  1.4521  0.8169
12172TIP3    H258008   0.587   1.719   4.807 -1.4702  1.3536 -1.5605
12173TIP3   OH258009   5.730   6.166  11.050  0.4743 -0.5141 -0.6031
12173TIP3    H158010   5.734   6.081  11.005  1.5944 -0.5788 -0.4209
12173TIP3    H258011   5.804   6.165  11.110  0.6697  0.6956 -0.7884
12174TIP3   OH258012   5.491   6.779  15.715  0.0308 -0.2302 -0.3304
12174TIP3    H158013   5.503   6.822  15.799  0.9747 -1.0316 -0.0469
12174TIP3    H258014   5.577   6.745  15.692 -1.0145 -3.8504  0.4944
12175TIP3   OH258015   4.400   5.228   0.146 -0.2436 -0.5567 -0.8990
12175TIP3    H158016   4.452   5.246   0.068  0.6264 -0.1648 -0.2350
12175TIP3    H258017   4.461   5.188   0.208 -0.7307 -0.1119 -0.1128
12176TIP3   OH258018   0.293   5.820  13.505  0.7751  0.0283 -0.2361
12176TIP3    H158019   0.236   5.875  13.559 -1.1457 -1.5237 -0.5449
12176TIP3    H258020   0.331   5.880  13.441 -0.2392  1.2112  0.2389
12177TIP3   OH258021   1.524   0.917   6.094 -0.3044  0.0001 -0.4806
12177TIP3    H158022   1.451   0.978   6.084 -0.6599 -0.0565  1.4442
12177TIP3    H258023   1.565   0.914   6.007 -0.4689  2.7221 -0.7161
12178TIP3   OH258024   5.215   3.856   4.247  0.1557 -0.3867  0.2482
12178TIP3    H158025   5.234   3.849   4.153  0.5133  0.1749  0.2738
12178TIP3    H258026   5.206   3.950   4.263  0.6107 -0.4422  0.8728
12179TIP3   OH258027   1.636   1.729  14.158  0.4481  0.1943  0.0624
12179TIP3    H158028   1.674   1.722  14.246  0.2714 -0.0743  0.1209
12179TIP3    H258029   1.558   1.673  14.162 -0.1277  0.9819  0.0449
12180TIP3   OH258030   2.535   0.906   0.523 -0.6258  0.4782 -0.1332
12180TIP3    H158031   2.492   0.986   0.493 -1.1027  0.4287  0.3843
12180TIP3    H258032   2.470   0.838   0.509 -0.9261  0.4778  1.1117
12181TIP3   OH258033   4.824   4.931   6.408  0.0870  0.3990  0.4113
12181TIP3    H158034   4.913   4.967   6.415 -0.8298  2.7069  1.2647
12181TIP3    H258035   4.822   4.860   6.472  1.2965  0.3666  0.4316
12182TIP3   OH258036   0.757   6.517  11.307 -0.1954 -0.3171  0.7221
12182TIP3    H158037   0.681   6.486  11.259 -0.2606 -0.6092  1.0070
12182TIP3    H258038   0.722   6.550  11.390 -0.0986  0.2949  0.5228
12183TIP3   OH258039   1.673   2.423  11.471  0.7161  0.2419 -0.3985
12183TIP3    H158040   1.640   2.418  11.560  0.9209 -0.7943 -0.3632
12183TIP3    H258041   1.715   2.508  11.465 -0.5788  0.9386  0.0378
12184TIP3   OH258042   5.546   3.161   4.648 -0.2740  0.3989  0.8247
12184TIP3    H158043   5.576   3.075   4.675 -1.7860 -0.0603  1.1118
12184TIP3    H258044   5.564   3.164   4.554  1.4616  0.5108  1.1279
12185TIP3   OH258045   6.121   2.948   6.066 -0.4087  0.3164  0.2337
12185TIP3    H158046   6.137   2.942   6.160 -0.5591 -0.7407  0.2073
12185TIP3    H258047   6.115   2.857   6.037 -1.9831  0.6227 -0.5145
12186TIP3   OH258048   1.636   1.831  13.652 -0.2457 -0.0511 -0.5663
12186TIP3    H158049   1.641   1.921  13.620  0.3738 -0.3380 -1.3072
12186TIP3    H258050   1.543   1.815  13.664 -0.3984  0.4853 -1.0081
12187TIP3   OH258051   0.839   5.100   0.663  0.1091  0.0225  0.0045
12187TIP3    H158052   0.771   5.141   0.717 -0.2458  1.2105 -1.2751
12187TIP3    H258053   0.797   5.022   0.627  0.4478 -0.9493  1.6329
12188TIP3   OH258054   5.100   1.804  14.005  0.1989 -0.3913  0.4644
12188TIP3    H158055   5.089   1.895  14.032  0.3972  0.2315 -1.4420
12188TIP3    H258056   5.036   1.756  14.057  0.0559  0.8286  1.4642
12189TIP3   OH258057   3.994   3.320  12.986 -0.0694  0.4233 -0.5821
12189TIP3    H158058   3.938   3.272  13.049  0.3189 -0.4040 -0.8475
12189TIP3    H258059   3.949   3.403  12.973  0.8472  1.5183  2.3535
12190TIP3   OH258060   2.478   4.018  15.785  0.6066 -0.3203 -0.2789
12190TIP3    H158061   2.513   4.026  15.696  2.5346  1.8609  0.5746
12190TIP3    H258062   2.549   3.979  15.836  1.3189  2.5474  1.1384
12191TIP3   OH258063   4.279   6.102   3.393  0.2610  0.1040 -0.4019
12191TIP3    H158064   4.195   6.063   3.368 -0.3691  1.0592  0.1826
12191TIP3    H258065   4.331   6.028   3.424  0.3237 -0.8040 -2.5060
12192TIP3   OH258066   4.277   1.369  14.342 -0.1428 -0.6861  0.2620
12192TIP3    H158067   4.215   1.320  14.287  0.3158 -0.3747 -0.5523
12192TIP3    H258068   4.248   1.459  14.337  0.5277 -0.4911 -0.3639
12193TIP3   OH258069   5.876   4.082   5.676 -0.2764  0.4481 -0.3226
12193TIP3    H158070   5.844   4.109   5.590 -0.3337  1.5639  0.0426
12193TIP3    H258071   5.800   4.089   5.733 -0.1289  0.1324 -0.0828
12194TIP3   OH258072   5.322   3.380  15.989 -0.4662  0.4328 -0.2140
12194TIP3    H158073   5.235   3.357  15.957 -1.0883  1.2429  0.8243
12194TIP3    H258074   5.376   3.387  15.910 -1.2184 -0.5500 -0.8316
12195TIP3   OH258075   3.482   2.482   5.322  0.8470 -0.3296  0.4119
12195TIP3    H158076   3.530   2.451   5.246 -0.9861 -0.7301 -0.6432
12195TIP3    H258077   3.462   2.573   5.302  1.1886 -0.1558  0.8548
12196TIP3   OH258078   1.279   4.130  16.758  0.8998  0.1964 -0.1638
12196TIP3    H158079   1.294   4.150  16.851  0.1752 -1.1355  0.2682
12196TIP3    H258080   1.254   4.214  16.719  0.6550  0.6646  0.9681
12197TIP3   OH258081   4.830   6.533  15.870 -0.2897 -0.1031 -0.4026
12197TIP3    H158082   4.763   6.596  15.894 -0.6302  0.1983 -2.0587
12197TIP3    H258083   4.816   6.459  15.930 -1.8107  0.1352 -0.4341
12198TIP3   OH258084   3.376   4.723   6.398  0.3973 -0.0938 -0.4848
12198TIP3    H158085   3.415   4.810   6.392  1.0222 -0.4158 -1.2194
12198TIP3    H258086   3.305   4.733   6.461  0.3158  1.0049 -0.7277
12199TIP3   OH258087   4.845   5.924  11.819  1.2827 -0.1996  0.4982
12199TIP3    H158088   4.785   5.971  11.876 -0.0269 -1.8541  0.5475
12199TIP3    H258089   4.850   5.977  11.740  0.3967  0.3674  0.8124
12200TIP3   OH258090   3.153   0.560   4.413 -0.4189  0.3289  0.4853
12200TIP3    H158091   3.073   0.611   4.399 -0.6656  0.0107  0.7111
12200TIP3    H258092   3.127   0.470   4.392  0.0478  0.3117 -0.0466
12201TIP3   OH258093   4.994   0.563  15.963 -0.0141  0.0640  0.0142
12201TIP3    H158094   4.978   0.648  15.924  0.5356  1.4875  2.6692
12201TIP3    H258095   5.082   0.540  15.935 -0.2309  0.2410 -0.8614
12202TIP3   OH258096   3.833   1.430   0.976 -0.1312  0.5514  0.0858
12202TIP3    H158097   3.829   1.457   0.884 -2.8102  1.0661  0.2646
12202TIP3    H258098   3.846   1.512   1.024 -0.2932  0.4887  0.2371
12203TIP3   OH258099   2.419   4.289   0.727 -0.2415  0.2070  0.3146
12203TIP3    H158100   2.505   4.328   0.737  0.9305 -1.5569 -1.9813
12203TIP3    H258101   2.436   4.195   0.719 -2.4733 -0.2816  0.6198
12204TIP3   OH258102   5.294   4.427   5.629 -0.3747  0.4301 -0.1024
12204TIP3    H158103   5.213   4.385   5.657 -0.6792  1.0260 -0.0651
12204TIP3    H258104   5.269   4.519   5.613  0.6589  1.0785  1.7006
12205TIP3   OH258105   1.067   0.043  15.656 -0.0961  0.3352  0.4828
12205TIP3    H158106   1.056   0.040  15.561  0.8634  0.7199  0.3504
12205TIP3    H258107   1.144   0.098  15.670 -1.2316  1.7402  1.5608
12206TIP3   OH258108   4.273   4.514  17.271 -0.3208  0.2714  0.1616
12206TIP3    H158109   4.348   4.490  17.326  1.1520 -1.2321 -2.3328
12206TIP3    H258110   4.293   4.603  17.240  0.6790 -0.2691 -0.7987
12207TIP3   OH258111   2.021   4.667   3.922 -0.2774 -0.0024  0.1426
12207TIP3    H158112   2.068   4.676   3.839 -0.4153 -0.3233  0.0292
12207TIP3    H258113   2.058   4.735   3.978  0.0064  0.0379 -0.0930
12208TIP3   OH258114   3.027   4.602   4.499 -0.4264 -0.1539  0.3876
12208TIP3    H158115   3.112   4.604   4.455 -0.5907  0.0296  0.0769
12208TIP3    H258116   3.031   4.525   4.555  0.4869  0.6300  1.4601
12209TIP3   OH258117   0.456   5.679   4.757  0.0766  0.9753 -0.0889
12209TIP3    H158118   0.396   5.719   4.820 -0.4200 -0.3604  0.3287
12209TIP3    H258119   0.522   5.635   4.811 -0.1575  0.1007 -0.4940
12210TIP3   OH258120   5.998   0.615   6.402 -0.0095 -0.0444  0.1132
12210TIP3    H158121   5.998   0.530   6.359  0.5612 -0.5405  1.0509
12210TIP3    H258122   5.932   0.607   6.472 -2.1974  1.3059 -1.6330
12211TIP3   OH258123   4.573   2.730   4.191  0.4331  0.7279  0.1028
12211TIP3    H158124   4.545   2.736   4.282 -1.7379  0.7585 -0.5106
12211TIP3    H258125   4.522   2.796   4.145  0.7908  0.0780 -1.3006
12212TIP3   OH258126   4.118   3.137  14.582 -0.5019  0.2471  0.1732
12212TIP3    H158127   4.113   3.221  14.536  2.1236  0.9609  1.0080
12212TIP3    H258128   4.114   3.072  14.512 -0.6980  1.1404 -0.6735
12213TIP3   OH258129   6.144   1.766  16.732 -0.0229 -0.1917 -0.6686
12213TIP3    H158130   6.163   1.752  16.640 -1.4947  0.1038 -1.0446
12213TIP3    H258131   6.167   1.683  16.774 -0.0452 -0.5808 -1.4152
12214TIP3   OH258132   5.300   2.936   3.112 -0.0179 -0.1326  0.8624
12214TIP3    H158133   5.279   3.012   3.167  0.6681  0.8477 -0.2106
12214TIP3    H258134   5.264   2.862   3.161 -2.7020  1.0642  0.9092
12215TIP3   OH258135   6.401   4.571  14.580  0.1924 -0.1731  0.3285
12215TIP3    H158136   6.356   4.596  14.499 -1.3779 -0.1679  1.1767
12215TIP3    H258137   6.363   4.628  14.647  1.3014 -0.3473  1.1274
12216TIP3   OH258138   4.786   2.617  15.451 -0.2790  0.4666 -0.2870
12216TIP3    H158139   4.836   2.558  15.395  0.6741 -0.3195  1.3489
12216TIP3    H258140   4.700   2.576  15.458 -0.6440  0.9337 -1.7019
12217TIP3   OH258141   3.699   0.553   4.640 -0.1388  0.4054  0.0401
12217TIP3    H158142   3.718   0.477   4.695  0.0453 -0.2626 -0.9295
12217TIP3    H258143   3.613   0.584   4.670 -0.6914 -0.8097 -0.2488
12218TIP3   OH258144   0.516   0.375  15.890 -0.4208 -0.7342  0.0467
12218TIP3    H158145   0.597   0.323  15.893 -0.8018 -1.4074 -0.8719
12218TIP3    H258146   0.511   0.417  15.976  3.1524  2.8642 -1.2083
12219TIP3   OH258147   0.700   6.064   4.740  0.1778  0.1340 -0.0616
12219TIP3    H158148   0.618   6.018   4.757  1.5000 -2.7331 -0.8258
12219TIP3    H258149   0.678   6.157   4.749 -2.8358 -0.5703  0.9161
12220TIP3   OH258150   3.942   4.051  15.874 -0.0651  0.5781  0.0739
12220TIP3    H158151   3.976   3.963  15.858 -2.5681 -0.2281 -1.2870
12220TIP3    H258152   3.875   4.039  15.941 -0.4911  1.4238 -0.1809
12221TIP3   OH258153   4.801   4.359   4.650  0.2269  0.1302  0.0592
12221TIP3    H158154   4.841   4.446   4.644  0.7042 -0.1360 -0.9333
12221TIP3    H258155   4.718   4.373   4.695  0.7729  0.9323  0.8389
12222TIP3   OH258156   1.250   6.625  13.157  1.1014 -0.2942  0.3468
12222TIP3    H158157   1.160   6.602  13.182  0.2100  2.5801  0.2086
12222TIP3    H258158   1.301   6.613  13.237  0.5448 -1.6550  0.5155
12223TIP3   OH258159   1.606   2.654  14.962 -0.1764  0.1407 -0.2390
12223TIP3    H158160   1.561   2.579  15.001  1.2290 -2.1441 -2.6573
12223TIP3    H258161   1.699   2.634  14.971  0.2658  2.0891 -0.1184
12224TIP3   OH258162   4.943   3.636   1.785  0.6146  0.1659 -0.3749
12224TIP3    H158163   5.005   3.592   1.843 -1.2009  0.1544  1.7383
12224TIP3    H258164   4.948   3.587   1.703  2.8563 -0.2304 -0.0658
12225TIP3   OH258165   3.448   5.445   1.845  0.2302 -0.4045  0.3559
12225TIP3    H158166   3.371   5.498   1.825  0.3567 -0.4797 -0.3484
12225TIP3    H258167   3.460   5.389   1.768  2.5289  1.4293 -0.7886
12226TIP3   OH258168   1.992   3.462   0.916 -0.4045 -0.2876 -0.5423
12226TIP3    H158169   2.053   3.488   0.847  1.7169 -0.4063  1.1801
12226TIP3    H258170   2.048   3.423   0.984 -2.0976  1.6381  2.1477
12227TIP3   OH258171   1.135   3.240  11.972 -0.5392 -0.1620 -0.2576
12227TIP3    H158172   1.077   3.211  12.042 -0.9614  0.1384 -0.4778
12227TIP3    H258173   1.157   3.331  11.995 -0.9654  0.0552 -0.6942
12228TIP3   OH258174   2.258   1.381   1.583  0.0904  0.0179  0.1058
12228TIP3    H158175   2.340   1.341   1.612  0.0526 -0.2285 -0.1257
12228TIP3    H258176   2.200   1.308   1.567  0.6096  0.0322 -2.1353
12229TIP3   OH258177   1.227   5.346  10.528 -0.4741  0.3099  0.0066
12229TIP3    H158178   1.259   5.308  10.446 -0.9173 -0.3040  0.1125
12229TIP3    H258179   1.215   5.439  10.507  1.5773  0.6210  0.0455
12230TIP3   OH258180   1.810   4.561  16.417 -0.1076  0.5418  0.3481
12230TIP3    H158181   1.813   4.476  16.374  1.6382  0.3470  0.7724
12230TIP3    H258182   1.785   4.541  16.507  0.5156  0.4361  0.5035
12231TIP3   OH258183   5.709   2.664   6.353  0.4349 -0.3218 -0.1616
12231TIP3    H158184   5.668   2.580   6.375 -1.1313 -0.0597 -1.7922
12231TIP3    H258185   5.635   2.722   6.334  1.4429  1.7241  1.7631
12232TIP3   OH258186   2.502   1.617   1.950  0.1603 -0.0542 -0.1253
12232TIP3    H158187   2.532   1.602   2.040  0.1511  2.7005  0.4224
12232TIP3    H258188   2.407   1.608   1.955  0.1952 -0.4049 -0.0038
12233TIP3   OH258189   5.576   4.811   4.807 -0.6839  0.4866  0.1270
12233TIP3    H158190   5.523   4.819   4.728 -0.1869  1.5374 -0.1086
12233TIP3    H258191   5.665   4.834   4.780  0.0948 -1.9657  0.3469
12234TIP3   OH258192   1.871   6.000   2.298  0.1326  0.3502  0.4824
12234TIP3    H158193   1.840   6.044   2.219  1.3406  1.1825  0.4517
12234TIP3    H258194   1.904   5.916   2.267 -0.3759  0.2200  0.2697
12235TIP3   OH258195   0.228   4.385  15.871 -0.5695 -0.2812  0.0946
12235TIP3    H158196   0.322   4.401  15.884  0.1696 -3.5102 -0.5080
12235TIP3    H258197   0.215   4.396  15.777 -1.0779  1.0943  0.2928
12236TIP3   OH258198   2.051   6.296  13.967  0.8261 -0.2329 -0.1937
12236TIP3    H158199   2.129   6.266  14.013  0.8602  0.0157 -0.0875
12236TIP3    H258200   2.002   6.347  14.032  0.7850 -0.0349 -0.3783
12237TIP3   OH258201   1.085   6.180  16.304  0.0487  0.2393 -0.2825
12237TIP3    H158202   0.991   6.195  16.291  0.1049 -0.7642 -2.0940
12237TIP3    H258203   1.125   6.266  16.289 -0.4701  0.4234 -0.6362
12238TIP3   OH258204   6.308   5.856  14.464 -1.1229  0.0434  0.3803
12238TIP3    H158205   6.285   5.763  14.457  1.7617 -0.7741  0.2749
12238TIP3    H258206   6.342   5.865  14.553 -0.4952  0.7520  0.0760
12239TIP3   OH258207   0.312   3.546  13.133  0.7182 -0.6289  0.3574
12239TIP3    H158208   0.405   3.550  13.158  0.9124 -2.0799 -0.0340
12239TIP3    H258209   0.265   3.579  13.209  1.5716  0.6145  0.3704
12240TIP3   OH258210   0.667   4.579   6.457 -0.2036  0.2961 -0.2376
12240TIP3    H158211   0.733   4.514   6.479  1.7058  2.0511 -0.4593
12240TIP3    H258212   0.702   4.661   6.492 -2.0464  1.3896 -0.8128
12241TIP3   OH258213   1.535   2.485   5.743 -0.2737  0.2476 -0.7947
12241TIP3    H158214   1.545   2.390   5.753 -0.6834  0.2263 -0.5602
12241TIP3    H258215   1.471   2.495   5.672 -0.7826  0.3314 -0.3347
12242TIP3   OH258216   2.466   4.935  16.382 -0.1558  0.4520 -0.1404
12242TIP3    H158217   2.438   4.851  16.420 -0.6713  0.5906 -0.2073
12242TIP3    H258218   2.438   5.001  16.446  0.1212  0.5860 -0.1568
12243TIP3   OH258219   4.126   4.164  12.989  0.0721  0.7951 -0.7419
12243TIP3    H158220   4.134   4.119  12.905 -0.8414 -0.4122 -0.2268
12243TIP3    H258221   4.050   4.122  13.031  2.9343 -1.7725  2.5463
12244TIP3   OH258222   6.291   4.007  15.182 -0.0649  0.0426 -0.4263
12244TIP3    H158223   6.335   4.078  15.135 -0.4026  0.3907 -0.2160
12244TIP3    H258224   6.216   3.985  15.126  0.4401 -0.6428 -0.8508
12245TIP3   OH258225   3.819   4.898  16.464 -0.2561  0.7029 -0.2520
12245TIP3    H158226   3.877   4.857  16.529  1.0234  0.6753 -1.3744
12245TIP3    H258227   3.766   4.826  16.431 -1.0923  0.7555  0.9051
12246TIP3   OH258228   2.242   3.188  13.997  0.2628  0.3454 -0.0929
12246TIP3    H158229   2.288   3.105  14.010  2.5888  1.7964  1.6754
12246TIP3    H258230   2.300   3.239  13.942 -0.0602  1.6214  0.7250
12247TIP3   OH258231   2.789   1.972   2.740  0.3886 -0.1245  0.1339
12247TIP3    H158232   2.846   1.930   2.805  0.6583  0.8667  0.5624
12247TIP3    H258233   2.726   2.021   2.792  1.4650  1.8357 -0.2886
12248TIP3   OH258234   2.314   4.186  14.740  0.0929  0.6472  0.4525
12248TIP3    H158235   2.385   4.182  14.804 -0.4552  0.3740  1.0491
12248TIP3    H258236   2.250   4.122  14.771  0.1675 -0.0555 -0.7891
12249TIP3   OH258237   1.657   5.558   0.470 -0.5669 -1.0942  0.3361
12249TIP3    H158238   1.614   5.473   0.481 -2.5888 -0.1901 -0.0285
12249TIP3    H258239   1.602   5.619   0.519  0.4366  0.1253  0.0066
12250TIP3   OH258240   5.536   6.761   5.289  0.5364  0.2633  0.2292
12250TIP3    H158241   5.596   6.697   5.252 -0.8715 -1.1334  0.2813
12250TIP3    H258242   5.593   6.832   5.320  2.1872 -1.1463  0.5846
12251TIP3   OH258243   4.139   1.647   4.258 -0.1581  0.2405 -0.0070
12251TIP3    H158244   4.097   1.643   4.172  1.5147 -0.7222 -0.8353
12251TIP3    H258245   4.194   1.569   4.262 -0.1736  0.2575  1.9568
12252TIP3   OH258246   5.158   1.965   5.057  0.0823 -0.3868 -0.1206
12252TIP3    H158247   5.209   2.005   5.127  1.2165  0.8838 -1.6004
12252TIP3    H258248   5.211   1.891   5.028 -1.0239 -1.7613  1.2050
12253TIP3   OH258249   5.732   3.910   3.754 -0.2300 -0.1897 -0.4286
12253TIP3    H158250   5.746   3.839   3.817 -2.4583 -0.7890 -0.5069
12253TIP3    H258251   5.725   3.989   3.808  0.1567 -0.3524 -0.1409
12254TIP3   OH258252   5.657   1.339  13.462 -0.1060 -0.5051 -0.2086
12254TIP3    H158253   5.691   1.381  13.541  0.3195  3.1005 -2.0749
12254TIP3    H258254   5.706   1.257  13.455  1.9174  0.4420  1.7564
12255TIP3   OH258255   3.043   5.010  13.959 -0.2893  0.1935 -0.0123
12255TIP3    H158256   3.090   5.089  13.931  1.1554  0.3158  2.4558
12255TIP3    H258257   2.965   5.044  14.003 -1.3105  0.0804 -1.6576
12256TIP3   OH258258   3.471   2.815   4.848 -0.0333  0.1925 -0.4252
12256TIP3    H158259   3.441   2.893   4.895  0.8965  1.5460 -1.9603
12256TIP3    H258260   3.408   2.747   4.872 -2.2910  1.9918 -0.8013
12257TIP3   OH258261   2.023   4.591  10.820 -0.8225 -0.3341 -0.1267
12257TIP3    H158262   2.036   4.564  10.730 -1.1871 -1.5931  0.1804
12257TIP3    H258263   1.928   4.592  10.832 -0.8758  1.7901 -0.3031
12258TIP3   OH258264   5.858   0.086   1.558  0.0819  0.0617  0.3060
12258TIP3    H158265   5.777   0.124   1.525  0.7331  2.2236  1.0308
12258TIP3    H258266   5.835   0.052   1.645 -0.5413 -1.4067 -0.4067
12259TIP3   OH258267   4.488   5.805  13.944  0.7908 -0.0504 -0.0486
12259TIP3    H158268   4.398   5.834  13.961  1.1568  1.2856 -0.3349
12259TIP3    H258269   4.486   5.774  13.853  0.8633  1.0467 -0.4392
12260TIP3   OH258270   0.938   4.639  12.725 -0.0280 -0.0886 -0.3749
12260TIP3    H158271   0.925   4.727  12.759  0.3519 -0.5177  0.9428
12260TIP3    H258272   1.022   4.643  12.679 -0.6407  0.5478 -1.4849
12261TIP3   OH258273   1.900   2.554  13.714 -0.6695  0.4416  0.5977
12261TIP3    H158274   1.809   2.525  13.714 -0.7478  0.4805 -1.9166
12261TIP3    H258275   1.951   2.474  13.725 -0.9923 -0.2636 -2.1771
12262TIP3   OH258276   4.710   5.095   2.387  0.8242  0.2680  0.1903
12262TIP3    H158277   4.653   5.023   2.411 -1.3510  1.8172 -0.0082
12262TIP3    H258278   4.666   5.137   2.314  3.0815  0.6119 -1.0741
12263TIP3   OH258279   0.743   5.602  11.473 -0.2008 -0.0034 -0.0535
12263TIP3    H158280   0.773   5.669  11.410 -2.7343  0.4399 -0.8989
12263TIP3    H258281   0.748   5.520  11.424  1.8038 -0.3266  0.6074
12264TIP3   OH258282   5.790   4.665   3.049  0.2129  0.1843  0.0791
12264TIP3    H158283   5.880   4.637   3.031  0.5811  0.1178  1.8166
12264TIP3    H258284   5.771   4.729   2.981  1.2360 -0.4928 -0.8735
12265TIP3   OH258285   3.760   2.584   2.552 -0.6506 -0.5569  0.2313
12265TIP3    H158286   3.809   2.504   2.534 -2.3579 -1.7545  0.6986
12265TIP3    H258287   3.783   2.606   2.643 -0.4981 -0.7474  0.2380
12266TIP3   OH258288   0.104   3.511   1.502  0.3728  0.3982  0.3492
12266TIP3    H158289   0.190   3.498   1.542  0.0219 -0.5215  0.8277
12266TIP3    H258290   0.052   3.554   1.570  0.8002  2.1778 -0.3788
12267TIP3   OH258291   4.396   2.308  16.596  0.1858 -0.4186  0.1499
12267TIP3    H158292   4.323   2.251  16.573 -0.1572 -0.4468  1.2541
12267TIP3    H258293   4.355   2.382  16.642  0.7538  0.0833 -0.1263
12268TIP3   OH258294   4.863   6.210   6.290 -0.2386 -0.2149 -0.3360
12268TIP3    H158295   4.922   6.154   6.239 -0.7102 -1.4981  0.4585
12268TIP3    H258296   4.900   6.297   6.284  2.2676 -1.1124  0.8465
12269TIP3   OH258297   5.005   0.121   0.674  1.0038  0.3562 -0.0678
12269TIP3    H158298   5.031   0.188   0.737 -1.6948  0.0115  1.6036
12269TIP3    H258299   4.935   0.163   0.623 -1.2877 -1.2375  1.5209
12270TIP3   OH258300   4.689   0.803  13.629  0.3100 -0.0718  0.2256
12270TIP3    H158301   4.696   0.895  13.653  0.8903  0.3794 -1.5813
12270TIP3    H258302   4.595   0.786  13.624  0.0159  1.6659 -3.6592
12271TIP3   OH258303   3.097   5.915   4.845 -0.2527  0.0970  0.0840
12271TIP3    H158304   3.145   5.916   4.762 -2.0096  1.9081 -1.0097
12271TIP3    H258305   3.100   5.824   4.874  2.0367 -0.2197 -0.9640
12272TIP3   OH258306   4.446   4.335   6.020 -0.1834 -0.3635 -0.0744
12272TIP3    H158307   4.381   4.390   5.976  0.8029  0.3992 -0.6087
12272TIP3    H258308   4.525   4.342   5.966  0.7202 -0.2820  1.2046
12273TIP3   OH258309   2.165   4.724  12.947 -0.0004 -0.3097  0.6489
12273TIP3    H158310   2.259   4.722  12.926  0.0015  0.6162  0.5027
12273TIP3    H258311   2.148   4.641  12.991  1.1733  0.0281  1.8235
12274TIP3   OH258312   1.842   0.729  13.449 -0.2297  0.0091  0.2528
12274TIP3    H158313   1.765   0.772  13.413  0.1471 -0.3451 -1.0558
12274TIP3    H258314   1.828   0.729  13.543 -1.7304  0.1331  0.0579
12275TIP3   OH258315   1.529   3.699  15.079  0.1928  0.0662 -0.2610
12275TIP3    H158316   1.588   3.772  15.099  0.0084  0.5852 -1.5154
12275TIP3    H258317   1.561   3.627  15.134  2.0292  0.3179 -0.9263
12276TIP3   OH258318   2.887   5.719   0.559 -0.6659  0.3891 -0.0001
12276TIP3    H158319   2.914   5.803   0.594 -0.1575  0.3960 -0.3963
12276TIP3    H258320   2.945   5.655   0.602  1.3858  0.5742 -2.2519
12277TIP3   OH258321   2.053   1.784   4.174 -0.5388  0.3505  0.1592
12277TIP3    H158322   1.968   1.769   4.215  0.3043 -1.4494  1.4052
12277TIP3    H258323   2.082   1.697   4.145  0.7271  0.9718 -0.5382
12278TIP3   OH258324   1.432   3.690  11.794  0.4963 -0.1341 -0.0837
12278TIP3    H158325   1.526   3.687  11.776  0.9493  3.8532  0.7003
12278TIP3    H258326   1.391   3.693  11.708  0.9999 -2.0736 -0.4370
12279TIP3   OH258327   4.799   6.390   5.173  0.3604 -0.4074  0.6116
12279TIP3    H158328   4.872   6.440   5.211  0.3378 -1.0995  1.6164
12279TIP3    H258329   4.840   6.335   5.107  0.5874 -0.0094  0.4193
12280TIP3   OH258330   2.573   6.473   5.107 -0.3030  0.3835 -0.5091
12280TIP3    H158331   2.543   6.485   5.016 -0.5781  2.1914 -0.2258
12280TIP3    H258332   2.508   6.519   5.160  1.7501  2.6053  0.2903
12281TIP3   OH258333   5.708   1.468  14.459 -0.6756  0.1318  0.0601
12281TIP3    H158334   5.801   1.482  14.444 -0.3069  0.8253  2.4739
12281TIP3    H258335   5.674   1.436  14.376  1.8430 -0.8666 -0.6635
12282TIP3   OH258336   3.845   4.631  16.983  0.0957 -0.5032  0.3041
12282TIP3    H158337   3.907   4.562  17.003  0.9198  0.8197  2.7316
12282TIP3    H258338   3.784   4.632  17.057 -0.0341  1.1580  0.2299
12283TIP3   OH258339   1.259   1.194  11.812 -0.0455  0.5382  0.0116
12283TIP3    H158340   1.230   1.110  11.776 -1.9489  0.6496  1.1455
12283TIP3    H258341   1.307   1.236  11.741 -0.3662 -0.8721 -1.0691
12284TIP3   OH258342   2.624   6.548   0.545  0.4212  0.2181  0.4298
12284TIP3    H158343   2.575   6.548   0.627 -1.3912 -1.6539 -0.5554
12284TIP3    H258344   2.624   6.640   0.517 -1.2887  0.4965  1.2160
12285TIP3   OH258345   6.654   0.578   0.882 -0.1276  0.1065  0.2968
12285TIP3    H158346   6.631   0.524   0.806  0.8215 -0.2619  0.2592
12285TIP3    H258347   6.570   0.608   0.916 -0.6315 -0.6991 -0.1958
12286TIP3   OH258348   2.560   1.356  16.246 -0.2469  0.1855  0.0514
12286TIP3    H158349   2.557   1.348  16.151  1.9145  1.1625 -0.1331
12286TIP3    H258350   2.536   1.447  16.264 -0.1768  0.1333  0.4163
12287TIP3   OH258351   0.026   0.298  16.216 -0.5362 -0.5338 -0.4685
12287TIP3    H158352   0.063   0.382  16.188 -0.7175  0.5438  2.1408
12287TIP3    H258353   0.102   0.240  16.226 -0.4247 -0.7966 -2.4526
12288TIP3   OH258354   4.887   0.739   5.727  0.2910 -0.3640  0.1320
12288TIP3    H158355   4.959   0.710   5.671  0.2035  0.0271 -0.1877
12288TIP3    H258356   4.927   0.801   5.789 -0.0611  1.2471 -1.1786
12289TIP3   OH258357   6.137   3.852  10.511 -0.2232  0.2255  0.1085
12289TIP3    H158358   6.227   3.845  10.543 -0.1330 -0.8603 -0.3411
12289TIP3    H258359   6.130   3.942  10.480  0.3039  0.6933  1.3158
12290TIP3   OH258360   3.922   1.402  11.433 -0.1664  0.2118  0.1263
12290TIP3    H158361   3.926   1.495  11.409  0.0775  0.6008  1.6208
12290TIP3    H258362   3.892   1.402  11.524 -0.6117 -1.2018 -0.0053
12291TIP3   OH258363   2.525   3.290  11.725 -1.0033  0.2866  0.1481
12291TIP3    H158364   2.438   3.289  11.763 -0.0900 -0.2298  2.3931
12291TIP3    H258365   2.581   3.326  11.794  0.9078 -1.6379 -0.2901
12292TIP3   OH258366   2.219   0.684  13.393 -0.0349  0.2485 -0.1548
12292TIP3    H158367   2.200   0.673  13.486 -0.0698  1.0830 -0.0605
12292TIP3    H258368   2.259   0.601  13.367  2.2755  0.8713  1.1562
12293TIP3   OH258369   0.276   0.298  13.371  0.1501 -0.1692  0.3106
12293TIP3    H158370   0.299   0.290  13.279  1.0612  3.0623  0.1429
12293TIP3    H258371   0.290   0.210  13.407  1.4351 -1.1097 -2.2484
12294TIP3   OH258372   6.743   3.410  13.219  0.2198  0.5131  0.5123
12294TIP3    H158373   6.648   3.396  13.215  0.0616  1.4927  0.4511
12294TIP3    H258374   6.764   3.405  13.312  0.2986 -0.7582  0.4472
12295TIP3   OH258375   6.280   3.421   2.933 -0.2225 -0.1661  0.1863
12295TIP3    H158376   6.213   3.369   2.889 -0.8247 -0.0358  0.9109
12295TIP3    H258377   6.258   3.511   2.911 -1.0205 -0.0451  1.3692
12296TIP3   OH258378   2.345   3.761   2.131 -0.6830 -0.8422  0.2847
12296TIP3    H158379   2.335   3.739   2.039 -0.2722 -0.1175  0.0578
12296TIP3    H258380   2.362   3.677   2.174  0.8146 -1.0068 -0.5527
12297TIP3   OH258381   2.964   4.122  12.893 -0.0356 -0.4786  0.2724
12297TIP3    H158382   3.011   4.173  12.959  0.2130  0.2573 -0.4518
12297TIP3    H258383   2.911   4.187  12.846  0.5517 -0.8167 -0.9006
12298TIP3   OH258384   2.719   4.046   6.532 -0.5893 -0.0794 -0.2904
12298TIP3    H158385   2.723   4.129   6.484 -3.6143  1.2445  1.4014
12298TIP3    H258386   2.794   4.049   6.591  1.3771 -0.2889 -2.6641
12299TIP3   OH258387   4.325   6.767  15.155 -0.3863  0.1269 -0.1295
12299TIP3    H158388   4.274   6.727  15.085 -1.6655 -0.4961  1.1103
12299TIP3    H258389   4.348   6.694  15.212 -1.4576  0.9007  1.3723
12300TIP3   OH258390   1.237   0.948  12.021 -0.2547  0.5248  0.2490
12300TIP3    H158391   1.164   1.003  11.991 -2.2141 -0.3421  3.0779
12300TIP3    H258392   1.307   1.010  12.041 -1.1870  1.6624  0.1074
12301TIP3   OH258393   0.539   0.441  16.315 -0.3413  0.4298  0.4483
12301TIP3    H158394   0.454   0.482  16.328 -0.7363 -0.7901  2.0541
12301TIP3    H258395   0.584   0.451  16.400  1.0862  0.9652 -0.3339
12302TIP3   OH258396   2.423   6.484   0.738 -0.0522 -0.5900 -0.0385
12302TIP3    H158397   2.394   6.486   0.647 -2.0695  1.5110  0.5530
12302TIP3    H258398   2.389   6.401   0.772 -1.2473 -0.3708 -0.6398
12303TIP3   OH258399   1.629   3.531  14.440  0.1092 -0.5154 -0.2242
12303TIP3    H158400   1.618   3.436  14.452 -0.3920 -0.7291 -2.0789
12303TIP3    H258401   1.642   3.542  14.346 -0.6367  1.3280 -0.1548
12304TIP3   OH258402   2.382   5.744  14.909  0.0597 -0.3577 -0.9109
12304TIP3    H158403   2.303   5.746  14.964 -0.1972  1.4431 -1.2912
12304TIP3    H258404   2.362   5.802  14.836  0.2234 -3.0245 -3.2452
12305TIP3   OH258405   5.850   0.505   3.089 -0.2288  0.2792 -0.4211
12305TIP3    H158406   5.784   0.437   3.106  0.6824 -0.5771 -0.1641
12305TIP3    H258407   5.903   0.468   3.019 -0.4829  1.3014 -1.1647
12306TIP3   OH258408   3.272   6.766  13.665 -0.6250  0.7062 -0.1168
12306TIP3    H158409   3.363   6.758  13.634 -0.3925  2.9086 -0.1652
12306TIP3    H258410   3.231   6.824  13.601 -2.0963 -0.2863 -0.1003
12307TIP3   OH258411   5.570   3.931   1.380 -0.1940 -0.0653 -0.1077
12307TIP3    H158412   5.665   3.922   1.368 -0.3466 -1.2522 -0.5526
12307TIP3    H258413   5.560   4.013   1.428  1.0903 -0.1836  0.4042
12308TIP3   OH258414   3.509   2.236   5.419 -0.1763 -0.0204 -0.1467
12308TIP3    H158415   3.517   2.220   5.325 -1.4072  2.0845 -0.6780
12308TIP3    H258416   3.486   2.328   5.425 -1.0996 -0.3462  2.1745
12309TIP3   OH258417   5.491   4.668  14.650 -0.3096 -0.4031 -0.3220
12309TIP3    H158418   5.531   4.752  14.672  0.1496 -1.1088  1.7780
12309TIP3    H258419   5.423   4.690  14.586  0.5479  1.3912 -0.6778
12310TIP3   OH258420   6.339   5.475   2.879 -0.6561 -0.1874  0.5644
12310TIP3    H158421   6.308   5.384   2.874  0.5277 -0.8763  3.3769
12310TIP3    H258422   6.397   5.476   2.955 -1.8650  3.3131  1.6383
12311TIP3   OH258423   1.834   5.615  15.721  0.2648 -0.0729  0.7755
12311TIP3    H158424   1.905   5.678  15.709  0.3815 -0.4139 -0.3615
12311TIP3    H258425   1.873   5.530  15.702 -0.3340 -0.3136  0.5996
12312TIP3   OH258426   2.642   1.814  16.262  0.3670  0.1281  0.1820
12312TIP3    H158427   2.690   1.879  16.314 -1.6366  0.4268  1.7934
12312TIP3    H258428   2.599   1.866  16.194 -1.2439  0.5997  1.4764
12313TIP3   OH258429   1.542   0.982  13.487  0.2402  0.7864 -0.1233
12313TIP3    H158430   1.494   0.901  13.504 -0.9297  1.7365  1.4316
12313TIP3    H258431   1.582   0.969  13.401 -0.1352 -1.3138 -0.0391
12314TIP3   OH258432   2.331   2.143   3.739 -0.1576 -0.4400  0.8866
12314TIP3    H158433   2.254   2.086   3.734 -0.1215 -0.3762 -1.0120
12314TIP3    H258434   2.392   2.108   3.675 -0.5323  2.2385 -1.1244
12315TIP3   OH258435   4.077   0.397   2.189  0.7888 -0.4948 -0.1164
12315TIP3    H158436   4.101   0.351   2.108 -0.1732  0.1031 -0.7594
12315TIP3    H258437   4.082   0.330   2.257 -0.8851 -1.6933 -1.0856
12316TIP3   OH258438   1.809   0.071  12.978  0.4977 -0.3876 -0.5155
12316TIP3    H158439   1.763   0.104  12.901  2.3463 -0.4833 -1.7380
12316TIP3    H258440   1.856   0.147  13.012  0.3261 -0.5284  0.0432
12317TIP3   OH258441   4.039   3.220   5.587 -0.1086 -0.0111  0.4751
12317TIP3    H158442   3.961   3.222   5.531 -0.3698  0.2661  0.8389
12317TIP3    H258443   4.106   3.179   5.534 -0.2804  0.4862 -0.1346
12318TIP3   OH258444   6.477   5.513   0.746  0.3323  0.3184  0.3348
12318TIP3    H158445   6.403   5.556   0.702  0.7491 -0.6540 -1.4361
12318TIP3    H258446   6.438   5.452   0.807 -0.3721 -0.4363 -0.8346
12319TIP3   OH258447   1.734   3.071  17.212 -0.9757 -0.7592 -0.2490
12319TIP3    H158448   1.680   3.142  17.246  0.6922  0.1369  0.7188
12319TIP3    H258449   1.681   2.993  17.222 -1.8724 -0.0151  1.1949
12320TIP3   OH258450   3.218   2.545   2.893  0.5692 -0.1707  0.0863
12320TIP3    H158451   3.133   2.586   2.879  0.0481 -0.8833  0.9997
12320TIP3    H258452   3.225   2.535   2.988  1.6684 -0.1448  0.0317
12321TIP3   OH258453   0.679   6.431  13.480  0.7567  0.1967  0.1184
12321TIP3    H158454   0.768   6.428  13.515  0.6202 -0.6831  0.4127
12321TIP3    H258455   0.666   6.347  13.437  0.5139  0.8233 -1.0851
12322TIP3   OH258456   1.083   6.360  15.189  0.6727 -0.0145 -0.0152
12322TIP3    H158457   1.100   6.450  15.161 -2.7502  0.4902 -0.9399
12322TIP3    H258458   1.153   6.309  15.147  1.5923  1.9612 -1.0444
12323TIP3   OH258459   5.642   5.611   1.190 -0.2858  0.1770 -0.3641
12323TIP3    H158460   5.669   5.703   1.192 -0.4869  0.2504  2.0656
12323TIP3    H258461   5.553   5.612   1.226  0.4282 -1.1459  1.5394
12324TIP3   OH258462   1.034   6.239  13.921 -0.0880  0.2039  0.1896
12324TIP3    H158463   0.941   6.223  13.907  0.1399  0.4045 -1.9348
12324TIP3    H258464   1.078   6.167  13.874  0.8347  0.8905 -0.0287
12325TIP3   OH258465   2.926   0.197   5.325 -0.1542 -0.0795 -0.1612
12325TIP3    H158466   2.929   0.105   5.351  0.9182 -0.0278 -0.0512
12325TIP3    H258467   2.918   0.244   5.408  0.9624 -0.0140 -0.0766
12326TIP3   OH258468   6.262   6.148  11.390  0.6121  0.2158  0.0851
12326TIP3    H158469   6.205   6.099  11.451 -1.5240 -1.7210 -3.1282
12326TIP3    H258470   6.316   6.080  11.349  0.4772  1.1122 -1.6423
12327TIP3   OH258471   1.526   1.226  14.178 -0.1520 -0.3986 -0.3741
12327TIP3    H158472   1.616   1.240  14.210  0.1046  0.0815 -1.2910
12327TIP3    H258473   1.509   1.133  14.197  0.0048 -0.1635  1.0813
12328TIP3   OH258474   3.609   0.194   4.288  0.3163  0.0657 -0.1313
12328TIP3    H158475   3.527   0.198   4.240  0.2452 -0.9402 -0.1178
12328TIP3    H258476   3.675   0.175   4.222  0.6683  1.5303 -0.2492
12329TIP3   OH258477   5.452   0.601   1.819  0.4909 -0.3326 -0.3215
12329TIP3    H158478   5.358   0.589   1.817  0.2790  1.0822 -0.3023
12329TIP3    H258479   5.489   0.515   1.798 -0.7680 -1.1922  0.8510
12330TIP3   OH258480   1.821   2.779  17.142 -0.1151 -0.3974  0.0614
12330TIP3    H158481   1.860   2.701  17.103  1.4636 -0.3679  1.5028
12330TIP3    H258482   1.894   2.827  17.180 -1.0314  1.8988 -0.9033
12331TIP3   OH258483   6.767   0.563   1.117 -0.1500  0.4232  0.2189
12331TIP3    H158484   6.734   0.564   1.027 -1.2839  1.6767  0.6152
12331TIP3    H258485   6.691   0.589   1.170  0.9000  1.1562  1.3991
12332TIP3   OH258486   6.618   6.350  14.045  0.3628  0.0168 -0.4920
12332TIP3    H158487   6.549   6.300  14.088  0.9391 -0.5013 -0.1549
12332TIP3    H258488   6.699   6.314  14.080  0.7981  1.1169 -0.3115
12333TIP3   OH258489   3.334   1.587   4.365  0.3799  0.2749  0.4918
12333TIP3    H158490   3.399   1.562   4.431  0.3492 -0.2756  0.3246
12333TIP3    H258491   3.254   1.541   4.392  1.1366 -2.5561 -1.5965
12334TIP3   OH258492   0.457   6.411  12.750 -0.3736  0.3634 -0.4530
12334TIP3    H158493   0.378   6.418  12.803  0.2427  2.0329  0.3092
12334TIP3    H258494   0.448   6.327  12.704 -0.9008 -1.1894  2.3077
12335TIP3   OH258495   1.289   4.401  13.159 -0.0813  0.2702  0.1527
12335TIP3    H158496   1.236   4.357  13.093  1.8482  0.3787 -1.5741
12335TIP3    H258497   1.226   4.430  13.225 -1.7423 -2.7953  0.1154
12336TIP3   OH258498   5.115   6.635  15.318  0.3225 -0.3013  0.6275
12336TIP3    H158499   5.185   6.682  15.365  1.0011  0.1334 -0.7774
12336TIP3    H258500   5.081   6.699  15.256 -0.3311 -0.9758  0.2770
12337TIP3   OH258501   4.382   2.593   3.331  0.1099  0.2202 -0.6527
12337TIP3    H158502   4.408   2.651   3.402  1.2448 -1.4478  0.3636
12337TIP3    H258503   4.463   2.574   3.284 -0.6563  1.5444 -2.6789
12338TIP3   OH258504   4.595   2.730   6.571 -0.6317  0.7958 -0.4918
12338TIP3    H158505   4.672   2.673   6.567  0.0494  1.4161  2.0981
12338TIP3    H258506   4.629   2.817   6.554 -0.5882  1.1567  1.2402
12339TIP3   OH258507   6.652   3.398   3.769 -0.6574  0.0964 -0.0382
12339TIP3    H158508   6.632   3.415   3.861 -0.6500 -1.5626  0.3055
12339TIP3    H258509   6.582   3.442   3.721 -0.4203  1.3544  0.7163
12340TIP3   OH258510   6.771   3.707   4.287 -0.2761  0.1499 -0.4953
12340TIP3    H158511   6.748   3.690   4.195  0.0767 -0.3401 -0.4949
12340TIP3    H258512   6.721   3.643   4.337 -1.6650  1.4055 -0.2081
12341TIP3   OH258513   6.560   4.398   5.697  0.2899 -0.1296  0.3271
12341TIP3    H158514   6.501   4.351   5.756  1.1378  0.1205  1.3848
12341TIP3    H258515   6.588   4.475   5.746  1.4857 -0.2310 -0.1580
12342TIP3   OH258516   4.691   0.744  13.991 -0.1787 -0.0648 -0.6871
12342TIP3    H158517   4.681   0.819  14.049  3.2143  0.3059 -0.4082
12342TIP3    H258518   4.622   0.683  14.018  0.6141  0.5067  3.0970
12343TIP3   OH258519   2.737   1.267  11.165  0.2415 -0.0937  0.6005
12343TIP3    H158520   2.682   1.229  11.233  1.1589 -1.0898  0.8336
12343TIP3    H258521   2.813   1.208  11.160  1.7444  1.7067  0.9478
12344TIP3   OH258522   4.886   6.540  10.666 -0.2358  0.5325 -0.2278
12344TIP3    H158523   4.901   6.561  10.758  0.9112  1.7285 -0.6560
12344TIP3    H258524   4.971   6.511  10.633 -0.9857 -1.4924 -0.5499
12345TIP3   OH258525   4.483   3.599  14.793  0.0379 -0.1382  0.6602
12345TIP3    H158526   4.563   3.573  14.746  0.5036  2.6614 -0.2976
12345TIP3    H258527   4.412   3.565  14.739  0.5835 -0.1925 -0.0519
12346TIP3   OH258528   0.255   2.977   4.342 -0.1899 -0.1908  0.1456
12346TIP3    H158529   0.340   2.976   4.386 -0.8196  0.5140  1.4285
12346TIP3    H258530   0.248   3.064   4.304 -1.3961  0.7028  2.2673
12347TIP3   OH258531   5.444   6.318  12.477  0.1958  0.0987  0.2932
12347TIP3    H158532   5.358   6.308  12.518  0.5467  0.1794  1.0733
12347TIP3    H258533   5.447   6.250  12.410  0.5165 -1.6177  1.9817
12348TIP3   OH258534   1.569   5.415   3.744  0.2197  0.5270 -0.2748
12348TIP3    H158535   1.635   5.347   3.759  1.9508  2.2732  0.4871
12348TIP3    H258536   1.497   5.369   3.701  0.8006 -2.0117  1.2125
12349TIP3   OH258537   6.012   0.984  13.390  0.5666  0.3024 -0.1369
12349TIP3    H158538   6.106   1.003  13.395  0.5620  0.0040  1.8922
12349TIP3    H258539   6.007   0.889  13.388  0.2947  0.1922  2.5647
12350TIP3   OH258540   3.104   0.382   2.315 -0.0325  0.5076  0.0085
12350TIP3    H158541   3.051   0.324   2.369 -0.1280  1.9189  1.5211
12350TIP3    H258542   3.042   0.443   2.276 -0.1915 -1.4902 -3.2071
12351TIP3   OH258543   4.219   6.076   2.970  0.3459 -0.0116 -0.4013
12351TIP3    H158544   4.155   6.131   3.014 -0.9857 -1.0216 -1.0323
12351TIP3    H258545   4.186   5.987   2.981  1.6749 -0.5629 -0.6932
12352TIP3   OH258546   1.741   4.251   5.382 -0.1301 -0.3485  0.4042
12352TIP3    H158547   1.818   4.306   5.400 -0.3879 -0.3635  1.6257
12352TIP3    H258548   1.762   4.209   5.299 -0.0332  1.7751 -0.7261
12353TIP3   OH258549   4.987   2.955  13.648  0.9241  0.5247  0.3657
12353TIP3    H158550   4.923   3.002  13.701 -0.3852 -1.0153  0.2246
12353TIP3    H258551   5.044   3.024  13.612 -2.5780  2.4105 -2.1372
12354TIP3   OH258552   1.765   5.885   1.926 -0.1468 -0.0195  0.3185
12354TIP3    H158553   1.759   5.912   2.018  0.8288  0.0732  0.3671
12354TIP3    H258554   1.702   5.941   1.881 -1.4293 -0.8012  1.0686
12355TIP3   OH258555   4.954   2.301  15.631 -0.1289  0.2066 -0.3292
12355TIP3    H158556   4.890   2.368  15.658 -0.2780  0.8814 -2.2198
12355TIP3    H258557   4.903   2.239  15.579  0.3882 -0.3766 -0.1582
12356TIP3   OH258558   1.640   2.241   4.662  0.3801  0.4650 -0.1799
12356TIP3    H158559   1.581   2.269   4.592 -0.7642 -1.3045  0.0019
12356TIP3    H258560   1.585   2.243   4.741 -0.0588 -2.8429 -0.2705
12357TIP3   OH258561   1.241   1.616  10.543  0.0383  0.5537 -0.0509
12357TIP3    H158562   1.191   1.576  10.614 -0.5092 -0.9996 -1.2448
12357TIP3    H258563   1.215   1.709  10.544 -0.5254  0.3967  1.2728
12358TIP3   OH258564   6.511   5.178  16.645  0.1525  0.1760 -0.6114
12358TIP3    H158565   6.552   5.167  16.731 -1.2491 -3.3513 -0.2109
12358TIP3    H258566   6.573   5.140  16.584 -0.1024  0.0199 -0.7745
12359TIP3   OH258567   0.118   1.066  13.564  0.1106 -0.2301  0.3792
12359TIP3    H158568   0.187   1.003  13.541  1.1491  0.8955  0.3132
12359TIP3    H258569   0.112   1.061  13.660  0.8873  0.2547  0.4639
12360TIP3   OH258570   5.225   6.748  14.181  0.2622 -0.3273  0.2066
12360TIP3    H158571   5.296   6.718  14.124 -0.1638 -0.1419 -0.4278
12360TIP3    H258572   5.145   6.729  14.133 -0.1055 -0.0917  0.7112
12361TIP3   OH258573   4.592   5.952   1.516  0.0012 -0.1842 -0.1678
12361TIP3    H158574   4.519   5.975   1.574  0.0875 -0.5707  0.0955
12361TIP3    H258575   4.565   5.871   1.474 -0.2779  0.3452 -1.0553
12362TIP3   OH258576   5.472   4.747   3.247  0.0325  0.6776  0.3411
12362TIP3    H158577   5.431   4.791   3.321 -1.5560 -1.9225  1.1710
12362TIP3    H258578   5.429   4.783   3.170 -0.9037  0.9051  0.9537
12363TIP3   OH258579   5.642   6.774   4.783  0.3964  0.1798 -0.1634
12363TIP3    H158580   5.673   6.769   4.873 -0.3456  1.3602  0.1842
12363TIP3    H258581   5.592   6.855   4.780  0.4119  0.1589 -1.6453
12364TIP3   OH258582   4.688   4.362  16.532 -0.5264 -0.0623 -0.2487
12364TIP3    H158583   4.632   4.438  16.516  0.0529  0.7468  1.3553
12364TIP3    H258584   4.720   4.338  16.445  0.8529  2.8115 -0.6873
12365TIP3   OH258585   1.723   6.592   5.914 -0.4296 -0.2665 -0.5205
12365TIP3    H158586   1.737   6.678   5.874 -2.5783  0.3132 -0.1912
12365TIP3    H258587   1.721   6.610   6.008  0.0760 -0.8574 -0.3914
12366TIP3   OH258588   5.253   2.459  12.450  0.3060  0.1551  0.4379
12366TIP3    H158589   5.304   2.422  12.379  1.3643 -2.2214  2.3198
12366TIP3    H258590   5.304   2.534  12.480 -0.2549  1.3151 -1.3345
12367TIP3   OH258591   1.461   2.077   2.027 -0.2012 -0.2985 -0.2069
12367TIP3    H158592   1.518   2.091   1.951  0.7358 -0.6245  0.4136
12367TIP3    H258593   1.388   2.137   2.014  1.6919  2.3664  0.3990
12368TIP3   OH258594   3.995   3.174   2.042  0.0685 -0.2081 -0.2896
12368TIP3    H158595   4.066   3.128   2.088 -0.3957  1.2095  1.9608
12368TIP3    H258596   3.941   3.211   2.111 -3.7245 -2.3249 -1.8438
12369TIP3   OH258597   2.528   6.787   4.805  0.6359  0.1374  0.5264
12369TIP3    H158598   2.483   6.785   4.721  1.1107 -0.3486  0.2739
12369TIP3    H258599   2.618   6.813   4.783  0.2348  2.2531  1.1514
12370TIP3   OH258600   3.440   1.716  15.057  0.0661  0.2318  0.1156
12370TIP3    H158601   3.434   1.797  15.107  0.7587  0.6114 -0.3958
12370TIP3    H258602   3.458   1.744  14.967 -0.4842 -0.4620 -0.2311
12371TIP3   OH258603   1.800   3.839  14.268 -0.0078 -0.2433 -0.0642
12371TIP3    H158604   1.763   3.885  14.192 -0.6723 -1.2676 -0.3678
12371TIP3    H258605   1.743   3.763  14.281 -0.2335  0.1931  1.8082
12372TIP3   OH258606   1.427   0.900  15.902  0.2335 -0.1251 -0.0419
12372TIP3    H158607   1.439   0.907  15.807 -0.0168  3.8359  0.0705
12372TIP3    H258608   1.351   0.955  15.921 -0.9266 -2.3305  2.3408
12373TIP3   OH258609   1.368   3.876  13.260 -0.2321  0.4347 -0.2778
12373TIP3    H158610   1.461   3.858  13.260 -0.0387  1.3758  0.0074
12373TIP3    H258611   1.333   3.822  13.330 -0.4555 -2.4179 -2.4058
12374TIP3   OH258612   6.753   4.696  14.636 -0.2486 -0.0487 -0.2038
12374TIP3    H158613   6.823   4.756  14.663 -0.8754 -0.4144  2.4016
12374TIP3    H258614   6.676   4.724  14.685 -1.5017 -0.8033 -1.6415
12375TIP3   OH258615   6.066   1.568   5.007 -0.3228  0.5489  0.5383
12375TIP3    H158616   5.973   1.585   4.997 -0.0130  1.9422 -0.3067
12375TIP3    H258617   6.084   1.496   4.947 -0.6263  1.1474 -0.2811
12376TIP3   OH258618   6.148   0.856  16.026  0.2239  0.3039  0.0555
12376TIP3    H158619   6.126   0.949  16.024  0.4295  0.3672  0.7388
12376TIP3    H258620   6.241   0.854  16.046  0.4778 -0.0232 -1.0468
12377TIP3   OH258621   2.927   1.316   2.218 -0.7144 -0.0103 -0.2838
12377TIP3    H158622   2.966   1.361   2.293  2.9107  0.7309 -2.4220
12377TIP3    H258623   2.935   1.223   2.239 -1.5354  0.1727  0.9962
12378TIP3   OH258624   0.795   0.834   3.119 -0.5844  0.0047 -0.5993
12378TIP3    H158625   0.816   0.867   3.031  2.1941  0.1872  0.0517
12378TIP3    H258626   0.810   0.740   3.114 -0.6833 -0.0248 -0.3688
12379TIP3   OH258627   0.148   6.635  14.171  0.2277  0.1045  0.0210
12379TIP3    H158628   0.233   6.623  14.213 -0.1251 -0.2669  0.6398
12379TIP3    H258629   0.099   6.691  14.232 -0.0081  0.2333 -0.2833
12380TIP3   OH258630   2.575   3.286  14.972 -0.4741  0.0316 -0.3180
12380TIP3    H158631   2.587   3.227  15.047  0.6810  0.5686 -0.0700
12380TIP3    H258632   2.519   3.356  15.005  1.7014  1.3703  0.6944
12381TIP3   OH258633   6.559   1.549   2.719 -0.1470 -0.4910  0.5249
12381TIP3    H158634   6.502   1.606   2.771  0.5113  0.5865  0.1052
12381TIP3    H258635   6.553   1.463   2.761 -1.5650 -0.2455  0.8702
12382TIP3   OH258636   0.226   6.174   3.974  0.3872 -0.5682  0.0778
12382TIP3    H158637   0.175   6.200   4.050  0.6810  2.8519 -0.7093
12382TIP3    H258638   0.161   6.162   3.904  0.2360 -2.2940  0.4839
12383TIP3   OH258639   0.637   3.987  13.011  0.3483  0.0952 -0.4116
12383TIP3    H158640   0.625   3.990  13.106  2.0451  1.0042 -0.1811
12383TIP3    H258641   0.556   3.948  12.977  0.7794 -2.9137  1.6000
12384TIP3   OH258642   0.042   3.204   6.188  0.5553 -0.2843 -0.2996
12384TIP3    H158643   0.127   3.232   6.225  0.5241 -0.9152  0.2629
12384TIP3    H258644  -0.023   3.237   6.251  0.3426  0.5448 -0.9339
12385TIP3   OH258645   1.595   4.168  11.314 -0.0301  0.5637 -0.1782
12385TIP3    H158646   1.582   4.257  11.282 -0.6844  0.1401 -1.1473
12385TIP3    H258647   1.649   4.126  11.247 -0.3304  0.0235 -0.0848
12386TIP3   OH258648   5.287   5.838   1.170 -0.3638 -0.2182 -0.0594
12386TIP3    H158649   5.253   5.759   1.213 -2.0021 -0.5440 -1.8407
12386TIP3    H258650   5.216   5.902   1.177 -0.0510  0.2379 -0.9030
12387TIP3   OH258651   6.204   6.465  16.330  0.4349 -0.1078 -0.3906
12387TIP3    H158652   6.141   6.397  16.307  0.7789 -0.8118  0.7117
12387TIP3    H258653   6.152   6.546  16.335 -0.3163 -0.6157  0.1642
12388TIP3   OH258654   1.063   1.667  15.940  0.2439  0.1153  0.1537
12388TIP3    H158655   1.144   1.640  15.896 -0.8513 -0.6901 -1.5024
12388TIP3    H258656   1.019   1.584  15.961 -0.4205  0.5481  0.4972
12389TIP3   OH258657   4.233   5.422   2.506  0.2122  0.1788 -0.6860
12389TIP3    H158658   4.253   5.329   2.499 -2.0531 -0.7628  2.7488
12389TIP3    H258659   4.157   5.435   2.449 -0.9612 -0.7028  0.6303
12390TIP3   OH258660   5.962   4.614  14.811  0.5984  0.9016 -0.3057
12390TIP3    H158661   5.875   4.611  14.771  0.3379  0.5044  0.2822
12390TIP3    H258662   5.990   4.705  14.799  0.5564  0.7789 -1.4410
12391TIP3   OH258663   3.310   4.837  15.202  0.0291  0.2655  0.0411
12391TIP3    H158664   3.250   4.871  15.268  1.1709  2.1777  0.1583
12391TIP3    H258665   3.318   4.907  15.138  2.2982  0.1692  0.1536
12392TIP3   OH258666   3.048   0.864  15.595 -0.0192  0.3210  0.1542
12392TIP3    H158667   2.963   0.898  15.567 -0.6193 -0.3358  1.1189
12392TIP3    H258668   3.106   0.877  15.520 -1.4302 -0.8960 -1.2027
12393TIP3   OH258669   0.124   0.984   4.640  0.1000 -0.1426 -0.6464
12393TIP3    H158670   0.057   1.052   4.652  0.4147  0.3553 -1.5855
12393TIP3    H258671   0.180   0.992   4.717 -0.2399  0.2286 -0.4304
12394TIP3   OH258672   2.826   3.521   4.205  0.1588 -0.0635 -0.4213
12394TIP3    H158673   2.919   3.514   4.229 -0.0401 -0.2849  0.3125
12394TIP3    H258674   2.792   3.432   4.214 -0.6777  0.4094  1.6920
12395TIP3   OH258675   1.881   6.415   3.330  0.2443  0.0653  0.4761
12395TIP3    H158676   1.846   6.430   3.242 -0.5254  0.3730  0.8198
12395TIP3    H258677   1.840   6.333   3.358  0.3542  0.0560  0.6102
12396TIP3   OH258678   6.384   5.360  14.112 -0.0373 -0.5064  0.1778
12396TIP3    H158679   6.356   5.274  14.144 -2.8196  0.8533  1.7536
12396TIP3    H258680   6.354   5.421  14.179  1.3345  1.7815 -1.1779
12397TIP3   OH258681   0.260   5.376  13.436 -0.3036  0.1004 -0.1530
12397TIP3    H158682   0.322   5.369  13.510 -2.7109 -0.0375  1.9889
12397TIP3    H258683   0.231   5.467  13.437 -1.9245 -0.3872  0.4940
12398TIP3   OH258684   4.062   1.662  11.973 -0.0154  0.0845 -0.2186
12398TIP3    H158685   4.065   1.755  11.997 -1.0581  0.3941 -1.2147
12398TIP3    H258686   4.038   1.661  11.881 -0.2229 -1.1825 -0.1730
12399TIP3   OH258687   4.598   0.585  10.761 -0.8151 -0.0752 -0.6909
12399TIP3    H158688   4.651   0.664  10.771  0.3062 -0.7602 -1.0369
12399TIP3    H258689   4.511   0.611  10.791 -0.1089  0.8582  0.6793
12400TIP3   OH258690   1.783   6.209  15.166  0.3197  0.6103 -0.2223
12400TIP3    H158691   1.837   6.173  15.237  1.9408 -0.2996 -1.8099
12400TIP3    H258692   1.792   6.304  15.175  0.0268  0.5364  1.0969
12401TIP3   OH258693   2.178   2.181  16.865 -0.6019  0.2527  0.1968
12401TIP3    H158694   2.212   2.270  16.857 -0.2755  0.2519  1.3066
12401TIP3    H258695   2.196   2.157  16.956 -2.6098 -0.1609  0.5308
12402TIP3   OH258696   5.001   0.418   4.571 -0.7087  0.0869 -0.0030
12402TIP3    H158697   5.043   0.376   4.647 -1.0766 -0.5673 -0.1514
12402TIP3    H258698   4.947   0.488   4.609 -0.6298 -0.0208  0.3115
12403TIP3   OH258699   1.163   4.145  15.752  0.1678  0.0170 -0.2854
12403TIP3    H158700   1.252   4.132  15.785  0.1832  1.1455  0.1452
12403TIP3    H258701   1.108   4.093  15.811  0.6145 -1.4770 -1.1382
12404TIP3   OH258702   5.726   4.760   2.779  0.0286 -0.1665  0.2445
12404TIP3    H158703   5.784   4.739   2.705 -2.0662  0.6517 -1.7816
12404TIP3    H258704   5.641   4.777   2.738 -1.1951  0.5811  2.8722
12405TIP3   OH258705   6.516   2.815  11.992  0.3715  0.1527 -0.3686
12405TIP3    H158706   6.482   2.842  12.076  0.9625  0.6291 -0.2761
12405TIP3    H258707   6.449   2.841  11.929  0.1000  0.1341 -0.0897
12406TIP3   OH258708   2.509   5.770  13.711  0.2218  0.0100 -0.0332
12406TIP3    H158709   2.502   5.720  13.792 -0.1813 -2.2007 -1.3416
12406TIP3    H258710   2.549   5.853  13.737  0.0513 -0.6016  2.4070
12407TIP3   OH258711   1.416   2.660  11.603 -0.1830 -0.4355  0.5102
12407TIP3    H158712   1.371   2.601  11.543 -0.0688  0.3893 -0.4144
12407TIP3    H258713   1.449   2.730  11.547 -0.2892  0.4855  1.5703
12408TIP3   OH258714   0.261   4.585   2.920 -0.3581 -0.0780  0.1803
12408TIP3    H158715   0.200   4.514   2.899 -0.4916 -0.0649  0.5074
12408TIP3    H258716   0.347   4.546   2.907 -0.4354 -0.0255 -0.5113
12409TIP3   OH258717   6.574   1.061  15.292 -0.5856 -0.3503  0.0268
12409TIP3    H158718   6.541   1.089  15.378 -0.2593 -0.7769  0.2972
12409TIP3    H258719   6.664   1.034  15.309 -0.3776 -0.0125 -0.5431
12410TIP3   OH258720   3.538   5.760   1.943  0.1054  0.3860 -0.4586
12410TIP3    H158721   3.621   5.791   1.979 -0.7963  4.2760 -1.2666
12410TIP3    H258722   3.564   5.714   1.863  1.5624  0.6859 -0.2036
12411TIP3   OH258723   4.372   0.630   5.561  0.8005  0.6891  0.3202
12411TIP3    H158724   4.366   0.632   5.657  0.1982  0.4962  0.2887
12411TIP3    H258725   4.448   0.574   5.543  0.6014  0.2958  0.6777
12412TIP3   OH258726   2.227   2.410   0.381  0.2895 -0.5521 -0.2625
12412TIP3    H158727   2.270   2.338   0.428 -1.4916 -1.7894 -0.4230
12412TIP3    H258728   2.232   2.485   0.441 -1.2194 -1.8707  1.6483
12413TIP3   OH258729   5.813   6.768   0.287 -0.0544  0.4040  0.3015
12413TIP3    H158730   5.785   6.778   0.379  1.3755  0.3452  0.7662
12413TIP3    H258731   5.866   6.846   0.271  0.4687 -0.0527 -0.1845
12414TIP3   OH258732   0.229   3.667   4.371  0.0454  0.3383 -0.2989
12414TIP3    H158733   0.208   3.574   4.375 -1.0220  0.5771 -0.1980
12414TIP3    H258734   0.319   3.669   4.337  0.7695 -0.7879  1.3793
12415TIP3   OH258735   1.704   2.613   6.169  0.5940  0.6166  0.1560
12415TIP3    H158736   1.720   2.702   6.138  1.4842  0.6657  0.7453
12415TIP3    H258737   1.644   2.576   6.104 -0.9239  2.0875  0.6433
12416TIP3   OH258738   0.202   1.999  14.589 -0.0235 -0.2650  0.2664
12416TIP3    H158739   0.286   2.007  14.543 -0.6541  0.0041 -0.8699
12416TIP3    H258740   0.187   2.086  14.625 -0.0176 -0.1941  0.1014
12417TIP3   OH258741   0.835   3.493  13.561  0.2795 -0.0868 -0.0631
12417TIP3    H158742   0.905   3.457  13.507  0.5949  1.4207 -0.7183
12417TIP3    H258743   0.877   3.561  13.613 -0.7472  1.1791 -0.8168
12418TIP3   OH258744   0.769   6.448  14.080 -0.0064 -0.3054  0.0733
12418TIP3    H158745   0.714   6.513  14.123  0.3224  0.6091 -0.8547
12418TIP3    H258746   0.858   6.481  14.091  0.2236 -0.9558  0.1864
12419TIP3   OH258747   4.733   0.454   2.978 -0.4403  0.2557  0.4040
12419TIP3    H158748   4.754   0.511   2.903  3.3578  0.3773  1.3761
12419TIP3    H258749   4.683   0.510   3.037 -0.6781  1.1525 -0.6094
12420TIP3   OH258750   0.607   5.742   4.525  0.2080  0.0624  0.2490
12420TIP3    H158751   0.570   5.693   4.599  0.3522 -0.9184 -0.3067
12420TIP3    H258752   0.592   5.685   4.449 -0.7587  1.4397 -0.6500
12421TIP3   OH258753   2.792   6.099   1.664 -0.5321 -0.0185  0.1856
12421TIP3    H158754   2.846   6.033   1.707 -1.6794 -1.1738 -0.0555
12421TIP3    H258755   2.702   6.074   1.687 -0.9891  1.7657  0.4863
12422TIP3   OH258756   5.080   1.844   3.272 -0.1443  0.4196  0.1076
12422TIP3    H158757   5.059   1.845   3.365 -0.8176 -1.2154  0.0180
12422TIP3    H258758   5.101   1.935   3.250 -1.4103  1.0818  1.5139
12423TIP3   OH258759   6.306   3.888  12.915  0.3282 -0.3777  0.4290
12423TIP3    H158760   6.288   3.797  12.939 -1.7832 -0.2219 -0.3069
12423TIP3    H258761   6.284   3.938  12.993  0.3196 -0.4003  0.4416
12424TIP3   OH258762   3.542   2.866   1.432  0.0649  0.1386  0.1819
12424TIP3    H158763   3.504   2.940   1.384  0.0129  0.8380  1.2744
12424TIP3    H258764   3.467   2.826   1.476  0.0496 -0.7465 -0.6067
12425TIP3   OH258765   5.050   3.378  15.708  0.1210 -0.3728  0.1249
12425TIP3    H158766   5.005   3.293  15.705 -1.4506  0.4495 -1.3748
12425TIP3    H258767   5.125   3.367  15.651 -0.0251 -0.7995  0.0102
12426TIP3   OH258768   5.999   1.706  11.746  0.1168  0.4285  0.1700
12426TIP3    H158769   6.075   1.751  11.710 -0.2166  1.2752  0.4956
12426TIP3    H258770   6.036   1.635  11.798  0.6494  0.2558 -0.4361
12427TIP3   OH258771   3.040   6.741  11.930 -0.0217 -0.5316  0.3466
12427TIP3    H158772   3.068   6.684  11.858 -0.6992  0.4760 -0.7554
12427TIP3    H258773   3.035   6.828  11.890 -1.4968 -0.1375  1.3397
12428TIP3   OH258774   4.127   6.637   1.658 -0.5994  0.6098 -0.3053
12428TIP3    H158775   4.180   6.623   1.737  0.7617 -1.3378 -1.4684
12428TIP3    H258776   4.185   6.614   1.586 -2.4442  0.3262 -1.7719
12429TIP3   OH258777   4.101   6.788  13.707  0.2908 -0.0828 -0.4719
12429TIP3    H158778   4.179   6.749  13.667  0.7164  0.4927 -0.2256
12429TIP3    H258779   4.034   6.720  13.700  0.0991  0.2695 -2.9004
12430TIP3   OH258780   6.513   6.763   3.011  0.6064  0.1131 -0.3371
12430TIP3    H158781   6.588   6.809   2.973 -0.7172  0.8615 -2.2209
12430TIP3    H258782   6.482   6.819   3.081  1.3835  0.1216  0.0096
12431TIP3   OH258783   4.625   4.917   5.973 -0.4433  0.8566  0.2780
12431TIP3    H158784   4.613   4.969   5.894  1.9531 -0.3378 -0.9746
12431TIP3    H258785   4.678   4.973   6.031  0.9477  0.3986 -0.5064
12432TIP3   OH258786   3.154   0.299   0.179 -0.0379  0.3122  0.7704
12432TIP3    H158787   3.072   0.303   0.229 -0.1798 -0.0618  0.5656
12432TIP3    H258788   3.129   0.322   0.090 -0.6545 -3.3489 -0.1848
12433TIP3   OH258789   1.399   0.787   3.356 -0.2071  0.2507 -0.5427
12433TIP3    H158790   1.339   0.857   3.383 -0.8622  0.2818 -1.9627
12433TIP3    H258791   1.486   0.823   3.373 -0.5271  1.3958 -1.1844
12434TIP3   OH258792   6.476   6.740   2.326 -0.0272  0.3404  0.3658
12434TIP3    H158793   6.435   6.825   2.339  0.1805  0.5800 -0.4518
12434TIP3    H258794   6.568   6.760   2.308  0.1920 -0.1102  0.9607
12435TIP3   OH258795   3.506   2.140  13.111 -0.0723 -0.0731  0.0254
12435TIP3    H158796   3.490   2.178  13.197  1.0455  0.5684 -0.0201
12435TIP3    H258797   3.600   2.123  13.110 -0.3650 -1.8359 -0.3917
12436TIP3   OH258798   2.772   4.148  13.555 -0.0787 -0.2383  0.3700
12436TIP3    H158799   2.711   4.121  13.624  0.4550 -0.7574  0.6414
12436TIP3    H258800   2.789   4.241  13.573 -0.8719 -0.0491  0.2200
12437TIP3   OH258801   5.513   3.342   5.579  0.3608 -0.1902 -0.0343
12437TIP3    H158802   5.590   3.392   5.553  0.9427 -0.8542  0.3874
12437TIP3    H258803   5.535   3.306   5.665 -1.5067  1.9691  1.4970
12438TIP3   OH258804   3.820   2.656  14.016 -0.0405  0.0166 -0.1821
12438TIP3    H158805   3.800   2.667  14.109  0.3945  1.8121 -0.2718
12438TIP3    H258806   3.913   2.675  14.009 -0.0890 -0.0112 -1.0012
12439TIP3   OH258807   0.730   6.440  12.798 -0.1167  0.2669 -0.0506
12439TIP3    H158808   0.638   6.464  12.788 -0.2949 -0.7708 -1.0437
12439TIP3    H258809   0.739   6.356  12.753  1.4708  0.6906 -0.6003
12440TIP3   OH258810   1.939   1.487   4.407  0.3704  0.2536  0.3840
12440TIP3    H158811   1.900   1.571   4.384 -0.3579 -0.0607  0.4355
12440TIP3    H258812   1.874   1.422   4.377  1.0243 -0.2954  0.1286
12441TIP3   OH258813   0.306   5.264   5.524  0.0102  0.4599  0.0318
12441TIP3    H158814   0.283   5.339   5.468 -1.0685  1.0580  1.2264
12441TIP3    H258815   0.235   5.260   5.588  0.6330 -0.9213  0.6563
12442TIP3   OH258816   0.115   2.520  16.388 -0.1575 -0.1812 -0.4259
12442TIP3    H158817   0.034   2.562  16.360 -0.2077 -0.0731 -0.1260
12442TIP3    H258818   0.087   2.454  16.451 -0.0288 -0.2613 -0.4529
12443TIP3   OH258819   4.385   6.395  10.838 -0.1703 -0.0959  0.4914
12443TIP3    H158820   4.409   6.312  10.880  0.2252  0.3062  1.0646
12443TIP3    H258821   4.359   6.369  10.749 -1.0903 -0.9557  0.9928
12444TIP3   OH258822   2.538   0.900   1.746  0.2547 -0.3301 -0.0404
12444TIP3    H158823   2.588   0.818   1.742 -0.4591 -1.0104  2.9320
12444TIP3    H258824   2.600   0.967   1.717  1.6905 -1.5860  0.0056
12445TIP3   OH258825   0.447   1.351   1.714 -0.1644  0.5464  0.7427
12445TIP3    H158826   0.492   1.269   1.731  2.1387  1.6844  0.5246
12445TIP3    H258827   0.478   1.410   1.782 -1.9081  1.2069  0.9999
12446TIP3   OH258828   5.839   3.109  11.925 -0.0936  0.4535  0.3286
12446TIP3    H158829   5.782   3.156  11.865  1.1338 -0.7087 -1.8778
12446TIP3    H258830   5.918   3.163  11.930 -0.0110  0.3146  0.5365
12447TIP3   OH258831   1.137   0.255  14.001  0.2633  0.4580 -0.2636
12447TIP3    H158832   1.194   0.229  14.073 -1.2203  0.1432  0.8457
12447TIP3    H258833   1.088   0.330  14.035 -0.1253  0.5971 -1.1118
12448TIP3   OH258834   2.661   3.374  11.511  0.2302  0.0901 -0.6124
12448TIP3    H158835   2.620   3.336  11.589 -0.7420 -1.1976 -1.7106
12448TIP3    H258836   2.613   3.456  11.497  1.1021  0.8681  0.7030
12449TIP3   OH258837   3.670   1.597  15.486  0.5291 -0.0287  0.1195
12449TIP3    H158838   3.660   1.579  15.580  1.4979 -1.2985  0.0073
12449TIP3    H258839   3.737   1.665  15.481 -0.8638  1.4170  0.4082
12450TIP3   OH258840   4.924   6.495  12.540  0.0417 -0.3658  0.8920
12450TIP3    H158841   4.923   6.462  12.450  0.2961  1.7773  0.0339
12450TIP3    H258842   4.837   6.532  12.553 -0.2128 -1.2468  1.7969
12451TIP3   OH258843   4.124   2.761   0.086 -0.2345  0.0124 -0.1234
12451TIP3    H158844   4.132   2.700   0.013  2.5094  0.9234 -0.6945
12451TIP3    H258845   4.184   2.728   0.152  0.4946  1.4415 -0.0224
12452TIP3   OH258846   6.221   2.059  16.558  0.1215 -0.1294  0.2885
12452TIP3    H158847   6.305   2.062  16.603  0.0163 -2.3346  0.7253
12452TIP3    H258848   6.242   2.036  16.468 -0.0221 -0.7363  0.4114
12453TIP3   OH258849   4.874   0.495   1.057 -0.5397  0.0430 -0.3277
12453TIP3    H158850   4.818   0.521   1.130 -1.8973 -0.5421 -1.1095
12453TIP3    H258851   4.904   0.407   1.080  2.5555  1.4173  1.4606
12454TIP3   OH258852   2.598   1.852  12.344  0.0745  0.5862 -0.6354
12454TIP3    H158853   2.542   1.920  12.306  0.4160  1.1772 -0.1077
12454TIP3    H258854   2.677   1.899  12.372  0.5870 -0.1387 -0.8345
12455TIP3   OH258855   3.852   2.352  13.194  0.1856  0.1221  0.9300
12455TIP3    H158856   3.886   2.278  13.144 -0.4922 -0.2569  1.0225
12455TIP3    H258857   3.898   2.428  13.158  1.4189 -0.4130  1.3159
12456TIP3   OH258858   0.159   3.536  12.057  0.1276  0.2939  0.2002
12456TIP3    H158859   0.140   3.474  11.986  0.6265  2.8093 -2.3001
12456TIP3    H258860   0.254   3.530  12.068  0.4233  1.7009 -1.2325
12457TIP3   OH258861   0.593   2.073  12.090 -0.2273  0.5265  0.4052
12457TIP3    H158862   0.509   2.037  12.061  0.2367  0.4672 -0.9290
12457TIP3    H258863   0.655   2.047  12.023  0.8813  0.5557  1.3880
12458TIP3   OH258864   0.073   0.180  15.914  0.0949 -0.2666 -0.8329
12458TIP3    H158865   0.045   0.129  15.990 -0.4289 -3.7025 -3.1278
12458TIP3    H258866   0.166   0.198  15.931  0.3784 -2.2376  0.0102
12459TIP3   OH258867   1.916   0.527   4.968  0.5042  0.4011 -0.0976
12459TIP3    H158868   1.967   0.560   5.041  0.2096  1.4171 -0.3337
12459TIP3    H258869   1.852   0.596   4.950  0.5364  0.1494 -1.2765
12460TIP3   OH258870   6.733   1.407   1.296 -0.0755 -0.1454  0.3035
12460TIP3    H158871   6.661   1.345   1.283 -0.1472  0.2609 -1.3396
12460TIP3    H258872   6.795   1.359   1.352 -1.7791 -0.3316  2.1371
12461TIP3   OH258873   1.996   2.781   1.445  0.1867  0.2152 -0.1570
12461TIP3    H158874   1.936   2.768   1.372  2.6571  1.0676 -2.4925
12461TIP3    H258875   2.015   2.875   1.445  0.7630  0.1341  1.1940
12462TIP3   OH258876   4.222   4.004   6.150  0.1686 -0.3285  0.6853
12462TIP3    H158877   4.182   4.026   6.065  0.0854 -0.5235  0.6739
12462TIP3    H258878   4.316   4.002   6.133  0.2540  0.9703  0.8963
12463TIP3   OH258879   6.232   4.181   5.645 -0.2477 -0.2327 -0.1608
12463TIP3    H158880   6.205   4.104   5.694  1.0179 -0.7749 -0.2817
12463TIP3    H258881   6.181   4.253   5.683 -2.9208 -1.3677 -1.3512
12464TIP3   OH258882   6.507   0.381   3.092  0.0550  0.8103 -0.5421
12464TIP3    H158883   6.484   0.292   3.065 -1.1095  1.1085 -0.5739
12464TIP3    H258884   6.510   0.431   3.010 -0.7234  1.1044 -0.4020
12465TIP3   OH258885   1.124   1.115   5.071 -0.4214 -0.0288 -0.2793
12465TIP3    H158886   1.028   1.121   5.078 -0.6401  0.4919 -2.7053
12465TIP3    H258887   1.153   1.206   5.067  0.2335 -0.1801  0.6979
12466TIP3   OH258888   1.794   0.759   3.846 -0.5346 -0.4658  0.3454
12466TIP3    H158889   1.809   0.824   3.778  0.2060 -0.8424  0.1367
12466TIP3    H258890   1.706   0.725   3.829  0.2396 -1.7237 -1.4294
12467TIP3   OH258891   5.727   4.504  11.835  0.4007 -0.2263  0.1734
12467TIP3    H158892   5.645   4.454  11.831  0.4980 -0.3871  0.2142
12467TIP3    H258893   5.766   4.493  11.748  0.0312  0.4358 -0.0834
12468TIP3   OH258894   2.212   3.889   3.630  0.2955 -0.3913  0.2280
12468TIP3    H158895   2.294   3.905   3.583  0.0955 -0.2719 -0.0862
12468TIP3    H258896   2.157   3.964   3.609 -0.8332 -1.6563 -1.6541
12469TIP3   OH258897   6.799   2.196  12.595 -0.1630  0.0326 -0.4431
12469TIP3    H158898   6.708   2.217  12.578  0.2640  1.7544 -0.7951
12469TIP3    H258899   6.823   2.132  12.528 -0.7466  0.5616 -1.1576
12470TIP3   OH258900   6.107   1.630   0.239  0.6357 -0.2975  0.0056
12470TIP3    H158901   6.035   1.569   0.257  0.4694 -0.1439 -0.1292
12470TIP3    H258902   6.168   1.618   0.312 -0.6803  1.3038  1.4712
12471TIP3   OH258903   2.508   1.880  13.524  0.0198 -0.1104  0.0484
12471TIP3    H158904   2.594   1.841  13.510  0.9627  1.1023  2.0345
12471TIP3    H258905   2.452   1.839  13.459  1.9895 -1.2827 -0.9912
12472TIP3   OH258906   5.355   1.728   0.710 -0.0549  0.3610 -0.2871
12472TIP3    H158907   5.358   1.636   0.734  0.7802  0.4670  0.0477
12472TIP3    H258908   5.433   1.742   0.656  0.2881  1.0454  0.3551
12473TIP3   OH258909   1.807   6.261  11.954 -0.6138  0.1807 -0.3926
12473TIP3    H158910   1.829   6.327  11.889  2.4852  0.1053  0.4660
12473TIP3    H258911   1.760   6.193  11.904 -0.0093  0.9991 -2.1476
12474TIP3   OH258912   3.596   2.342   3.435  0.3716 -0.0130 -0.8541
12474TIP3    H158913   3.509   2.382   3.430  1.3627  2.4985  0.3924
12474TIP3    H258914   3.615   2.315   3.346 -1.3906  0.0244 -1.2781
12475TIP3   OH258915   0.816   6.232   3.014 -0.4524  0.0699  0.0959
12475TIP3    H158916   0.762   6.282   2.952 -1.3865 -2.2681 -1.1142
12475TIP3    H258917   0.754   6.204   3.081 -0.4041 -1.1677 -0.3599
12476TIP3   OH258918   3.566   2.906  15.316  0.1249  0.2217 -0.3408
12476TIP3    H158919   3.661   2.895  15.312  0.2478  0.8510  0.5856
12476TIP3    H258920   3.540   2.922  15.225  0.6418 -1.7949 -0.9107
12477TIP3   OH258921   2.778   2.700   4.393  0.7437  0.2152  0.3557
12477TIP3    H158922   2.748   2.783   4.354 -0.3012 -0.4401 -0.2728
12477TIP3    H258923   2.766   2.636   4.323  0.5925 -0.6559  1.1733
12478TIP3   OH258924   0.753   0.643   4.722  0.2144  0.6346  0.3226
12478TIP3    H158925   0.704   0.660   4.642  0.9565 -1.2615 -0.6049
12478TIP3    H258926   0.844   0.660   4.699  0.2871  1.6627  1.2789
12479TIP3   OH258927   0.863   1.540  11.747 -0.7758  0.1955 -0.1910
12479TIP3    H158928   0.781   1.519  11.703 -0.7667  0.9402 -0.5714
12479TIP3    H258929   0.928   1.484  11.704 -1.0442 -0.2300 -0.0447
12480TIP3   OH258930   0.889   5.498   4.706  0.6202 -0.1569 -0.1024
12480TIP3    H158931   0.819   5.469   4.648 -0.0700  0.3852  0.4403
12480TIP3    H258932   0.931   5.418   4.736  1.1895 -0.4320 -1.5828
12481TIP3   OH258933   2.956   3.614  17.225 -0.1803  0.0236  0.0471
12481TIP3    H158934   3.043   3.582  17.201 -0.2274  0.7068 -1.0883
12481TIP3    H258935   2.974   3.686  17.286  0.0980  0.7516 -0.8746
12482TIP3   OH258936   2.697   4.244   2.257 -0.1358 -0.2748 -0.1855
12482TIP3    H158937   2.727   4.157   2.286 -1.6401 -0.4340  1.0665
12482TIP3    H258938   2.718   4.302   2.330  3.4133  1.0936 -2.0988
12483TIP3   OH258939   0.675   3.319  15.975 -0.0319  0.1194  0.0200
12483TIP3    H158940   0.672   3.405  16.017  0.2293  0.2168 -0.1590
12483TIP3    H258941   0.694   3.258  16.046  2.6066  0.5161 -0.2389
12484TIP3   OH258942   2.869   5.762  13.212  0.1020  0.0638 -0.6622
12484TIP3    H158943   2.797   5.731  13.266  1.4134 -0.2383  0.9661
12484TIP3    H258944   2.845   5.853  13.191 -0.0346  0.4906  1.1880
12485TIP3   OH258945   4.522   5.011  13.886  0.3088  0.1907  0.0175
12485TIP3    H158946   4.449   5.054  13.842 -0.5751 -0.5074  0.7608
12485TIP3    H258947   4.557   5.078  13.945 -0.3489  0.2485  0.3529
12486TIP3   OH258948   4.650   5.745  12.850 -0.3037  0.2243  0.8194
12486TIP3    H158949   4.621   5.830  12.819  0.8202  0.6305  0.8405
12486TIP3    H258950   4.690   5.703  12.774  0.7216  0.4408  1.2272
12487TIP3   OH258951   3.459   5.197   0.805  0.8255  0.2530 -0.0342
12487TIP3    H158952   3.394   5.208   0.737  0.9680  0.6521 -0.1122
12487TIP3    H258953   3.482   5.104   0.803 -0.9227 -0.2470  1.0864
12488TIP3   OH258954   3.808   4.213  14.487  0.4700  0.2688  0.8692
12488TIP3    H158955   3.856   4.287  14.449  0.2539  0.3161  0.6866
12488TIP3    H258956   3.861   4.186  14.561  0.0556  1.2265  1.5342
12489TIP3   OH258957   3.517   1.911  15.581  1.0494 -0.0186  0.2570
12489TIP3    H158958   3.599   1.908  15.531 -0.3508  0.9538 -2.2735
12489TIP3    H258959   3.481   1.822  15.573  1.1492 -0.0461  0.1118
12490TIP3   OH258960   1.622   1.193   4.875 -0.1819  0.2121 -0.2167
12490TIP3    H158961   1.570   1.240   4.811 -0.1667 -0.7086 -0.9175
12490TIP3    H258962   1.558   1.148   4.931 -0.1762  0.4300 -0.0328
12491TIP3   OH258963   4.095   6.368  12.991  0.0902 -0.1504  0.1009
12491TIP3    H158964   4.159   6.324  12.935  2.3721  1.5045  1.2755
12491TIP3    H258965   4.028   6.401  12.930  1.1985 -0.5044 -1.3504
12492TIP3   OH258966   0.481   2.112  11.781  0.1749 -0.1135 -0.6400
12492TIP3    H158967   0.395   2.115  11.739 -0.7788 -2.2320  0.9417
12492TIP3    H258968   0.537   2.069  11.716  0.1081  1.3008 -1.6906
12493TIP3   OH258969   0.494   2.380   3.266 -0.1662  0.1139 -0.3318
12493TIP3    H158970   0.521   2.418   3.349  2.5625  1.5728 -1.7515
12493TIP3    H258971   0.556   2.309   3.250 -1.1876 -0.7215 -0.7799
12494TIP3   OH258972   4.106   2.731  15.186 -0.6868  0.3618 -0.1437
12494TIP3    H158973   4.045   2.661  15.210 -2.2606  1.2416 -1.3650
12494TIP3    H258974   4.171   2.688  15.129 -0.1287 -0.5841  1.1589
12495TIP3   OH258975   2.609   6.049   3.129  0.0533  0.6760 -0.3917
12495TIP3    H158976   2.540   5.990   3.101 -1.1934  1.6676  0.4362
12495TIP3    H258977   2.679   5.992   3.162  0.3034 -0.3866 -2.5996
12496TIP3   OH258978   3.486   0.720  12.509 -0.8012 -0.2730 -0.2644
12496TIP3    H158979   3.406   0.757  12.547 -0.7512  0.7393 -1.0847
12496TIP3    H258980   3.488   0.629  12.539 -2.2531 -0.3076 -0.2226
12497TIP3   OH258981   5.406   5.579   3.346 -0.8564  0.5230  0.5037
12497TIP3    H158982   5.453   5.546   3.422  1.6832 -0.9158 -1.5353
12497TIP3    H258983   5.314   5.581   3.374 -0.1799 -0.9417  3.2257
12498TIP3   OH258984   6.551   1.093   1.069  0.5274 -0.8325 -0.5345
12498TIP3    H158985   6.456   1.078   1.070  0.0401  1.7349  0.4512
12498TIP3    H258986   6.579   1.071   1.158  0.9154 -1.8459 -0.9043
12499TIP3   OH258987   4.291   3.351   6.225 -0.5271 -0.1276 -0.3076
12499TIP3    H158988   4.238   3.385   6.297 -1.4427 -1.5592 -0.2673
12499TIP3    H258989   4.235   3.286   6.182  0.7178 -0.7254 -1.0895
12500TIP3   OH258990   3.802   3.788   4.950 -0.0030 -0.5675 -0.2523
12500TIP3    H158991   3.805   3.693   4.948  0.0834 -0.5491 -1.8562
12500TIP3    H258992   3.757   3.809   5.033  0.7724 -1.9563  0.5523
12501TIP3   OH258993   2.270   6.649  17.186  0.0010  0.3460  0.0389
12501TIP3    H158994   2.188   6.664  17.139 -0.9472 -0.2015  1.4680
12501TIP3    H258995   2.249   6.584  17.252  1.8652 -0.6246 -0.2479
12502TIP3   OH258996   4.736   1.013   2.406  0.5001  0.0141 -0.0536
12502TIP3    H158997   4.683   1.067   2.347 -1.0843  0.2192  1.4568
12502TIP3    H258998   4.757   0.935   2.355  0.1036  0.6402 -1.2222
12503TIP3   OH258999   3.516   4.303   6.289  0.3413 -0.3681 -0.1153
12503TIP3    H159000   3.481   4.258   6.213  0.9681  2.2897 -2.1046
12503TIP3    H259001   3.592   4.251   6.315 -0.1669 -1.5820 -0.9724
12504TIP3   OH259002   0.522   4.020   5.921  0.6058 -0.0733 -0.0995
12504TIP3    H159003   0.487   3.936   5.891 -0.3210  0.0302  0.6127
12504TIP3    H259004   0.536   4.007   6.015  2.7003 -0.1561 -0.3920
12505TIP3   OH259005   2.839   2.127   4.407 -0.0242 -0.2790  0.1899
12505TIP3    H159006   2.744   2.115   4.409  0.0071 -1.2382 -1.4274
12505TIP3    H259007   2.866   2.125   4.498 -1.6347  0.8045  0.7326
12506TIP3   OH259008   5.537   1.980   2.216  0.0536 -0.0047 -0.0141
12506TIP3    H159009   5.450   1.953   2.246  0.0800  1.7004  1.7995
12506TIP3    H259010   5.526   2.070   2.188  0.6230 -0.7437 -2.8657
12507TIP3   OH259011   5.396   4.392  13.654 -0.2345 -0.4570  0.0346
12507TIP3    H159012   5.427   4.465  13.601  0.9460 -0.4986  0.6398
12507TIP3    H259013   5.311   4.368  13.615 -1.0413  1.7171  0.3050
12508TIP3   OH259014   3.312   5.125  16.447 -0.7044 -0.4329  0.1836
12508TIP3    H159015   3.306   5.176  16.529 -2.3448  1.6782 -1.1333
12508TIP3    H259016   3.234   5.152  16.397 -1.6939 -4.3295 -0.6669
12509TIP3   OH259017   0.321   0.485   5.055 -0.3704 -0.1832  0.0186
12509TIP3    H159018   0.255   0.424   5.087 -0.8266  0.0677 -0.4309
12509TIP3    H259019   0.378   0.501   5.130 -1.5592  0.5864  0.7975
12510TIP3   OH259020   2.133   6.489  13.165 -0.1360  0.1936  0.2368
12510TIP3    H159021   2.147   6.489  13.260 -0.3849 -0.2106  0.2750
12510TIP3    H259022   2.221   6.500  13.128  0.0560 -0.4450  0.4983
12511TIP3   OH259023   2.790   5.431   1.906 -0.1770  0.4785 -0.0055
12511TIP3    H159024   2.718   5.468   1.958 -0.0846 -1.2184  1.4067
12511TIP3    H259025   2.810   5.348   1.948  1.0352 -0.2067 -1.8141
12512TIP3   OH259026   3.421   3.343   4.877 -0.1052 -0.4332 -0.1189
12512TIP3    H159027   3.341   3.297   4.903  0.6672 -1.5284  0.3968
12512TIP3    H259028   3.484   3.322   4.946  0.4653  0.9263 -0.1867
12513TIP3   OH259029   1.907   5.428  13.620 -0.4792  0.0790  0.2837
12513TIP3    H159030   1.834   5.486  13.644 -0.6195  0.2593 -0.5527
12513TIP3    H259031   1.866   5.342  13.607 -0.4499  0.0480  0.3948
12514TIP3   OH259032   1.699   6.716   1.214 -0.2799 -0.1948  0.1258
12514TIP3    H159033   1.752   6.696   1.137  0.9580  0.3902  0.8085
12514TIP3    H259034   1.679   6.809   1.206 -1.0363 -0.3602 -0.0091
12515TIP3   OH259035   4.317   6.103  14.961  0.6472 -0.7704  0.1193
12515TIP3    H159036   4.227   6.135  14.952  0.8955 -0.3252 -1.0048
12515TIP3    H259037   4.369   6.182  14.977  0.5632 -1.2742  3.5014
12516TIP3   OH259038   1.292   3.388  13.374  0.2039  0.4820 -0.2380
12516TIP3    H159039   1.336   3.303  13.366  1.4214  0.9700  0.7415
12516TIP3    H259040   1.338   3.430  13.447 -0.5146  1.8953 -0.5814
12517TIP3   OH259041   5.970   1.895  14.515  0.0915  0.5423 -0.3126
12517TIP3    H159042   5.885   1.859  14.541  0.6692  0.6821  2.0233
12517TIP3    H259043   5.989   1.853  14.431 -2.3526  0.6828 -1.0242
12518TIP3   OH259044   3.998   6.625   2.049  0.0923  0.1297 -0.0872
12518TIP3    H159045   3.929   6.594   1.990 -0.8447  1.8555  0.0263
12518TIP3    H259046   4.046   6.546   2.075  0.1901 -0.7652 -2.6966
12519TIP3   OH259047   1.669   4.082   1.408 -0.1555  0.1637 -0.1807
12519TIP3    H159048   1.610   4.030   1.464 -0.0025  0.9124  0.6955
12519TIP3    H259049   1.679   4.165   1.454  0.9389  0.3572 -0.7309
12520TIP3   OH259050   0.032   5.483  13.969 -0.0321  0.6659  0.4485
12520TIP3    H159051   0.116   5.441  13.988 -0.5971  0.0442  1.7345
12520TIP3    H259052  -0.019   5.415  13.925  0.2789  1.1878 -0.7447
12521TIP3   OH259053   6.199   4.805   2.785 -0.6176 -0.1545  0.0960
12521TIP3    H159054   6.148   4.825   2.864 -0.2472 -1.3861  0.6845
12521TIP3    H259055   6.188   4.881   2.729 -0.5323  0.9591  1.5252
12522TIP3   OH259056   5.171   4.705   2.705  0.1506  0.2881 -0.0291
12522TIP3    H159057   5.129   4.685   2.621 -0.3583 -1.4649  0.5962
12522TIP3    H259058   5.238   4.638   2.715 -1.1672 -0.8710  1.8637
12523TIP3   OH259059   2.176   4.697   6.752 -0.5713  0.1069 -0.0226
12523TIP3    H159060   2.141   4.701   6.663 -0.1561 -2.5205 -0.3850
12523TIP3    H259061   2.158   4.608   6.781  2.8805 -0.4216  0.9711
12524TIP3   OH259062   3.227   3.383  11.618 -0.2666 -0.6986  0.0442
12524TIP3    H159063   3.285   3.352  11.687 -0.4876 -0.6207  0.2643
12524TIP3    H259064   3.285   3.432  11.559 -0.1977 -0.1803  0.5348
12525TIP3   OH259065   3.606   4.509   3.610  0.2833 -0.4054 -0.2126
12525TIP3    H159066   3.660   4.434   3.585  1.1739 -0.2849  1.2487
12525TIP3    H259067   3.632   4.579   3.550  2.5889 -0.0359  1.0972
12526TIP3   OH259068   0.740   2.471   2.943 -0.7416 -0.3123  0.2997
12526TIP3    H159069   0.781   2.483   3.029 -1.0251 -0.8620  0.5149
12526TIP3    H259070   0.726   2.377   2.936  0.5122 -0.4345 -0.9181
12527TIP3   OH259071   2.518   2.828  15.696  0.3174 -0.1681  0.4583
12527TIP3    H159072   2.584   2.877  15.647 -1.2517  2.6875  0.9251
12527TIP3    H259073   2.557   2.815  15.782  0.3117  1.6019  0.7728
12528TIP3   OH259074   6.563   5.264   2.330  0.2107 -0.2549  0.7307
12528TIP3    H159075   6.553   5.176   2.368 -0.1965 -0.2497  0.6452
12528TIP3    H259076   6.637   5.256   2.270  2.4194  0.3007  3.1816
12529TIP3   OH259077   3.690   6.507  15.364 -0.3212  0.2263  0.0983
12529TIP3    H159078   3.755   6.513  15.434  0.6637 -2.8756 -0.4241
12529TIP3    H259079   3.736   6.537  15.286  0.3390 -1.3193 -0.1423
12530TIP3   OH259080   0.180   5.097  12.559 -0.6056  0.1166 -0.3650
12530TIP3    H159081   0.156   5.082  12.651 -2.1919  1.7694 -0.4580
12530TIP3    H259082   0.180   5.010  12.520 -1.3496 -0.4744  0.8780
12531TIP3   OH259083   4.450   1.470   5.601 -0.4438  0.4826  0.1828
12531TIP3    H159084   4.537   1.433   5.616 -0.6894 -0.1903 -0.0068
12531TIP3    H259085   4.428   1.445   5.512 -0.4455  1.4624 -0.1047
12532TIP3   OH259086   1.799   2.243  12.179 -0.5912  0.2901 -0.0589
12532TIP3    H159087   1.855   2.321  12.182  0.8039 -0.6802  1.1489
12532TIP3    H259088   1.830   2.194  12.103  1.4450 -1.0252  1.4975
12533TIP3   OH259089   2.147   0.737  17.027 -0.2184  0.1276 -0.6188
12533TIP3    H159090   2.236   0.740  16.994 -0.9342  1.9031 -2.6101
12533TIP3    H259091   2.152   0.681  17.105  2.3609 -0.8237 -1.3661
12534TIP3   OH259092   2.895   4.462  16.186  0.5151  0.1393 -0.2296
12534TIP3    H159093   2.967   4.514  16.220  0.0618 -0.2820  1.4523
12534TIP3    H259094   2.832   4.527  16.154  1.3471  0.5165 -1.1650
12535TIP3   OH259095   1.120   5.254   1.525  0.8096  0.1309 -0.5795
12535TIP3    H159096   1.134   5.160   1.532  1.2250  0.1692 -0.8832
12535TIP3    H259097   1.149   5.277   1.437 -0.1354  0.3968 -0.8287
12536TIP3   OH259098   5.283   2.516   3.756  0.2286 -0.2744  0.3128
12536TIP3    H159099   5.193   2.510   3.789 -0.0162  0.8234 -0.1110
12536TIP3    H259100   5.326   2.578   3.815  1.2490 -2.1239  1.6059
12537TIP3   OH259101   2.961   1.956   5.233 -0.2258 -0.1063  0.3646
12537TIP3    H159102   3.037   1.927   5.283 -0.2816  0.2469  0.6581
12537TIP3    H259103   2.936   2.039   5.273  0.4620  0.7915 -1.0143
12538TIP3   OH259104   1.492   4.243  13.229 -0.9440  0.2644  0.1831
12538TIP3    H159105   1.461   4.186  13.299  0.0287  2.5060  2.6121
12538TIP3    H259106   1.419   4.304  13.214 -1.6894 -1.0246 -1.8516
12539TIP3   OH259107   4.889   0.399  16.844  0.6184 -1.0140 -0.3993
12539TIP3    H159108   4.802   0.438  16.833  1.1944 -0.2673 -2.9775
12539TIP3    H259109   4.918   0.431  16.930 -1.4319 -0.9085  0.3191
12540TIP3   OH259110   1.680   5.327   4.679  0.0537 -0.3098  0.0736
12540TIP3    H159111   1.760   5.377   4.694 -0.8521  1.6146 -1.2200
12540TIP3    H259112   1.626   5.343   4.756 -0.6234  1.5753 -0.7460
12541TIP3   OH259113   3.130   6.727   4.910  0.1875  0.1694  0.0246
12541TIP3    H159114   3.097   6.815   4.932  0.9920  0.3429  0.5727
12541TIP3    H259115   3.055   6.669   4.923  0.0128  0.5946  0.9857
12542TIP3   OH259116   1.831   0.247  15.612  0.1155  0.0734 -0.0809
12542TIP3    H159117   1.885   0.282  15.541 -1.3246  1.4865 -0.5500
12542TIP3    H259118   1.891   0.235  15.685  0.8503  3.1092 -0.0591
12543TIP3   OH259119   5.843   6.215   4.492  0.8727 -0.7652 -0.0166
12543TIP3    H159120   5.874   6.189   4.405 -0.5112 -0.2910 -0.6730
12543TIP3    H259121   5.865   6.308   4.498 -1.0733 -0.2128 -0.8228
12544TIP3   OH259122   0.094   3.349  14.635  0.1120 -0.0744  0.0262
12544TIP3    H159123   0.085   3.356  14.730 -0.4285 -0.4248  0.0001
12544TIP3    H259124   0.132   3.263  14.620 -0.7285 -0.4189 -0.1338
12545TIP3   OH259125   0.845   3.821  16.770 -0.3281 -0.0058 -0.3197
12545TIP3    H159126   0.911   3.884  16.741  0.7585 -0.1339  1.6680
12545TIP3    H259127   0.762   3.866  16.756  0.3370  1.2767 -0.3668
12546TIP3   OH259128   5.599   0.197   2.128 -0.0415  0.3601  0.5424
12546TIP3    H159129   5.526   0.135   2.116  0.9562 -1.0854  1.6069
12546TIP3    H259130   5.677   0.143   2.125  0.9460  1.7418  0.5172
12547TIP3   OH259131   5.005   6.058  14.108  0.3326  0.0845 -0.2377
12547TIP3    H159132   4.988   6.063  14.014 -0.5372 -1.3784 -0.1878
12547TIP3    H259133   5.085   6.109  14.120  1.3916 -1.0361 -2.0231
12548TIP3   OH259134   5.136   4.325  13.955 -0.0699  0.5374  0.6185
12548TIP3    H159135   5.153   4.398  14.014  1.2824  1.2807 -0.6129
12548TIP3    H259136   5.055   4.349  13.910 -0.4071  0.5815  1.2524
12549TIP3   OH259137   0.752   6.731   0.647  0.4377 -0.2796  0.1120
12549TIP3    H159138   0.747   6.643   0.610 -1.1618 -0.3700  0.4928
12549TIP3    H259139   0.840   6.737   0.684  0.7892 -1.4683 -0.5072
12550TIP3   OH259140   4.486   2.588  10.406  0.1547  0.4991 -0.0875
12550TIP3    H159141   4.512   2.535  10.331 -2.2631  0.1653 -0.7744
12550TIP3    H259142   4.536   2.553  10.479  1.1529 -0.4231 -1.1787
12551TIP3   OH259143   2.325   4.767  15.039 -0.5161  0.9458 -0.4985
12551TIP3    H159144   2.276   4.705  14.985  1.0438  0.8222 -1.8605
12551TIP3    H259145   2.284   4.852  15.022 -0.3056  0.8451 -1.6052
12552TIP3   OH259146   2.430   4.171   2.651 -0.3676 -0.4267  0.0594
12552TIP3    H159147   2.341   4.146   2.674 -0.4290  0.6329  1.0523
12552TIP3    H259148   2.433   4.163   2.555 -1.5926 -0.2307 -0.0098
12553TIP3   OH259149   6.761   2.674  13.936 -0.7487  0.0602 -0.5887
12553TIP3    H159150   6.782   2.591  13.980 -0.8911  0.6557  0.6416
12553TIP3    H259151   6.668   2.688  13.955 -0.3677  1.2510  0.5217
12554TIP3   OH259152   2.040   2.066   2.379 -0.1980  0.2009 -0.2605
12554TIP3    H159153   2.011   2.090   2.291  1.7812 -1.0665 -1.3205
12554TIP3    H259154   2.052   2.150   2.424  0.0750  0.9252 -1.6456
12555TIP3   OH259155   6.313   1.289  14.238 -0.5547  0.6389  0.0400
12555TIP3    H159156   6.347   1.377  14.257 -0.6446  0.5735  0.5210
12555TIP3    H259157   6.239   1.305  14.180  0.2291  0.7887 -0.9373
12556TIP3   OH259158   3.801   2.798  12.400  0.4706 -0.0096 -0.0034
12556TIP3    H159159   3.737   2.753  12.344  0.9664 -2.6736  1.3914
12556TIP3    H259160   3.847   2.858  12.341 -0.6195 -0.9647 -1.9109
12557TIP3   OH259161   4.551   2.366  14.182  0.3428 -0.0811  0.0804
12557TIP3    H159162   4.540   2.399  14.093  0.6873  0.8852  0.3832
12557TIP3    H259163   4.504   2.283  14.183  1.7408 -0.9481 -1.4732
12558TIP3   OH259164   0.296   3.092   0.953 -0.0578 -0.2055  0.1705
12558TIP3    H159165   0.358   3.057   0.889 -0.2572 -1.0996  0.4541
12558TIP3    H259166   0.255   3.166   0.908 -0.2855 -0.8943 -0.7973
12559TIP3   OH259167   1.369   3.016   5.532 -0.3343  0.4630  0.1385
12559TIP3    H159168   1.427   3.018   5.456 -0.9675  0.1541 -0.3563
12559TIP3    H259169   1.360   3.108   5.557 -0.0563  0.5578 -0.1058
12560TIP3   OH259170   2.898   4.680  13.206  0.1365 -0.1865  0.8793
12560TIP3    H159171   2.896   4.585  13.189  0.5155  0.0888 -0.9404
12560TIP3    H259172   2.838   4.717  13.142  0.0757  0.8389  1.5083
12561TIP3   OH259173   5.678   4.580  12.871  0.2233 -0.5180  0.3202
12561TIP3    H159174   5.604   4.536  12.829  1.1802 -1.8302 -0.0688
12561TIP3    H259175   5.649   4.671  12.881 -1.7806 -1.1741  1.0308
12562TIP3   OH259176   2.389   2.315   2.163  0.7606  0.3863 -0.3143
12562TIP3    H159177   2.467   2.295   2.215 -0.8652  0.2123  2.2162
12562TIP3    H259178   2.349   2.389   2.208 -0.5045  0.5368 -1.6237
12563TIP3   OH259179   5.053   0.961  10.367 -0.2807  0.3511  0.3631
12563TIP3    H159180   5.025   0.979  10.457  0.6418  1.2391  0.4891
12563TIP3    H259181   5.064   1.047  10.328  2.0510  0.0584  0.2607
12564TIP3   OH259182   5.303   3.328  16.697 -0.2985  0.3390 -0.2052
12564TIP3    H159183   5.357   3.250  16.683 -0.0585  0.6746 -1.2720
12564TIP3    H259184   5.235   3.300  16.758 -0.3367 -0.7617 -0.7301
12565TIP3   OH259185   4.532   5.938  14.612  0.0191 -0.4039  0.6397
12565TIP3    H159186   4.483   6.010  14.653  0.6217  0.4283 -0.0540
12565TIP3    H259187   4.480   5.915  14.535  0.3364 -0.0243  0.3101
12566TIP3   OH259188   5.326   2.240   5.174 -0.2294  0.3493 -0.2097
12566TIP3    H159189   5.263   2.296   5.129  0.1804  1.4565  0.5574
12566TIP3    H259190   5.323   2.269   5.266  0.3954 -0.5105  0.0945
12567TIP3   OH259191   3.238   6.172   3.659 -0.1508  0.1034  0.9012
12567TIP3    H159192   3.259   6.225   3.735  0.7425 -0.4187  1.0450
12567TIP3    H259193   3.156   6.208   3.625 -1.9154 -1.1987  3.5173
12568TIP3   OH259194   4.317   4.353  16.273  0.0675  0.5647 -0.0784
12568TIP3    H159195   4.365   4.274  16.248 -1.7900 -0.8570  0.6537
12568TIP3    H259196   4.361   4.423  16.225  0.4736 -1.1830 -2.4629
12569TIP3   OH259197   3.843   3.553   1.739 -0.3952  0.7015  0.6231
12569TIP3    H159198   3.852   3.582   1.830  1.6399  0.1700  0.6232
12569TIP3    H259199   3.842   3.634   1.688  0.1441  0.9563  1.0037
12570TIP3   OH259200   1.642   2.857   0.985 -0.1494  0.1932 -0.3927
12570TIP3    H159201   1.722   2.827   0.943 -0.6292  0.4547 -1.5535
12570TIP3    H259202   1.572   2.816   0.934 -0.7592  0.6443  0.0683
12571TIP3   OH259203   3.072   0.017  15.820 -0.5178 -0.4517 -0.1630
12571TIP3    H159204   3.057   0.109  15.842 -0.0161 -0.0369 -1.4828
12571TIP3    H259205   2.986  -0.024  15.832 -0.8045  0.2361  0.1911
12572TIP3   OH259206   0.931   4.619   3.738  0.6191 -0.1940  0.3537
12572TIP3    H159207   0.871   4.681   3.779 -0.0783 -1.6585  1.6538
12572TIP3    H259208   0.936   4.647   3.646 -1.4263  0.4386  0.3925
12573TIP3   OH259209   2.618   3.437  11.927 -0.0817 -0.2705  0.6858
12573TIP3    H159210   2.630   3.424  12.021  2.2728 -1.8232  0.2523
12573TIP3    H259211   2.691   3.494  11.902 -2.0466  2.1546  0.1153
12574TIP3   OH259212   0.964   2.430  15.952  0.1110 -0.3164  0.2144
12574TIP3    H159213   0.968   2.427  15.857  0.0819  0.4852  0.1809
12574TIP3    H259214   0.923   2.347  15.978 -0.6031 -0.1915 -0.5061
12575TIP3   OH259215   0.498   4.066   5.223 -0.3202  0.0811 -0.2076
12575TIP3    H159216   0.417   4.118   5.218  0.3599  1.0668 -1.6714
12575TIP3    H259217   0.566   4.131   5.242  0.4616 -0.3339 -1.4790
12576TIP3   OH259218   3.878   5.052  10.822 -0.2371 -0.1061  0.3053
12576TIP3    H159219   3.933   5.025  10.896  3.1049  1.7438 -1.2808
12576TIP3    H259220   3.857   4.971  10.776 -2.1814 -1.2836  2.9416
12577TIP3   OH259221   0.212   0.249   5.238 -0.1232  0.0567  0.2197
12577TIP3    H159222   0.278   0.297   5.288 -0.8573  0.4181  0.8832
12577TIP3    H259223   0.149   0.220   5.304 -0.2131 -0.9660 -0.3058
12578TIP3   OH259224   0.458   5.378   0.349 -0.6250 -0.0434  0.3342
12578TIP3    H159225   0.445   5.413   0.261 -1.7624  1.8978  1.2082
12578TIP3    H259226   0.376   5.397   0.395  0.3196 -0.0449  2.1162
12579TIP3   OH259227   5.611   4.853  14.101 -0.1600 -0.1634 -0.0847
12579TIP3    H159228   5.689   4.882  14.148  0.2770 -0.0854 -0.8376
12579TIP3    H259229   5.642   4.836  14.012 -1.6580  3.2314 -1.3890
12580TIP3   OH259230   3.740   2.479   2.063  0.2841  0.0522  0.2974
12580TIP3    H159231   3.738   2.392   2.102 -0.0094 -0.3862 -0.6650
12580TIP3    H259232   3.769   2.537   2.134 -0.4158 -0.6829  1.2042
12581TIP3   OH259233   6.445   2.006   1.115  0.2667  0.3161 -0.1426
12581TIP3    H159234   6.500   1.945   1.066  1.3362  0.8171  0.3932
12581TIP3    H259235   6.463   2.092   1.077  0.1900  0.5479  0.3229
12582TIP3   OH259236   3.949   2.215   0.162  0.2038 -0.1952  0.0125
12582TIP3    H159237   3.981   2.150   0.099  0.3300  0.2209 -0.3677
12582TIP3    H259238   3.925   2.290   0.107 -1.2208 -0.4131  0.3118
12583TIP3   OH259239   0.293   6.633  10.658  0.1403 -0.2106 -0.0429
12583TIP3    H159240   0.354   6.560  10.658 -1.3132 -1.4806 -0.5147
12583TIP3    H259241   0.342   6.706  10.696  1.3941 -1.6244  1.1461
12584TIP3   OH259242   5.098   0.191   2.099  0.3403 -0.1681  0.5093
12584TIP3    H159243   5.019   0.190   2.044 -1.5741  0.7077  3.0265
12584TIP3    H259244   5.068   0.228   2.182  3.8711  2.0167  0.9876
12585TIP3   OH259245   5.098   5.164  16.237  0.2691 -0.0658 -0.3222
12585TIP3    H159246   5.032   5.111  16.282  1.3572 -0.5012  0.8174
12585TIP3    H259247   5.054   5.248  16.222 -0.7497 -0.5462 -0.1636
12586TIP3   OH259248   2.578   0.033   1.529  0.0818  0.2085  0.8026
12586TIP3    H159249   2.663   0.076   1.530 -0.0305  0.4307  1.2422
12586TIP3    H259250   2.523   0.090   1.474  1.2635 -2.0554 -3.0647
12587TIP3   OH259251   5.532   1.200  14.739  0.2080 -0.0165 -0.2482
12587TIP3    H159252   5.437   1.210  14.744 -0.1435 -2.2523 -1.0643
12587TIP3    H259253   5.549   1.193  14.645  1.6455  3.3915 -0.3792
12588TIP3   OH259254   5.298   6.544  11.892  0.3846 -0.7202  0.0223
12588TIP3    H159255   5.285   6.499  11.975 -1.5062  0.3124  0.3463
12588TIP3    H259256   5.337   6.628  11.916  2.1383 -1.3457 -0.4151
12589TIP3   OH259257   6.760   6.518  12.386 -0.1658  0.4402 -0.4727
12589TIP3    H159258   6.802   6.450  12.437 -2.8490  0.1389  1.6050
12589TIP3    H259259   6.815   6.530  12.309  2.3603 -1.3954  0.9402
12590TIP3   OH259260   5.284   5.699  16.276 -0.0462 -0.8077  0.5674
12590TIP3    H159261   5.348   5.644  16.321 -1.1460 -0.2247  2.9801
12590TIP3    H259262   5.312   5.788  16.293 -0.7864 -0.5622  0.5624
12591TIP3   OH259263   6.192   2.412  14.142  0.2593  0.2265 -0.3633
12591TIP3    H159264   6.248   2.342  14.108 -0.6635 -0.8631  0.2758
12591TIP3    H259265   6.148   2.372  14.218 -0.6808  1.3347 -0.3055
12592TIP3   OH259266   0.774   3.152   4.465  0.2131  0.2396  0.6484
12592TIP3    H159267   0.706   3.087   4.482 -0.9672  1.2271 -0.0569
12592TIP3    H259268   0.839   3.105   4.413 -0.5805 -0.4063  0.2064
12593TIP3   OH259269   3.518   3.657  13.248 -0.4884 -0.2312 -0.3026
12593TIP3    H159270   3.542   3.565  13.239 -0.3268 -0.3088  0.8423
12593TIP3    H259271   3.500   3.669  13.341 -3.7688  0.0992 -0.8391
12594TIP3   OH259272   3.765   4.015   1.796  0.6761  0.3067  0.2772
12594TIP3    H159273   3.701   3.949   1.823 -1.2995  0.5354 -3.1783
12594TIP3    H259274   3.850   3.975   1.813 -0.4362 -2.3665  0.0536
12595TIP3   OH259275   2.036   1.799  15.863  0.0886  1.0893 -0.7169
12595TIP3    H159276   1.951   1.756  15.859  0.2876  0.5998  0.1704
12595TIP3    H259277   2.045   1.841  15.777 -0.9020  0.8863 -0.9369
12596TIP3   OH259278   6.762   5.714  16.367 -0.1333 -0.7179  0.0685
12596TIP3    H159279   6.840   5.763  16.339 -1.1447  0.5222 -0.6909
12596TIP3    H259280   6.747   5.743  16.457  0.0696 -0.6903  0.0947
12597TIP3   OH259281   0.093   5.472  10.950 -0.0716  0.1688  0.7153
12597TIP3    H159282   0.067   5.533  10.881 -1.4595  0.0364  1.0895
12597TIP3    H259283   0.098   5.387  10.906 -0.7324  0.1224  0.7175
12598TIP3   OH259284   0.219   6.636   0.052  0.0859  0.4887 -0.2783
12598TIP3    H159285   0.226   6.545   0.082  3.5638  0.2953 -1.2121
12598TIP3    H259286   0.208   6.630  -0.042 -0.4720  1.0447 -0.2536
12599TIP3   OH259287   0.966   1.337   0.214  0.1314  0.1692  0.2796
12599TIP3    H159288   0.915   1.256   0.224  0.8172 -0.1817  1.0391
12599TIP3    H259289   1.004   1.330   0.126  0.2922 -0.3963  0.3908
12600TIP3   OH259290   1.750   2.097  13.902  0.4420  0.6274 -0.0402
12600TIP3    H159291   1.786   2.178  13.940 -0.6560  0.8393  0.5768
12600TIP3    H259292   1.821   2.063  13.847  0.9810  1.9184 -0.1768
12601TIP3   OH259293   5.863   5.147  14.570 -0.3795  0.3104 -0.7214
12601TIP3    H159294   5.791   5.133  14.508 -1.2142  2.2090 -0.2575
12601TIP3    H259295   5.832   5.217  14.627  1.6041  0.7492 -0.1107
12602TIP3   OH259296   1.534   6.285   1.072 -0.5526 -0.3355  0.0907
12602TIP3    H159297   1.528   6.286   1.167 -2.4632 -1.1677  0.0258
12602TIP3    H259298   1.560   6.195   1.051 -0.8991 -0.3673 -0.2071
12603TIP3   OH259299   1.470   4.346  17.040  0.3338  0.3522  0.5585
12603TIP3    H159300   1.445   4.435  17.063 -1.2088  0.2199 -0.4669
12603TIP3    H259301   1.444   4.294  17.117 -0.8052  0.5004  0.2970
12604TIP3   OH259302   3.939   2.951   2.262 -0.2288  0.3852  0.5494
12604TIP3    H159303   4.015   2.992   2.221  0.4491 -3.0080 -2.0428
12604TIP3    H259304   3.871   3.018   2.257  1.4337  2.0901 -1.0309
12605TIP3   OH259305   4.491   3.928   2.127 -0.6509 -0.0418 -0.7473
12605TIP3    H159306   4.515   3.845   2.168 -0.9932  0.0465 -0.3495
12605TIP3    H259307   4.545   3.934   2.049  1.9729  0.9980  0.9987
12606TIP3   OH259308   5.987   1.790  11.434 -0.0615 -0.3796  0.4299
12606TIP3    H159309   6.062   1.786  11.493  0.3802  0.2087 -0.0636
12606TIP3    H259310   6.003   1.721  11.369 -1.6263 -2.5044  2.1540
12607TIP3   OH259311   2.613   2.904  15.082 -0.1525  0.3145 -0.0678
12607TIP3    H159312   2.573   2.970  15.138 -1.4939  1.0263 -1.7658
12607TIP3    H259313   2.705   2.902  15.109 -0.0736  2.8399  0.0856
12608TIP3   OH259314   1.319   4.091  14.103  0.6443 -0.6183 -0.0988
12608TIP3    H159315   1.270   4.106  14.184  0.6687 -0.2918 -0.1429
12608TIP3    H259316   1.263   4.127  14.034  1.1407  0.1716 -0.1034
12609TIP3   OH259317   4.291   1.011  10.948 -0.5825 -0.4037  0.4397
12609TIP3    H159318   4.233   1.045  10.880 -2.3653 -0.8337  1.6904
12609TIP3    H259319   4.317   1.088  10.999  2.1516  0.1973 -1.6213
12610TIP3   OH259320   6.526   6.758  15.814  0.1800 -0.5320 -0.3428
12610TIP3    H159321   6.493   6.760  15.904 -0.1169  1.2576 -0.4366
12610TIP3    H259322   6.481   6.684  15.774 -0.7455 -0.5266  0.6178
12611TIP3   OH259323   0.493   6.275   1.236 -0.2188  0.4679 -0.4176
12611TIP3    H159324   0.530   6.363   1.234  0.9523  0.0276  0.5782
12611TIP3    H259325   0.525   6.237   1.318 -0.7934 -0.8467 -0.7680
12612TIP3   OH259326   4.989   1.380   6.128 -0.0284  0.0625 -0.1659
12612TIP3    H159327   5.008   1.345   6.040  0.2171  1.6570 -0.7781
12612TIP3    H259328   4.955   1.305   6.176  2.5309 -1.5645 -0.7285
12613TIP3   OH259329   2.877   2.934  15.161 -0.1823  0.1329 -0.3794
12613TIP3    H159330   2.864   2.871  15.232 -0.1330  0.5530  0.0069
12613TIP3    H259331   2.953   2.901  15.113  1.1932  1.0208  1.0789
12614TIP3   OH259332   0.393   6.123   6.384 -0.1718  1.0441 -0.0783
12614TIP3    H159333   0.413   6.128   6.478  0.0455  1.1238 -0.1266
12614TIP3    H259334   0.475   6.149   6.341 -0.1255  0.5414 -0.2966
12615TIP3   OH259335   4.910   2.573   1.468 -1.2311 -0.1442 -0.4909
12615TIP3    H159336   4.845   2.513   1.431 -1.3154 -1.3229  1.4073
12615TIP3    H259337   4.916   2.547   1.560  0.2118  1.4970 -0.0707
12616TIP3   OH259338   5.513   1.371  16.284 -0.5618 -0.2442  0.3397
12616TIP3    H159339   5.540   1.301  16.343  0.9802 -0.3358 -0.4330
12616TIP3    H259340   5.418   1.380  16.299 -0.5638 -1.6217  1.3358
12617TIP3   OH259341   0.321   4.154  11.001 -0.2764 -0.2044 -0.1423
12617TIP3    H159342   0.365   4.196  10.927  0.3207 -0.9573 -0.2344
12617TIP3    H259343   0.255   4.098  10.960 -1.1062  0.6542 -0.0183
12618TIP3   OH259344   6.192   3.024  16.500 -0.6304 -0.2291  0.0684
12618TIP3    H159345   6.133   3.094  16.471  1.1435  0.1333 -3.1585
12618TIP3    H259346   6.277   3.067  16.509 -0.2431 -1.2892  1.8266
12619TIP3   OH259347   2.949   2.495   0.653 -0.6077 -0.0685  0.4548
12619TIP3    H159348   2.998   2.514   0.573 -1.2577 -1.8568 -0.4300
12619TIP3    H259349   2.860   2.525   0.634 -0.5396  0.4265  0.9050
12620TIP3   OH259350   1.871   6.454   0.782  0.0480  0.0931  0.3190
12620TIP3    H159351   1.836   6.421   0.865 -0.8091  0.5445  0.1465
12620TIP3    H259352   1.816   6.530   0.762  0.4930  0.2092 -0.4754
12621TIP3   OH259353   5.590   1.277   4.481  0.3219 -0.0115 -0.2210
12621TIP3    H159354   5.581   1.276   4.385 -2.0193  0.9209 -0.0795
12621TIP3    H259355   5.574   1.187   4.507 -0.9136  0.0703 -0.6241
12622TIP3   OH259356   6.668   2.875   2.597 -0.3075 -0.2312 -0.0711
12622TIP3    H159357   6.758   2.889   2.623  0.4400 -1.5068 -1.7535
12622TIP3    H259358   6.616   2.893   2.675  1.3811  0.6272  0.8838
12623TIP3   OH259359   6.301   1.560   0.445  0.3533 -0.2561  0.4634
12623TIP3    H159360   6.284   1.471   0.475 -1.2266 -0.0988  0.1186
12623TIP3    H259361   6.345   1.603   0.519 -0.5280 -0.8012  1.3146
12624TIP3   OH259362   3.550   4.852   6.025 -0.1161  0.0848 -0.0369
12624TIP3    H159363   3.627   4.892   6.064 -1.1574  1.1973  0.9727
12624TIP3    H259364   3.574   4.838   5.934  1.0567  0.9964  0.1049
12625TIP3   OH259365   0.908   1.319   1.210  0.4844 -0.2984  0.4245
12625TIP3    H159366   0.868   1.232   1.212 -0.0683 -0.0729 -0.1829
12625TIP3    H259367   0.909   1.347   1.301  1.3291 -1.2264  0.7177
12626TIP3   OH259368   4.758   1.035  12.290 -0.2105  0.0414 -0.1632
12626TIP3    H159369   4.840   1.076  12.317 -0.3093  0.3803 -0.3867
12626TIP3    H259370   4.785   0.954  12.246 -0.0369 -0.4135  0.7485
12627TIP3   OH259371   0.022   5.763  12.750  0.6326  0.1507  0.8887
12627TIP3    H159372   0.073   5.744  12.829  0.2906 -3.2303  0.4504
12627TIP3    H259373  -0.057   5.805  12.783  0.6654 -0.8510  2.3501
12628TIP3   OH259374   3.753   0.946   3.555  0.1358 -0.2751 -0.0504
12628TIP3    H159375   3.802   0.980   3.481 -0.9517  0.0320 -0.6344
12628TIP3    H259376   3.754   0.851   3.542 -0.0055 -0.2259 -0.4185
12629TIP3   OH259377   4.231   5.648  16.062  0.3310 -0.0870 -0.0108
12629TIP3    H159378   4.284   5.725  16.040  1.8344 -0.3882  2.1742
12629TIP3    H259379   4.168   5.680  16.126 -0.4146 -0.2769 -0.6421
12630TIP3   OH259380   5.534   1.713  14.004 -0.3406 -0.2027  0.0918
12630TIP3    H159381   5.490   1.796  13.986 -0.2523  0.0220  0.8722
12630TIP3    H259382   5.557   1.678  13.918 -0.5004  0.5150 -0.2426
12631TIP3   OH259383   6.248   2.828   1.253  0.0442 -0.5511 -0.4617
12631TIP3    H159384   6.225   2.825   1.160 -1.0492 -1.4210 -0.1823
12631TIP3    H259385   6.173   2.790   1.298  0.4426  0.0936  0.8140
12632TIP3   OH259386   2.301   6.336   2.027  0.9353 -0.3294 -0.3128
12632TIP3    H159387   2.298   6.240   2.031 -0.4008 -0.3712 -1.4653
12632TIP3    H259388   2.279   6.357   1.936 -1.5306  1.1296  0.5238
12633TIP3   OH259389   4.466   2.810  14.867 -0.2557 -0.1965  0.0235
12633TIP3    H159390   4.425   2.877  14.812 -1.0359 -1.1946 -0.6653
12633TIP3    H259391   4.519   2.758  14.806  1.0856  0.3356  0.7063
12634TIP3   OH259392   0.478   2.911   2.511  0.5364  0.6201 -0.0152
12634TIP3    H159393   0.450   2.915   2.603 -0.0603 -0.6652 -0.1187
12634TIP3    H259394   0.472   2.818   2.489  0.0554  0.9934 -1.5355
12635TIP3   OH259395   3.407   0.402  16.173 -0.0068  0.2867  0.4316
12635TIP3    H159396   3.334   0.462  16.191  0.6495  0.4870  2.6596
12635TIP3    H259397   3.477   0.430  16.231  0.5592 -2.2147  1.0975
12636TIP3   OH259398   0.381   1.172   6.124  0.0188  0.3483 -0.2870
12636TIP3    H159399   0.453   1.139   6.178  0.2265  0.5483 -0.4399
12636TIP3    H259400   0.340   1.240   6.178 -1.2042 -0.9933  0.5569
12637TIP3   OH259401   2.207   4.217  12.696  0.7704 -0.3017  0.2339
12637TIP3    H159402   2.119   4.253  12.691  0.1914 -1.5770  0.7280
12637TIP3    H259403   2.200   4.129  12.658  2.1557  0.0885 -1.0400
12638TIP3   OH259404   1.358   3.848   6.045  0.4186 -0.2166  0.5440
12638TIP3    H159405   1.404   3.886   6.120  1.5691  1.9973 -1.1785
12638TIP3    H259406   1.427   3.804   5.995 -0.0592 -0.2971 -0.0468
12639TIP3   OH259407   6.652   6.492  10.467  0.0932  0.0730 -0.1016
12639TIP3    H159408   6.663   6.409  10.513  0.4158  0.9367  1.4370
12639TIP3    H259409   6.737   6.536  10.478 -0.7888  1.5623  1.1093
12640TIP3   OH259410   4.420   3.757  13.656  0.0651 -0.1138  0.3290
12640TIP3    H159411   4.494   3.776  13.599  0.1036 -0.3173  0.3086
12640TIP3    H259412   4.460   3.745  13.743  0.0428 -0.1061  0.3400
12641TIP3   OH259413   5.961   5.608   3.819  0.0870  0.0038 -0.3381
12641TIP3    H159414   5.905   5.533   3.799 -1.0794 -0.1766  2.9576
12641TIP3    H259415   6.050   5.576   3.807 -0.4329 -1.4512 -0.4595
12642TIP3   OH259416   1.528   2.247  10.991  0.6181 -0.0718  0.0937
12642TIP3    H159417   1.537   2.322  11.050  2.0651  1.7193 -2.2082
12642TIP3    H259418   1.584   2.179  11.029 -0.3033  0.1558  1.9464
12643TIP3   OH259419   4.588   5.833   2.814  0.0644  0.3027  0.3153
12643TIP3    H159420   4.534   5.801   2.742  0.8795  3.0357 -1.6888
12643TIP3    H259421   4.673   5.789   2.802 -0.2691 -0.4454  0.6253
12644TIP3   OH259422   3.974   2.234   5.468  0.3691  0.4626 -0.1417
12644TIP3    H159423   4.007   2.323   5.481  0.2816  0.6150 -0.9620
12644TIP3    H259424   4.011   2.184   5.542 -1.2250  1.5999  1.5158
12645TIP3   OH259425   5.364   3.783  16.859 -0.4300  0.3025 -0.0991
12645TIP3    H159426   5.409   3.867  16.868 -1.7567  1.0895 -0.4793
12645TIP3    H259427   5.322   3.770  16.944  0.4820 -0.4260  0.2542
12646TIP3   OH259428   3.507   5.754   0.736 -0.2405 -0.3151  0.3945
12646TIP3    H159429   3.578   5.783   0.677 -1.7415  1.4091 -0.6732
12646TIP3    H259430   3.543   5.678   0.780  2.5659  0.8969  0.4317
12647TIP3   OH259431   0.166   4.189  10.754  0.0289  0.2998 -0.1163
12647TIP3    H159432   0.126   4.276  10.760 -0.2276  0.3411 -1.8045
12647TIP3    H259433   0.260   4.206  10.745 -0.0858  0.4598 -1.1427
12648TIP3   OH259434   2.158   5.746   3.455 -0.3735  0.1744  0.2253
12648TIP3    H159435   2.171   5.776   3.545  0.8344  2.1099 -0.5378
12648TIP3    H259436   2.246   5.734   3.421 -0.8093 -0.0096 -0.8740
12649TIP3   OH259437   1.659   1.056  16.232 -0.5603 -0.0657 -0.0580
12649TIP3    H159438   1.664   0.995  16.159 -0.1014 -0.8536  0.6153
12649TIP3    H259439   1.689   1.006  16.308 -1.9008  0.4347  0.8530
12650TIP3   OH259440   5.694   0.775   1.121  0.3285  0.2026 -0.0235
12650TIP3    H159441   5.705   0.757   1.215  1.5205  2.7917  0.4166
12650TIP3    H259442   5.782   0.793   1.089  0.0304 -1.2586 -1.8611
12651TIP3   OH259443   1.573   4.799  15.541 -0.4700 -0.2489  0.1852
12651TIP3    H159444   1.523   4.770  15.617  0.2879 -0.9226  0.4408
12651TIP3    H259445   1.540   4.744  15.469 -1.5855  0.7741 -0.1170
12652TIP3   OH259446   0.970   4.810  13.088  0.1574  0.0680 -0.4704
12652TIP3    H159447   0.970   4.805  12.992 -0.5219  1.5312 -0.5703
12652TIP3    H259448   0.912   4.738  13.115  2.9044 -2.5322 -0.9259
12653TIP3   OH259449   0.622   4.200   4.086 -0.0798  0.3680 -0.2362
12653TIP3    H159450   0.547   4.205   4.027  1.2728  1.5423 -1.9575
12653TIP3    H259451   0.669   4.121   4.060  0.2392  0.6019 -0.3778
12654TIP3   OH259452   1.040   2.173   3.431  0.4570 -0.7407 -0.2355
12654TIP3    H159453   0.965   2.116   3.449 -0.5349  0.2728 -1.0030
12654TIP3    H259454   1.101   2.117   3.382 -0.3306 -1.2443 -0.6581
12655TIP3   OH259455   3.005   1.645  14.388 -0.2880 -0.1534 -0.3145
12655TIP3    H159456   2.940   1.640  14.318 -0.2616  2.1560 -0.5894
12655TIP3    H259457   3.072   1.704  14.354  1.5190 -1.7604  0.3233
12656TIP3   OH259458   3.154   5.304  11.283 -0.2529  0.0551 -0.5614
12656TIP3    H159459   3.088   5.292  11.352  0.9534  1.0069  0.8232
12656TIP3    H259460   3.107   5.345  11.211 -0.8943  2.2678  1.0065
12657TIP3   OH259461   6.649   0.591  11.324  0.0881  0.1362 -0.4435
12657TIP3    H159462   6.650   0.619  11.232 -1.3623 -1.9905 -1.1781
12657TIP3    H259463   6.561   0.615  11.355  0.3530  0.2884  0.2055
12658TIP3   OH259464   1.402   1.253   5.537 -0.0970  0.0504 -0.1315
12658TIP3    H159465   1.410   1.166   5.498 -0.6718  0.0286 -0.2107
12658TIP3    H259466   1.492   1.283   5.546  0.0464  0.3981 -2.2473
12659TIP3   OH259467   4.485   4.658  14.486  0.0965 -0.2506  0.1391
12659TIP3    H159468   4.469   4.563  14.484  0.7363 -0.4552  2.1017
12659TIP3    H259469   4.579   4.666  14.501 -0.4821  0.4572  5.0808
12660TIP3   OH259470   0.312   1.813   5.761  0.2982  0.0198  0.0484
12660TIP3    H159471   0.321   1.878   5.831  2.1696 -0.3038  0.1642
12660TIP3    H259472   0.232   1.839   5.714  1.0156  2.4732  0.0186
12661TIP3   OH259473   2.208   4.855   1.113 -0.3771  0.4092 -0.1926
12661TIP3    H159474   2.257   4.773   1.115 -1.0301  0.0152 -0.0764
12661TIP3    H259475   2.236   4.901   1.192  2.0172  1.5238 -1.5865
12662TIP3   OH259476   3.832   3.885   3.912  0.2728  0.0666  0.2096
12662TIP3    H159477   3.770   3.816   3.891  1.1536  0.3243 -4.0632
12662TIP3    H259478   3.781   3.966   3.908  0.4880  0.1578 -1.9247
12663TIP3   OH259479   2.424   6.002  11.959  0.9917 -0.3971  0.0165
12663TIP3    H159480   2.383   5.936  11.904 -1.6084  1.1885 -0.1081
12663TIP3    H259481   2.507   6.021  11.914  0.4646 -1.4891 -1.5208
12664TIP3   OH259482   3.593   1.953  11.612 -0.4903 -0.7745 -0.8562
12664TIP3    H159483   3.501   1.932  11.594 -0.5397  1.0423 -3.3237
12664TIP3    H259484   3.590   2.041  11.650  0.2673  0.3662 -3.2638
12665TIP3   OH259485   2.323   4.600  16.223 -0.3427 -0.3183 -0.4593
12665TIP3    H159486   2.263   4.572  16.292  0.2016  2.8345  1.5311
12665TIP3    H259487   2.394   4.536  16.225 -2.0162 -2.2844 -0.6226
12666TIP3   OH259488   5.600   5.746  16.483  0.7430  0.3034 -0.4680
12666TIP3    H159489   5.630   5.720  16.570  0.1098  2.6166  0.5216
12666TIP3    H259490   5.550   5.671  16.452 -1.4202  0.3539  2.4052
12667TIP3   OH259491   6.607   2.550   1.905  0.0638 -0.1085 -0.1911
12667TIP3    H159492   6.563   2.530   1.822 -0.2835  1.0566 -0.3039
12667TIP3    H259493   6.699   2.530   1.888 -0.0137  0.0425 -0.8362
12668TIP3   OH259494   2.726   6.691  16.171 -0.0621  0.2631 -0.3923
12668TIP3    H159495   2.796   6.663  16.230 -2.0344 -0.0745  1.9430
12668TIP3    H259496   2.671   6.613  16.159 -1.5584  1.1801  0.1458
12669TIP3   OH259497   1.480   1.337   1.134  0.0982 -0.1813  0.2509
12669TIP3    H159498   1.494   1.307   1.044  1.9750 -0.3718  0.5842
12669TIP3    H259499   1.549   1.296   1.185 -0.1943  0.9043  1.5827
12670TIP3   OH259500   3.669   6.734  10.393 -0.1189 -0.3645  0.0471
12670TIP3    H159501   3.576   6.714  10.380 -0.0310 -1.2058  0.6222
12670TIP3    H259502   3.700   6.761  10.307 -0.6769 -1.0154 -0.3692
12671TIP3   OH259503   0.243   3.210  16.845 -0.0184  0.2975  0.4833
12671TIP3    H159504   0.337   3.194  16.850 -0.0681  0.4223  2.2853
12671TIP3    H259505   0.221   3.193  16.753  1.4945 -1.1723  0.3514
12672TIP3   OH259506   5.674   0.905  15.209  0.1275  0.3422 -0.1636
12672TIP3    H159507   5.592   0.955  15.210  0.2320  0.5100  0.0781
12672TIP3    H259508   5.664   0.844  15.135 -0.7530 -0.5107  0.6228
12673TIP3   OH259509   6.551   0.022   0.586  0.3428  0.4842  0.3482
12673TIP3    H159510   6.474   0.016   0.529  0.9975  1.6696 -0.7037
12673TIP3    H259511   6.541  -0.052   0.646 -1.7304  0.7275  0.3991
12674TIP3   OH259512   5.236   1.644  12.588 -0.3760  0.3825  0.2591
12674TIP3    H159513   5.311   1.631  12.530 -1.1854 -2.0086 -0.3636
12674TIP3    H259514   5.190   1.719  12.551 -1.3116 -1.4945 -2.8588
12675TIP3   OH259515   3.381   3.351   2.632 -0.2443 -0.7802 -0.6431
12675TIP3    H159516   3.383   3.446   2.626 -0.1542 -0.8391 -1.7544
12675TIP3    H259517   3.402   3.321   2.544 -0.1478 -1.8323 -0.2748
12676TIP3   OH259518   6.501   5.407  13.048  0.4187  0.3774 -0.3356
12676TIP3    H159519   6.478   5.476  13.110  0.0653 -1.8341  2.1600
12676TIP3    H259520   6.596   5.416  13.037  0.4492  0.9688  0.3487
12677TIP3   OH259521   2.615   6.534  11.285 -0.3990  0.0870  0.3171
12677TIP3    H159522   2.541   6.595  11.284  0.8526  1.7781 -2.0994
12677TIP3    H259523   2.581   6.455  11.242 -1.4371 -0.1134  1.4583
12678TIP3   OH259524   6.288   2.394  12.515 -0.2769 -0.0366 -0.4236
12678TIP3    H159525   6.312   2.338  12.442 -1.9379 -0.2310 -0.8478
12678TIP3    H259526   6.270   2.334  12.587  2.3597  0.1865  0.5338
12679TIP3   OH259527   0.160   5.841   3.252 -0.0566  0.5448  0.0570
12679TIP3    H159528   0.080   5.894   3.245 -1.1456 -1.1944 -1.6200
12679TIP3    H259529   0.129   5.754   3.274  1.5765  0.1824  1.1352
12680TIP3   OH259530   6.748   1.495   0.095 -0.0241 -0.4985  0.3952
12680TIP3    H159531   6.686   1.535   0.156  0.4712  0.1105  0.4977
12680TIP3    H259532   6.711   1.408   0.078 -1.2546  0.0887 -0.0519
12681TIP3   OH259533   1.573   1.888  16.716 -0.0988  0.3854  0.1252
12681TIP3    H159534   1.612   1.813  16.673  0.4516  0.0004  1.2715
12681TIP3    H259535   1.607   1.886  16.806 -0.4003  1.7528  0.3017
12682TIP3   OH259536   1.831   0.236  11.914 -0.1736 -0.1733 -0.0226
12682TIP3    H159537   1.763   0.168  11.921  0.5081 -0.7170  2.2122
12682TIP3    H259538   1.782   0.316  11.895 -1.0295 -1.1778 -2.4557
12683TIP3   OH259539   1.890   5.753   6.004  0.3887  0.4931 -0.2091
12683TIP3    H159540   1.820   5.816   6.022 -1.2612 -1.5384  0.9146
12683TIP3    H259541   1.918   5.723   6.090  0.3613 -1.0959 -0.7292
12684TIP3   OH259542   5.804   1.338  17.073 -0.0897  0.2846 -0.4797
12684TIP3    H159543   5.722   1.332  17.122 -0.3258  0.9682 -0.7854
12684TIP3    H259544   5.797   1.420  17.024  0.3187 -0.1870 -1.3442
12685TIP3   OH259545   5.747   1.415   3.620  0.4044  0.0323  0.3807
12685TIP3    H159546   5.689   1.365   3.677  0.1201 -1.6756 -1.3015
12685TIP3    H259547   5.834   1.404   3.659 -0.0479  0.6953  1.6320
12686TIP3   OH259548   2.683   5.543  11.924  0.6631  0.2753  0.0741
12686TIP3    H159549   2.677   5.457  11.883 -0.3705 -0.9675  2.5915
12686TIP3    H259550   2.777   5.556  11.939  1.2297  1.3243 -3.4825
12687TIP3   OH259551   2.196   6.095   3.779 -0.3999  0.1202 -0.8463
12687TIP3    H159552   2.162   6.080   3.867  0.4353  0.5396 -0.4377
12687TIP3    H259553   2.127   6.145   3.735 -3.2387 -4.4295 -2.2274
12688TIP3   OH259554   5.693   6.183  16.051  0.2993 -0.0955  0.2731
12688TIP3    H159555   5.689   6.253  15.986  1.1685 -1.4942 -1.3895
12688TIP3    H259556   5.620   6.126  16.029  1.3529 -1.2550 -0.3443
12689TIP3   OH259557   3.880   2.529   1.084  0.0554 -0.3426  0.2803
12689TIP3    H159558   3.910   2.600   1.027  3.5792  0.3843  2.7295
12689TIP3    H259559   3.790   2.512   1.055  0.8659  1.3231 -4.0059
12690TIP3   OH259560   6.131   6.278  12.982  1.0770  0.2065 -0.2318
12690TIP3    H159561   6.100   6.246  13.067  3.2963 -0.1671  0.5106
12690TIP3    H259562   6.226   6.280  12.991  1.3650  0.3226 -2.6714
12691TIP3   OH259563   6.704   6.452  11.085 -0.1863 -0.6134  0.6519
12691TIP3    H159564   6.706   6.468  10.991  0.2894  0.8516  0.8800
12691TIP3    H259565   6.614   6.473  11.111 -0.1047 -0.2514  0.6420
12692TIP3   OH259566   3.446   3.583  14.234  0.1476 -0.3936 -0.0429
12692TIP3    H159567   3.375   3.519  14.236  0.8306 -1.1843 -0.1936
12692TIP3    H259568   3.403   3.668  14.238 -0.7501 -0.8724  0.9222
12693TIP3   OH259569   6.348   0.309   4.583 -0.0801 -0.6651  0.2083
12693TIP3    H159570   6.390   0.240   4.634 -0.8051  1.1179  3.4581
12693TIP3    H259571   6.266   0.271   4.552 -0.1310 -1.4823  1.3169
12694TIP3   OH259572   0.014   1.216   3.294 -0.1957 -0.4375  0.4526
12694TIP3    H159573  -0.020   1.301   3.320  1.7739  0.2692  0.8837
12694TIP3    H259574   0.102   1.212   3.333  0.0910 -2.3057 -0.2645
12695TIP3   OH259575   2.810   6.581  14.374  0.1427 -0.0137 -0.0087
12695TIP3    H159576   2.811   6.506  14.316  0.4745 -0.2822  0.3365
12695TIP3    H259577   2.902   6.596  14.395  0.0444  0.2290  0.2563
12696TIP3   OH259578   4.721   3.249   3.990 -0.8145 -0.0819 -0.2701
12696TIP3    H159579   4.749   3.167   3.951  1.9681  1.1733 -1.1176
12696TIP3    H259580   4.767   3.253   4.074  0.3758  1.2860 -0.9497
12697TIP3   OH259581   4.423   2.604  15.681 -0.2989 -0.4737 -0.2424
12697TIP3    H159582   4.359   2.673  15.666 -0.1074 -0.5152 -1.3807
12697TIP3    H259583   4.373   2.532  15.718 -0.7112 -0.1361 -0.1345
12698TIP3   OH259584   1.891   6.237  11.274 -0.1191  0.6589 -0.3159
12698TIP3    H159585   1.875   6.328  11.301 -1.2345  0.5446 -0.5248
12698TIP3    H259586   1.843   6.228  11.192 -2.3144 -0.8243  0.9993
12699TIP3   OH259587   1.960   5.205   1.115 -0.8212 -0.0189 -0.4519
12699TIP3    H159588   1.997   5.245   1.193 -0.0727  0.3312 -0.9707
12699TIP3    H259589   1.869   5.187   1.137 -0.9403  1.1937  0.0715
12700TIP3   OH259590   1.827   5.786   3.572 -0.1788  0.0692  0.1546
12700TIP3    H159591   1.862   5.698   3.584 -0.7236 -0.0598  0.8634
12700TIP3    H259592   1.733   5.776   3.582 -0.1131  1.0445  2.4307
12701TIP3   OH259593   6.572   0.966  11.663 -0.1762 -0.3733 -0.4763
12701TIP3    H159594   6.535   1.052  11.687 -1.4023 -0.5880 -1.4745
12701TIP3    H259595   6.610   0.979  11.576  0.2250 -0.6825 -0.3489
12702TIP3   OH259596   1.526   4.019  14.399 -0.1527  0.1377 -0.1049
12702TIP3    H159597   1.505   3.938  14.446 -2.5828 -0.8229 -2.6070
12702TIP3    H259598   1.529   3.994  14.307  0.5598  2.6466 -0.8455
12703TIP3   OH259599   4.676   5.127  11.347  0.7830  0.8660 -0.1768
12703TIP3    H159600   4.611   5.152  11.282 -0.9557  1.2381  1.6316
12703TIP3    H259601   4.633   5.060  11.400  3.4120 -2.2208 -1.5315
12704TIP3   OH259602   4.277   1.271  11.790  0.1472  0.1384  0.1240
12704TIP3    H159603   4.333   1.198  11.768  1.5594  1.2539 -0.1213
12704TIP3    H259604   4.333   1.348  11.780 -1.2714  1.2483  0.4183
12705TIP3   OH259605   2.671   5.073  14.943 -0.0515  0.0860  0.0122
12705TIP3    H159606   2.698   4.982  14.954  0.4928  0.4230  1.7812
12705TIP3    H259607   2.608   5.088  15.013 -0.1664  1.0599 -0.2834
12706TIP3   OH259608   1.654   3.645   0.121  0.0425 -0.1286 -0.1839
12706TIP3    H159609   1.603   3.673   0.045  0.2988  1.0056  0.0531
12706TIP3    H259610   1.593   3.591   0.171 -1.1355  1.5954  0.3498
12707TIP3   OH259611   6.639   2.389  14.583 -0.2018  0.1413  0.4661
12707TIP3    H159612   6.587   2.312  14.608 -0.2204  0.0410  0.1217
12707TIP3    H259613   6.730   2.359  14.588 -0.2557 -0.7525 -2.3194
12708TIP3   OH259614   5.351   3.573   4.150 -0.1203  0.4374  0.2739
12708TIP3    H159615   5.267   3.603   4.115  0.1208 -1.0266 -1.7782
12708TIP3    H259616   5.417   3.615   4.093  0.5552  1.2568  1.6087
12709TIP3   OH259617   1.756   3.030   4.529 -0.0243 -0.3736  0.2269
12709TIP3    H159618   1.752   2.939   4.560  1.7256 -0.0920  1.4072
12709TIP3    H259619   1.789   3.079   4.603  2.0037  0.7415 -1.3070
12710TIP3   OH259620   3.410   2.468  15.219  0.7316  0.2013 -0.1895
12710TIP3    H159621   3.487   2.515  15.252  0.9426  0.8045 -1.5024
12710TIP3    H259622   3.446   2.386  15.185  0.7365  0.3053 -0.4340
12711TIP3   OH259623   3.786   0.387  15.505 -0.1583  0.2247 -0.0138
12711TIP3    H159624   3.869   0.373  15.549 -0.3736  2.6378  1.3078
12711TIP3    H259625   3.721   0.385  15.575 -0.7449  2.0927 -0.4459
12712TIP3   OH259626   5.147   0.327  11.474  0.0960 -0.4101 -0.4964
12712TIP3    H159627   5.180   0.283  11.396  0.5066 -1.1036  0.0558
12712TIP3    H259628   5.225   0.360  11.518 -0.2234  1.1880 -1.0625
12713TIP3   OH259629   1.762   2.933   1.579 -0.2859 -0.8069  0.2119
12713TIP3    H159630   1.684   2.975   1.614 -0.4122 -0.6137 -0.2930
12713TIP3    H259631   1.803   2.890   1.655  0.6753  1.4627  1.0616
12714TIP3   OH259632   2.549   0.840  14.079  0.0151  0.3602 -0.1226
12714TIP3    H159633   2.480   0.861  14.142 -0.5706 -0.8181 -0.3454
12714TIP3    H259634   2.625   0.891  14.109 -0.5205  0.5497  0.9726
12715TIP3   OH259635   0.483   1.294  15.547  0.2751 -0.7879  0.6236
12715TIP3    H159636   0.418   1.224  15.544 -0.1298 -0.4015  0.3882
12715TIP3    H259637   0.453   1.358  15.483  1.3014 -0.9641 -0.0580
12716TIP3   OH259638   0.276   5.617   3.584  0.3559  0.1847  0.2262
12716TIP3    H159639   0.182   5.624   3.572  0.2063 -1.3325  0.3421
12716TIP3    H259640   0.304   5.555   3.516  1.0395 -0.5465  1.1589
12717TIP3   OH259641   3.076   5.308  11.552 -0.6531  0.9515 -0.2442
12717TIP3    H159642   3.153   5.252  11.559 -1.3216  0.0835  0.2856
12717TIP3    H259643   3.110   5.391  11.516  0.5198  0.6030  0.0253
12718TIP3   OH259644   2.361   0.691   0.565 -0.0135  0.4042  0.1757
12718TIP3    H159645   2.411   0.696   0.646 -2.8137  0.3591  2.0153
12718TIP3    H259646   2.333   0.600   0.559  3.3989 -0.6986 -3.0926
12719TIP3   OH259647   4.535   4.946  13.296 -0.6247 -0.7685  0.6535
12719TIP3    H159648   4.577   5.031  13.285 -1.4685 -0.5274 -0.9343
12719TIP3    H259649   4.441   4.964  13.290 -0.8007 -1.8773 -0.3117
12720TIP3   OH259650   6.189   0.521   1.956 -0.1401 -0.3684  0.2538
12720TIP3    H159651   6.133   0.481   1.889 -1.3698  0.1755  0.9203
12720TIP3    H259652   6.244   0.449   1.988 -0.4714 -0.9225 -0.4086
12721TIP3   OH259653   2.202   4.646  11.132 -0.6315 -0.4023 -0.9746
12721TIP3    H159654   2.274   4.706  11.148  0.2686 -1.3669 -1.2876
12721TIP3    H259655   2.140   4.697  11.079  0.4150  0.0578 -1.7974
12722TIP3   OH259656   0.459   1.612  16.177  0.3913 -0.1269  0.0286
12722TIP3    H159657   0.513   1.608  16.099 -1.0845  0.2424 -1.0657
12722TIP3    H259658   0.439   1.705  16.188  0.1853 -0.2277  0.5470
12723TIP3   OH259659   2.453   2.510  16.572 -0.0330  0.3332  0.0545
12723TIP3    H159660   2.366   2.544  16.553  0.4533  1.1223 -0.8365
12723TIP3    H259661   2.475   2.549  16.657 -0.5595  0.0887  0.3091
12724TIP3   OH259662   2.596   4.118  12.802  0.2804  0.1611  0.6335
12724TIP3    H159663   2.678   4.153  12.766 -0.1464  0.6844  0.1658
12724TIP3    H259664   2.578   4.174  12.878 -0.1228  0.6305  0.1967
12725TIP3   OH259665   0.870   3.492   3.655 -0.1428  0.3488 -0.4766
12725TIP3    H159666   0.891   3.453   3.571  1.9241  0.0602  0.1148
12725TIP3    H259667   0.939   3.557   3.670  0.1106 -0.2687  1.3903
12726TIP3   OH259668   6.110   5.252   3.936  0.0062  0.2663  0.2974
12726TIP3    H159669   6.118   5.277   4.028  0.1570 -0.6369  0.5362
12726TIP3    H259670   6.047   5.315   3.900  0.8526  1.3849  0.7132
12727TIP3   OH259671   5.242   4.428   2.305 -0.2419  0.1191 -0.1293
12727TIP3    H159672   5.242   4.446   2.211 -1.6880 -0.1558 -0.2049
12727TIP3    H259673   5.245   4.332   2.311 -0.3852  0.1273  0.0862
12728TIP3   OH259674   4.578   5.835  15.473 -0.2585  0.3047  0.1697
12728TIP3    H159675   4.530   5.789  15.541 -1.0691  0.0828 -0.5293
12728TIP3    H259676   4.531   5.918  15.463  0.6068  0.8735  0.7440
12729TIP3   OH259677   4.111   0.170   0.604 -0.0655 -0.2955 -0.2955
12729TIP3    H159678   4.114   0.076   0.584  0.5465 -0.8463  2.0013
12729TIP3    H259679   4.170   0.179   0.680  0.2387  2.0348 -0.7521
12730TIP3   OH259680   1.938   3.590   2.644 -0.7891  0.1052 -0.1111
12730TIP3    H159681   1.884   3.619   2.571  0.8119 -0.2606 -1.5181
12730TIP3    H259682   2.027   3.618   2.620  0.0300 -1.4892  0.8977
12731TIP3   OH259683   4.686   5.386   3.306 -0.9475  0.0164 -0.0822
12731TIP3    H159684   4.735   5.304   3.303 -0.2044  0.4728 -0.6863
12731TIP3    H259685   4.722   5.439   3.234 -0.5166  1.3577  1.0646
12732TIP3   OH259686   3.749   4.562  11.568  0.2791  0.6386  0.0065
12732TIP3    H159687   3.745   4.481  11.516  1.0901  0.1432  0.6927
12732TIP3    H259688   3.841   4.589  11.563  0.4828  0.2996  1.5978
12733TIP3   OH259689   6.674   4.009  11.779  0.4238  0.6431 -0.0353
12733TIP3    H159690   6.646   4.001  11.870 -2.1596  1.4853 -0.6950
12733TIP3    H259691   6.705   3.921  11.756 -1.4663 -0.3072  0.8783
12734TIP3   OH259692   6.390   0.084  12.873  0.1325  0.0001  0.4773
12734TIP3    H159693   6.402   0.055  12.782  1.6716 -2.3583  1.3407
12734TIP3    H259694   6.296   0.080  12.887 -0.1958  1.0669 -1.1992
12735TIP3   OH259695   6.741   5.803  16.643  0.4865  0.1820  0.0148
12735TIP3    H159696   6.737   5.718  16.687  1.1300 -0.1166 -0.4843
12735TIP3    H259697   6.667   5.852  16.678 -1.0587 -1.2646 -1.0630
12736TIP3   OH259698   4.699   1.950  16.604 -0.4933  0.1412  0.0016
12736TIP3    H159699   4.654   2.004  16.539  1.2321  2.4806  0.5794
12736TIP3    H259700   4.769   1.906  16.555  0.7652  1.8538  0.1544
12737TIP3   OH259701   5.388   4.796   4.995  0.0727 -0.2559 -0.3485
12737TIP3    H159702   5.461   4.783   4.935 -0.2723  0.1663 -0.8699
12737TIP3    H259703   5.344   4.875   4.963 -0.9687 -0.8490 -0.4105
12738TIP3   OH259704   5.632   1.440  16.051  0.2625 -0.3702 -0.6075
12738TIP3    H159705   5.563   1.424  15.986  2.3146 -2.1595 -2.5278
12738TIP3    H259706   5.585   1.454  16.133 -2.3792 -1.8708 -1.7356
12739TIP3   OH259707   4.046   0.905  13.580  0.1490  0.2711 -0.0202
12739TIP3    H159708   4.069   0.974  13.643 -0.9526  1.1310 -0.5233
12739TIP3    H259709   4.070   0.942  13.495 -0.5665  0.0936 -0.3050
12740TIP3   OH259710   1.207   5.084  12.353  0.5486  0.7458 -0.0370
12740TIP3    H159711   1.300   5.108  12.352  0.8992 -0.4254  1.2033
12740TIP3    H259712   1.207   4.989  12.368 -0.8426  1.1449  3.5762
12741TIP3   OH259713   0.937   5.442   6.050 -0.0293  0.2757 -0.5267
12741TIP3    H159714   0.960   5.439   5.958  2.6222  0.9836  0.0367
12741TIP3    H259715   0.913   5.352   6.073 -1.8952  0.3032 -2.0990
12742TIP3   OH259716   0.984   2.945  14.721  0.4841 -0.6650 -0.7039
12742TIP3    H159717   1.029   3.028  14.709 -1.7005  0.4786 -1.5639
12742TIP3    H259718   0.913   2.964  14.782  1.4169 -2.5414  1.0739
12743TIP3   OH259719   5.880   3.797  16.447  0.3715 -0.4053  0.0387
12743TIP3    H159720   5.946   3.809  16.516  1.3047 -0.7860 -0.7660
12743TIP3    H259721   5.893   3.707  16.418  0.2143 -0.1372 -0.8740
12744TIP3   OH259722   0.231   6.454  12.898 -0.2541 -1.0158  1.0097
12744TIP3    H159723   0.168   6.382  12.896  0.3498 -1.5801  1.5804
12744TIP3    H259724   0.177   6.532  12.911 -1.0599 -1.1513 -1.0838
12745TIP3   OH259725   4.432   3.496   6.023 -0.2295 -0.4817  0.1182
12745TIP3    H159726   4.474   3.424   5.977  1.0050 -0.9647  1.8967
12745TIP3    H259727   4.383   3.454   6.094  1.3849  0.4012  1.8553
12746TIP3   OH259728   5.742   0.772  14.356 -0.2929  0.1324 -0.0822
12746TIP3    H159729   5.749   0.677  14.346 -3.2458 -0.3554  1.5010
12746TIP3    H259730   5.825   0.798  14.396  0.7889 -1.6588 -1.0299
12747TIP3   OH259731   2.289   1.012  15.376 -0.2854  0.4962 -0.1137
12747TIP3    H159732   2.216   1.007  15.438  0.1784  2.0492  0.5969
12747TIP3    H259733   2.249   1.043  15.295 -0.7092 -0.5076 -0.3147
12748TIP3   OH259734   6.705   4.081   4.615 -0.3135  0.1070 -0.0212
12748TIP3    H159735   6.613   4.076   4.643 -0.4624  0.6840 -0.3708
12748TIP3    H259736   6.742   3.996   4.637 -1.1469 -0.4197 -0.5895
12749TIP3   OH259737   2.184   4.203  13.826  0.0577 -0.1907 -0.1980
12749TIP3    H159738   2.269   4.235  13.796  1.2764 -2.0394  1.1193
12749TIP3    H259739   2.161   4.260  13.899  1.2800 -1.0357  0.8850
12750TIP3   OH259740   6.675   3.644  14.885 -0.0446 -0.4405 -0.1135
12750TIP3    H159741   6.639   3.624  14.972 -0.4195  0.0405 -0.1504
12750TIP3    H259742   6.609   3.611  14.824 -1.5580  2.3043 -0.1701
12751TIP3   OH259743   4.207   0.371   3.198 -0.1498  0.4295 -0.1505
12751TIP3    H159744   4.154   0.394   3.122 -2.4549 -1.6712  0.6907
12751TIP3    H259745   4.217   0.276   3.193  0.4089  0.3453  1.7019
12752TIP3   OH259746   0.232   3.560  13.391  0.1497  0.1073 -0.5340
12752TIP3    H159747   0.195   3.639  13.430  0.4363 -0.0802  0.1420
12752TIP3    H259748   0.201   3.489  13.448  1.3747 -0.0729 -0.0526
12753TIP3   OH259749   3.438   0.786   2.365 -0.1302 -0.7781 -0.2041
12753TIP3    H159750   3.523   0.745   2.380  0.7279  1.3661  1.3892
12753TIP3    H259751   3.392   0.777   2.449  0.0912  1.3567  0.2098
12754TIP3   OH259752   1.299   4.356  14.964 -0.0279 -0.3491 -0.0031
12754TIP3    H159753   1.348   4.292  15.016  2.2600 -0.1026 -1.7108
12754TIP3    H259754   1.280   4.310  14.882  1.5031  1.0261 -1.1875
12755TIP3   OH259755   2.162   0.879   5.134  0.1022  0.0057 -0.0091
12755TIP3    H159756   2.172   0.971   5.158  1.4079  0.0870 -0.8085
12755TIP3    H259757   2.067   0.866   5.128 -0.1295  0.9502  1.3873
12756TIP3   OH259758   5.148   5.978   0.660 -0.4351 -0.1672 -0.2041
12756TIP3    H159759   5.222   6.037   0.645 -1.7748  2.1377  1.5672
12756TIP3    H259760   5.099   5.980   0.578  0.2513  0.0957 -0.6193
12757TIP3   OH259761   5.692   1.035   3.572  0.2920  0.5146 -0.4637
12757TIP3    H159762   5.785   1.055   3.559  0.6711 -0.5088  0.5387
12757TIP3    H259763   5.647   1.115   3.544  1.5218  1.3932 -0.0461
12758TIP3   OH259764   0.524   5.949  12.482 -0.1945 -0.0320  0.1799
12758TIP3    H159765   0.569   5.877  12.438 -0.4233  0.6551 -1.2422
12758TIP3    H259766   0.464   5.983  12.416 -0.9596  0.7003  1.2235
12759TIP3   OH259767   2.649   6.411   2.383  0.5477 -0.0552  0.9252
12759TIP3    H159768   2.560   6.392   2.355  0.5963  1.8285 -0.6984
12759TIP3    H259769   2.640   6.444   2.473 -0.4750  0.6828  0.5665
12760TIP3   OH259770   0.890   1.531   6.389  0.1221 -0.2756 -0.2023
12760TIP3    H159771   0.979   1.498   6.379  0.1551 -0.1215 -0.4243
12760TIP3    H259772   0.835   1.463   6.352  0.0748 -0.8050  0.7893
12761TIP3   OH259773   6.047   2.530   3.832 -0.4830  0.0646 -0.3604
12761TIP3    H159774   6.104   2.604   3.815  0.1454 -0.2954  0.1292
12761TIP3    H259775   6.062   2.508   3.924 -3.1761  1.4374  0.4910
12762TIP3   OH259776   3.428   3.034  11.807 -0.2691  0.5447  0.1332
12762TIP3    H159777   3.364   3.075  11.866 -1.0731  0.5859 -0.7285
12762TIP3    H259778   3.383   2.956  11.774  0.8321 -0.4440  0.9053
12763TIP3   OH259779   6.386   3.461  14.256  0.3573 -0.5546 -0.5330
12763TIP3    H159780   6.313   3.478  14.196  1.2405  1.3013 -1.1723
12763TIP3    H259781   6.462   3.454  14.199  1.4408  2.5262  0.3278
12764TIP3   OH259782   3.402   6.712   5.925  0.4638  0.0207 -0.1097
12764TIP3    H159783   3.485   6.675   5.896  0.1648 -0.1832 -0.7272
12764TIP3    H259784   3.377   6.659   6.001  1.5581  0.9548  0.9458
12765TIP3   OH259785   5.532   0.783   4.888 -0.6795  0.3525  0.2056
12765TIP3    H159786   5.563   0.792   4.979 -2.0256 -0.9315  0.8236
12765TIP3    H259787   5.605   0.818   4.835  1.3492 -1.4342  1.6388
12766TIP3   OH259788   1.919   3.883   5.006 -0.3029 -0.3538 -0.3740
12766TIP3    H159789   1.988   3.944   4.982  0.2985 -0.6093  0.6338
12766TIP3    H259790   1.866   3.874   4.927 -0.2428  1.2361 -0.6250
12767TIP3   OH259791   6.730   3.295  15.918 -0.1100 -0.2041 -0.2963
12767TIP3    H159792   6.636   3.302  15.901 -0.8969  0.7746  3.5029
12767TIP3    H259793   6.765   3.381  15.896 -0.0134 -0.6230 -1.8828
12768TIP3   OH259794   4.001   2.289  12.761  0.1758 -0.5556  0.0692
12768TIP3    H159795   3.962   2.360  12.812  0.7232 -0.0250 -0.2370
12768TIP3    H259796   4.095   2.296  12.780  0.0665 -2.5181  1.7099
12769TIP3   OH259797   5.011   3.625   4.695  0.0407  0.1857  0.3561
12769TIP3    H159798   4.975   3.644   4.782  0.3730  1.4421  0.2471
12769TIP3    H259799   5.055   3.541   4.704 -1.9626 -0.8879  0.7774
12770TIP3   OH259800   0.456   3.261  14.025  0.1774  0.1458  0.0939
12770TIP3    H159801   0.445   3.296  13.937 -0.0922 -0.6515 -0.1892
12770TIP3    H259802   0.530   3.311  14.061 -1.3917  2.4234  0.4164
12771TIP3   OH259803   6.195   4.633  15.674 -0.1332  0.1296 -0.5738
12771TIP3    H159804   6.212   4.539  15.673 -0.5984  0.0416 -1.4619
12771TIP3    H259805   6.248   4.667  15.747  1.8147 -0.4722 -1.6423
12772TIP3   OH259806   4.315   3.299  12.102 -0.4411  0.2417  0.3299
12772TIP3    H159807   4.336   3.367  12.038 -0.8622  0.0302 -0.0373
12772TIP3    H259808   4.246   3.247  12.060  0.8898 -1.3218 -0.0374
12773TIP3   OH259809   5.500   4.713  12.053  0.9032 -0.1212 -0.6258
12773TIP3    H159810   5.427   4.653  12.037 -0.4493  1.1709  0.4400
12773TIP3    H259811   5.495   4.776  11.981  1.0212 -0.0695 -0.5895
12774TIP3   OH259812   2.131   5.760  16.809  0.5976  0.5279 -0.0936
12774TIP3    H159813   2.131   5.664  16.808 -0.6527  0.5079 -1.0496
12774TIP3    H259814   2.170   5.784  16.725  0.3128  0.8453 -0.1340
12775TIP3   OH259815   1.033   6.760   4.869  0.4793 -0.9314  0.1261
12775TIP3    H159816   0.978   6.825   4.913  0.2619 -0.7112 -0.4706
12775TIP3    H259817   0.984   6.678   4.878 -0.6584 -0.4842 -1.6369
12776TIP3   OH259818   5.644   2.243   4.241 -0.4907  0.6235  0.3930
12776TIP3    H159819   5.734   2.212   4.246 -0.3195  0.5094 -2.1483
12776TIP3    H259820   5.612   2.240   4.331  1.5000 -0.9408  1.1009
12777TIP3   OH259821   1.306   5.206  10.754  0.2385 -0.3406  0.0406
12777TIP3    H159822   1.389   5.251  10.740  1.1360 -1.8332  0.3489
12777TIP3    H259823   1.264   5.204  10.668  1.2917 -1.0169 -0.4663
12778TIP3   OH259824   4.635   0.810   5.695  0.0148 -0.4500 -0.4668
12778TIP3    H159825   4.584   0.734   5.723 -0.6886  0.4321  0.7361
12778TIP3    H259826   4.725   0.790   5.720 -0.2831 -0.5920  0.5354
12779TIP3   OH259827   6.278   0.116   2.214  0.5921  0.8178 -0.2204
12779TIP3    H159828   6.274   0.211   2.203  3.3486  1.0374 -0.0005
12779TIP3    H259829   6.343   0.087   2.150  0.1996 -0.8693  0.0875
12780TIP3   OH259830   2.672   0.918   0.255  0.5576  0.3899  0.7408
12780TIP3    H159831   2.755   0.938   0.298 -0.2042  2.2489  1.4588
12780TIP3    H259832   2.606   0.929   0.324 -0.3557 -0.3437  0.0102
12781TIP3   OH259833   4.024   3.446   4.926  0.3994  0.4584  0.0303
12781TIP3    H159834   4.020   3.423   4.833  1.2114 -0.1319  0.1320
12781TIP3    H259835   3.951   3.506   4.939 -0.7955 -0.7961 -0.6179
12782TIP3   OH259836   6.085   6.776   5.248  0.7720 -0.0353  0.0579
12782TIP3    H159837   6.142   6.852   5.238  2.9521 -1.5552  0.1894
12782TIP3    H259838   6.088   6.756   5.342  0.1869 -0.2504  0.0326
12783TIP3   OH259839   3.437   5.226  17.119 -0.3070  0.4015 -0.1868
12783TIP3    H159840   3.518   5.175  17.126 -0.4638  0.2252  0.4405
12783TIP3    H259841   3.403   5.207  17.032  0.0855  0.1134 -0.2767
12784TIP3   OH259842   1.415   5.758  17.072 -0.0339  0.9976  0.3205
12784TIP3    H159843   1.484   5.794  17.016  0.0524 -0.4480 -0.5544
12784TIP3    H259844   1.460   5.737  17.154  0.2087  1.5532  0.3359
12785TIP3   OH259845   6.262   4.281  12.581 -0.5086  0.1045  0.1065
12785TIP3    H159846   6.354   4.260  12.563 -0.5276  1.3647 -1.7464
12785TIP3    H259847   6.228   4.205  12.628  1.2337 -0.7723  0.0235
12786TIP3   OH259848   5.141   3.885   6.766  0.2582 -0.1465  0.2204
12786TIP3    H159849   5.227   3.844   6.773 -0.4168 -1.7341 -0.3301
12786TIP3    H259850   5.084   3.830   6.819 -0.5972  0.3658 -0.1439
12787TIP3   OH259851   0.263   0.663   3.361  0.0538  0.2845 -0.0662
12787TIP3    H159852   0.337   0.723   3.359  0.7614 -0.5368  0.6389
12787TIP3    H259853   0.212   0.685   3.283  0.5255  1.4927 -0.0439
12788TIP3   OH259854   3.556   2.655   1.948 -0.4471  0.7573 -0.5644
12788TIP3    H159855   3.623   2.609   1.997 -1.0432 -0.3683 -0.7815
12788TIP3    H259856   3.567   2.747   1.973  1.3788  0.6507 -0.8588
12789TIP3   OH259857   4.400   2.346   6.376  1.0784  0.4083  0.4539
12789TIP3    H159858   4.400   2.441   6.365 -0.5006  0.2973 -1.0309
12789TIP3    H259859   4.356   2.331   6.459 -1.6589  0.9480 -0.7934
12790TIP3   OH259860   4.558   2.445   4.729  0.0577 -0.3459  0.1517
12790TIP3    H159861   4.601   2.481   4.651 -0.9642  0.2845 -0.1551
12790TIP3    H259862   4.523   2.361   4.700 -0.1907 -0.1805 -0.0436
12791TIP3   OH259863   5.259   1.534  14.239 -0.3605  0.0279  0.2517
12791TIP3    H159864   5.224   1.509  14.325 -2.2308  0.9073 -0.2206
12791TIP3    H259865   5.190   1.512  14.177 -0.6668  3.0012 -0.5862
12792TIP3   OH259866   6.329   1.182  11.310 -0.4266  0.8713 -0.5501
12792TIP3    H159867   6.344   1.226  11.226 -0.6997 -0.8508 -1.5574
12792TIP3    H259868   6.416   1.155  11.338 -0.1649  2.5700  0.4286
12793TIP3   OH259869   4.776   0.745  11.812  0.2749 -0.0750  0.6080
12793TIP3    H159870   4.692   0.761  11.855 -0.6836 -1.4416 -0.6655
12793TIP3    H259871   4.838   0.738  11.884 -1.4402 -3.2727  1.9803
12794TIP3   OH259872   2.620   0.102  13.772  0.2650 -0.2983 -0.2435
12794TIP3    H159873   2.626   0.049  13.692 -0.5601  1.2442 -1.3845
12794TIP3    H259874   2.544   0.158  13.758  0.2275  0.1555  1.5584
12795TIP3   OH259875   4.927   5.391  13.465 -0.2090 -0.9506  0.0996
12795TIP3    H159876   4.918   5.299  13.491 -1.5450 -1.0664 -0.6605
12795TIP3    H259877   4.854   5.406  13.404  0.1732  0.5297 -0.0397
12796TIP3   OH259878   2.036   4.072  16.349 -0.0834 -0.5592  0.0039
12796TIP3    H159879   2.026   4.048  16.257  1.4569 -0.8472 -0.1139
12796TIP3    H259880   2.032   3.989  16.397 -0.1611 -0.4817  0.1341
12797TIP3   OH259881   1.937   4.645  12.582  0.2911  0.2112 -0.1672
12797TIP3    H159882   1.973   4.710  12.521  1.5171 -0.0017  0.3001
12797TIP3    H259883   1.864   4.605  12.534 -0.0802  1.4785 -0.7017
12798TIP3   OH259884   5.561   4.607  12.311 -0.1096 -0.1654  0.0335
12798TIP3    H159885   5.546   4.655  12.229 -2.3247 -0.7409  0.0603
12798TIP3    H259886   5.514   4.657  12.378  0.9319 -0.1928  0.8140
12799TIP3   OH259887   3.094   4.170  16.078  0.0218 -0.4026 -0.3696
12799TIP3    H159888   3.014   4.117  16.071 -0.0544 -0.3461  0.0399
12799TIP3    H259889   3.078   4.245  16.020 -1.0750  0.6645  1.2453
12800TIP3   OH259890   0.041   4.926   0.943  0.4417 -0.3235  0.3085
12800TIP3    H159891   0.092   5.004   0.921 -0.7045 -0.3473 -2.8872
12800TIP3    H259892   0.083   4.855   0.894 -0.5972 -1.0371  0.4314
12801TIP3   OH259893   2.673   5.814  14.853  0.1719  1.0088  0.0061
12801TIP3    H159894   2.689   5.724  14.824 -0.1696  1.2559 -1.0019
12801TIP3    H259895   2.578   5.819  14.866 -0.2285  1.9465 -2.6577
12802TIP3   OH259896   3.959   6.181  13.903 -0.4193  0.8142  0.7515
12802TIP3    H159897   3.986   6.137  13.984 -2.1618  0.5258  1.2290
12802TIP3    H259898   3.868   6.155  13.891  0.1381 -0.1993 -2.0493
12803TIP3   OH259899   2.346   1.453   1.113  0.4131  0.2961 -0.1518
12803TIP3    H159900   2.428   1.424   1.073 -1.1122 -0.8192 -2.7090
12803TIP3    H259901   2.319   1.527   1.059 -0.4686  0.3673  0.3801
12804TIP3   OH259902   0.906   3.773   3.770 -0.1404 -0.3824  0.1187
12804TIP3    H159903   0.852   3.801   3.843 -0.1478  0.4019 -0.1785
12804TIP3    H259904   0.847   3.775   3.694 -0.0539 -0.8895  0.0322
12805TIP3   OH259905   6.213   2.269  15.703  0.5961  0.1933 -0.2382
12805TIP3    H159906   6.244   2.356  15.680 -0.4289  0.6541  0.0611
12805TIP3    H259907   6.278   2.235  15.765  1.7287  0.1745 -1.4072
12806TIP3   OH259908   4.018   4.455   4.683  0.4971 -0.1730 -0.6294
12806TIP3    H159909   4.040   4.536   4.729  0.1936  0.4210 -1.5188
12806TIP3    H259910   3.942   4.478   4.629  1.5650 -0.5397 -2.3308
12807TIP3   OH259911   2.106   2.989   2.264  0.4295  0.0283 -0.0895
12807TIP3    H159912   2.200   2.978   2.273  0.2090 -2.5377 -0.0816
12807TIP3    H259913   2.068   2.925   2.324 -1.3124  0.1820 -0.9404
12808TIP3   OH259914   3.200   0.029   2.129  0.1800 -0.3277  0.1593
12808TIP3    H159915   3.210  -0.065   2.144 -1.6359 -0.7381 -0.8465
12808TIP3    H259916   3.107   0.040   2.106  0.4227  1.6634 -0.0841
12809TIP3   OH259917   3.585   5.750  17.192 -0.8075  0.0804  0.5297
12809TIP3    H159918   3.569   5.656  17.180  0.2391  0.0306 -0.6410
12809TIP3    H259919   3.518   5.793  17.140 -0.6645 -0.0358  0.2488
12810TIP3   OH259920   6.386   0.485   4.354 -0.1882 -0.2444  0.2447
12810TIP3    H159921   6.332   0.419   4.311 -0.9748 -0.5248  1.6037
12810TIP3    H259922   6.385   0.460   4.447  0.8298  0.7578  0.5513
12811TIP3   OH259923   3.479   3.613   4.856  0.2631 -0.6245 -0.2763
12811TIP3    H159924   3.454   3.644   4.943 -2.1066 -2.0560 -0.3559
12811TIP3    H259925   3.440   3.526   4.849  3.2656 -2.0149 -1.5518
12812TIP3   OH259926   0.835   4.922  11.621  0.2960 -0.3995 -0.1039
12812TIP3    H159927   0.866   4.938  11.532 -0.5184  0.4737 -0.2411
12812TIP3    H259928   0.787   4.839  11.615 -0.3639  0.0119 -0.6441
12813TIP3   OH259929   3.544   1.397  13.761 -0.1373 -0.0719  0.0539
12813TIP3    H159930   3.599   1.344  13.704 -0.3359  0.0749 -0.2732
12813TIP3    H259931   3.583   1.386  13.848 -0.3290 -0.9565  0.0330
12814TIP3   OH259932   4.611   2.435  16.790 -0.4416 -0.0941 -0.2054
12814TIP3    H159933   4.590   2.528  16.780 -0.1626 -0.1720 -1.9564
12814TIP3    H259934   4.531   2.389  16.763 -0.4244 -0.3645  0.1980
12815TIP3   OH259935   2.564   1.365  11.544  0.2634 -0.0290  0.1139
12815TIP3    H159936   2.491   1.417  11.577  0.6689  0.0010  0.9882
12815TIP3    H259937   2.538   1.274  11.560 -1.0447 -0.2432 -2.6325
12816TIP3   OH259938   4.481   5.267  11.148 -0.0654 -0.0453  0.3161
12816TIP3    H159939   4.406   5.270  11.206  0.6250 -2.1033  1.3976
12816TIP3    H259940   4.445   5.242  11.063 -0.7036 -0.1979  0.6276
12817TIP3   OH259941   5.423   1.076  11.476 -0.6534 -0.2181  0.1230
12817TIP3    H159942   5.433   1.169  11.457 -0.7863 -0.7301 -3.0581
12817TIP3    H259943   5.491   1.056  11.540  0.3716  1.7677 -0.2872
12818TIP3   OH259944   4.509   1.635   2.838 -0.4327 -0.3139 -0.1841
12818TIP3    H159945   4.548   1.719   2.862  0.9325 -0.4504 -1.7839
12818TIP3    H259946   4.415   1.652   2.836 -0.1712  1.2214 -0.6269
12819TIP3   OH259947   0.951   4.411  12.923  0.2895 -0.2500  0.0131
12819TIP3    H159948   1.013   4.339  12.931  1.7419  0.8544 -0.9451
12819TIP3    H259949   0.990   4.470  12.859 -1.6786  0.5778 -0.4867
12820TIP3   OH259950   3.062   2.285  15.250 -0.2892 -0.0923  0.0180
12820TIP3    H159951   3.079   2.192  15.239 -1.3831 -0.1429 -1.6183
12820TIP3    H259952   3.117   2.328  15.184 -1.2055  0.2475 -0.5508
12821TIP3   OH259953   1.164   4.513  14.648  0.9141 -0.2675  0.0208
12821TIP3    H159954   1.236   4.451  14.635  0.4079 -0.6826 -0.9411
12821TIP3    H259955   1.171   4.572  14.573  0.8076  0.2567  0.4205
12822TIP3   OH259956   1.451   6.250  14.408 -0.1233  0.0958  0.0371
12822TIP3    H159957   1.477   6.303  14.484  1.6382 -0.8579  0.1443
12822TIP3    H259958   1.522   6.186  14.399  0.5130  1.1097 -3.3204
12823TIP3   OH259959   6.140   1.046  11.497 -0.3792  0.4311 -0.3764
12823TIP3    H159960   6.140   1.078  11.587  0.9561 -1.9512  0.5899
12823TIP3    H259961   6.209   1.096  11.453  1.9597 -1.1582  1.1978
12824TIP3   OH259962   3.186   3.652   1.155 -0.1712 -0.0878 -0.2536
12824TIP3    H159963   3.093   3.631   1.161  0.0659 -1.0827  0.0794
12824TIP3    H259964   3.226   3.576   1.112  0.2544  1.0376 -1.9664
12825TIP3   OH259965   6.042   6.351   5.365  0.1085  0.7008  0.1414
12825TIP3    H159966   6.114   6.350   5.429  0.7075 -0.0933 -0.5254
12825TIP3    H259967   6.011   6.260   5.363  1.0715  0.3645 -1.7500
12826TIP3   OH259968   1.178   6.587   1.757 -0.4709 -0.2390 -0.3676
12826TIP3    H159969   1.219   6.558   1.675  1.1985 -0.8023  0.6167
12826TIP3    H259970   1.240   6.562   1.825 -2.0633 -0.2688  1.1461
12827TIP3   OH259971   0.263   0.131  16.282  0.3998 -0.5570  0.3381
12827TIP3    H159972   0.262   0.038  16.261 -0.6337 -0.8919  1.6922
12827TIP3    H259973   0.296   0.134  16.372 -1.5247  0.1629  1.0756
12828TIP3   OH259974   4.267   2.180  13.228 -0.5633 -0.0293 -0.1965
12828TIP3    H159975   4.255   2.120  13.302  2.0373 -1.2212 -0.6375
12828TIP3    H259976   4.201   2.153  13.164  0.1633 -2.0538 -0.1398
12829TIP3   OH259977   1.071   1.973  16.041  0.3037  0.1808  0.1477
12829TIP3    H159978   1.147   1.947  16.095 -0.8462  0.2022  1.8700
12829TIP3    H259979   1.048   1.894  15.992 -0.5683 -0.8842  2.1557
12830TIP3   OH259980   6.755   3.604   2.940  0.0109  0.3685 -0.1747
12830TIP3    H159981   6.706   3.522   2.947  0.0070  0.3331 -0.5845
12830TIP3    H259982   6.844   3.581   2.967  0.3583 -0.1128 -1.6651
12831TIP3   OH259983   3.525   6.573   5.695  0.1297 -0.2154 -0.2368
12831TIP3    H159984   3.570   6.541   5.617 -0.8739 -1.7691 -0.2096
12831TIP3    H259985   3.584   6.552   5.768 -0.5727 -2.3097 -0.1937
12832TIP3   OH259986   1.102   2.587  12.198 -0.3955 -0.5782  0.3903
12832TIP3    H159987   1.177   2.559  12.145 -1.0653 -0.3093 -0.7344
12832TIP3    H259988   1.043   2.629  12.135 -0.5081  1.1977  1.6072
12833TIP3   OH259989   1.091   5.759   6.106  0.6742 -0.3267  1.1452
12833TIP3    H159990   1.112   5.795   6.192  0.2052 -0.0129  1.1334
12833TIP3    H259991   1.053   5.833   6.058 -1.4737 -1.1037  1.5228
12834TIP3   OH259992   5.008   0.698   4.686 -1.1425 -0.0646 -0.2697
12834TIP3    H159993   5.103   0.701   4.689 -1.1522  0.3552 -0.3442
12834TIP3    H259994   4.983   0.663   4.771 -0.8941 -1.0334 -0.5780
12835TIP3   OH259995   3.767   4.974   0.157 -0.2254 -0.1485  0.0956
12835TIP3    H159996   3.727   5.054   0.191 -0.4665  0.2686 -1.1412
12835TIP3    H259997   3.694   4.912   0.148  0.0037 -0.6484  1.3421
12836TIP3   OH259998   3.507   0.582   1.299  0.0078 -0.1785  0.0936
12836TIP3    H159999   3.577   0.604   1.361 -0.5590  1.7312  0.1369
12836TIP3    H260000   3.519   0.643   1.227 -0.3923 -1.2192 -0.8797
12837TIP3   OH260001   1.243   0.419  13.058 -0.3838  0.2079 -0.5753
12837TIP3    H160002   1.209   0.331  13.076 -1.7109  0.9639  0.7793
12837TIP3    H260003   1.213   0.438  12.969  0.4292 -0.9062 -1.1251
12838TIP3   OH260004   1.026   4.418  13.613 -0.3670  0.5247 -0.1348
12838TIP3    H160005   1.027   4.323  13.626 -0.0027  0.7089  1.4220
12838TIP3    H260006   1.023   4.454  13.702  4.0591  2.0160 -0.3103
12839TIP3   OH260007   6.709   1.553  14.264  0.0315 -0.7991  0.2847
12839TIP3    H160008   6.720   1.471  14.313 -1.4256 -1.2631 -0.1036
12839TIP3    H260009   6.790   1.601  14.280  1.1203 -2.4959  0.1572
12840TIP3   OH260010   3.875   1.493  12.074 -0.0575  0.2862 -0.1168
12840TIP3    H160011   3.897   1.427  12.139  0.1295  1.1920  0.7693
12840TIP3    H260012   3.958   1.537  12.056  0.2134 -0.9295 -2.1339
12841TIP3   OH260013   0.791   6.445  14.487  0.2178  0.1896  0.2904
12841TIP3    H160014   0.707   6.488  14.472 -0.9470 -1.7634  0.7606
12841TIP3    H260015   0.790   6.425  14.581  0.6176 -0.9531  0.0660
12842TIP3   OH260016   6.136   4.732   0.217  0.1448  0.4649  0.2523
12842TIP3    H160017   6.084   4.808   0.190 -0.2307  0.2163  0.2700
12842TIP3    H260018   6.195   4.765   0.284  1.3779  1.1984 -1.1198
12843TIP3   OH260019   4.259   5.827   1.275 -0.6581 -0.5281 -0.6343
12843TIP3    H160020   4.272   5.825   1.181 -0.6904  1.2424 -0.7138
12843TIP3    H260021   4.339   5.789   1.311 -0.5011 -0.8968 -1.3620
12844TIP3   OH260022   1.965   5.091  14.060 -0.3025  0.2872 -0.4625
12844TIP3    H160023   1.904   5.140  14.005 -0.2913 -1.2142 -1.9076
12844TIP3    H260024   1.982   5.148  14.135 -1.2393  1.9275 -1.4488
12845TIP3   OH260025   3.159   4.493   1.947 -0.0037  0.0260 -0.4739
12845TIP3    H160026   3.158   4.398   1.941  1.9737  0.0039 -1.5293
12845TIP3    H260027   3.100   4.522   1.877 -1.6415 -0.3778  0.6827
12846TIP3   OH260028   1.380   2.261  14.421  0.2195 -0.1765 -0.4653
12846TIP3    H160029   1.429   2.187  14.456 -0.0311  0.0235  0.3101
12846TIP3    H260030   1.432   2.290  14.346  0.3025 -1.1554 -0.8100
12847TIP3   OH260031   5.512   3.025   2.612  0.4005  0.4517 -0.0771
12847TIP3    H160032   5.568   3.099   2.633 -1.4049  1.7124  0.5991
12847TIP3    H260033   5.440   3.063   2.561 -0.1354 -0.9830 -0.4464
12848TIP3   OH260034   4.421   4.050  14.498  0.0288 -0.3272  0.2755
12848TIP3    H160035   4.338   4.081  14.534 -1.4884  0.4249 -3.3733
12848TIP3    H260036   4.488   4.096  14.548 -1.8613  0.9793  1.7167
12849TIP3   OH260037   5.582   6.330   4.916  0.7105  0.1243 -0.0661
12849TIP3    H160038   5.545   6.345   4.829 -0.1601 -0.6764  0.1568
12849TIP3    H260039   5.624   6.244   4.910  0.5351  0.0097  0.3466
12850TIP3   OH260040   3.679   3.728   2.268 -0.2643  0.4984 -0.6785
12850TIP3    H160041   3.729   3.808   2.247 -0.1130  0.8559  0.8924
12850TIP3    H260042   3.616   3.720   2.197 -1.8647  3.3661  0.2249
12851TIP3   OH260043   3.621   0.129   4.584  0.1322  0.0799 -0.2499
12851TIP3    H160044   3.559   0.060   4.607 -0.9366  1.6147  1.7770
12851TIP3    H260045   3.616   0.135   4.489 -1.1037 -1.3911 -0.3101
12852TIP3   OH260046   5.230   5.913   6.177 -0.0098 -0.9694 -0.1242
12852TIP3    H160047   5.304   5.973   6.167  0.5258 -1.5408  0.3136
12852TIP3    H260048   5.267   5.826   6.157 -0.6817 -1.1987 -0.3877
12853TIP3   OH260049   4.232   3.451  12.893  0.2083  0.6457  0.1771
12853TIP3    H160050   4.194   3.538  12.886 -0.1089  0.9515  3.8022
12853TIP3    H260051   4.167   3.400  12.941  1.0841 -1.1333 -0.4338
12854TIP3   OH260052   2.200   4.518   5.335 -0.4886  0.3857 -0.4714
12854TIP3    H160053   2.234   4.451   5.276 -1.0257  0.8558 -1.3329
12854TIP3    H260054   2.277   4.570   5.358  0.3026 -1.5263  1.6417
12855TIP3   OH260055   2.889   4.198   2.001  0.1650  0.4301  0.2318
12855TIP3    H160056   2.877   4.103   2.007  1.4151  0.2319 -0.1941
12855TIP3    H260057   2.803   4.231   1.975 -0.3007 -0.5795  0.4349
12856TIP3   OH260058   5.011   3.948   0.386 -0.4317  0.1980  0.3268
12856TIP3    H160059   5.055   3.993   0.314 -1.5102 -1.1753 -1.2531
12856TIP3    H260060   5.033   3.855   0.373 -1.2185 -0.1434  1.3527
12857TIP3   OH260061   1.034   4.326   4.983  0.5158 -0.0046 -0.1962
12857TIP3    H160062   1.002   4.384   5.052  2.3089  0.8707 -0.0240
12857TIP3    H260063   0.967   4.258   4.975 -0.6362  0.9242  1.0711
12858TIP3   OH260064   5.678   0.067   3.092 -0.1304  0.1945  0.1724
12858TIP3    H160065   5.707  -0.019   3.124 -0.8488  0.2874  1.1097
12858TIP3    H260066   5.601   0.048   3.038  0.9033  0.0696 -1.3411
12859TIP3   OH260067   1.174   0.017   0.685 -0.5771 -0.2342  0.4804
12859TIP3    H160068   1.248  -0.030   0.723 -0.8437 -2.2091 -1.2734
12859TIP3    H260069   1.100  -0.007   0.741 -0.0841  1.2287  1.8472
12860TIP3   OH260070   4.593   2.371  15.041  0.2275  0.2833 -0.3214
12860TIP3    H160071   4.640   2.453  15.051  0.0149  0.6341 -1.9409
12860TIP3    H260072   4.637   2.326  14.970 -1.4340  0.3331 -1.4440
12861TIP3   OH260073   3.713   3.466   2.355 -0.1348  0.2200  0.1451
12861TIP3    H160074   3.692   3.552   2.317  2.0369  0.5933 -0.3323
12861TIP3    H260075   3.754   3.486   2.439 -0.9766 -0.4438  0.7323
12862TIP3   OH260076   3.600   0.667  13.096 -0.1572 -0.1080 -0.5506
12862TIP3    H160077   3.670   0.602  13.093  0.2502  0.2418  0.6596
12862TIP3    H260078   3.524   0.622  13.061  0.7190 -0.4175 -2.1498
12863TIP3   OH260079   5.638   5.650  14.308 -0.0734  0.1338  0.4750
12863TIP3    H160080   5.631   5.582  14.241  1.0797 -0.7138  1.1723
12863TIP3    H260081   5.657   5.730  14.259 -1.4215 -0.0200 -0.3594
12864TIP3   OH260082   1.330   4.925  10.688  0.4567  0.1444  0.0021
12864TIP3    H160083   1.272   4.914  10.613  1.2679 -0.5312 -0.5518
12864TIP3    H260084   1.309   5.012  10.723 -0.7825 -0.0417 -0.2554
12865TIP3   OH260085   3.499   4.584   5.039 -0.2074  0.4778  0.2783
12865TIP3    H160086   3.567   4.550   5.097 -1.5207  0.4309  1.8584
12865TIP3    H260087   3.460   4.657   5.087 -1.0326  0.7572 -0.7622
12866TIP3   OH260088   4.075   3.414   2.761 -0.2653 -0.1541 -0.0096
12866TIP3    H160089   4.020   3.425   2.839  0.0991 -0.4423  0.2921
12866TIP3    H260090   4.106   3.324   2.767 -0.8160 -0.4132 -0.8716
12867TIP3   OH260091   3.660   4.627   5.457  0.2126  0.2924  0.7866
12867TIP3    H160092   3.749   4.616   5.491  1.1995 -0.8394 -1.8956
12867TIP3    H260093   3.663   4.710   5.410 -0.1407  0.2269  0.6486
12868TIP3   OH260094   0.297   2.965  14.927 -0.0565  0.7238  0.7712
12868TIP3    H160095   0.377   3.011  14.952 -0.1308  1.4759 -0.2735
12868TIP3    H260096   0.295   2.886  14.981  1.8331  0.2591  0.2198
12869TIP3   OH260097   1.785   0.304  17.241  0.0382 -0.6789 -0.2373
12869TIP3    H160098   1.707   0.252  17.258 -0.1077 -0.4745 -0.2666
12869TIP3    H260099   1.789   0.310  17.145 -0.1797 -0.2964 -0.2275
12870TIP3   OH260100   3.653   4.004  12.052 -0.4833 -0.2865 -0.2851
12870TIP3    H160101   3.660   4.053  12.135 -0.4760 -1.2389  0.2967
12870TIP3    H260102   3.623   3.917  12.079  0.5571 -0.9390 -1.1653
12871TIP3   OH260103   5.986   1.314  12.130  0.1075  0.0968  0.3952
12871TIP3    H160104   5.954   1.366  12.204 -1.5315  0.1989 -0.3230
12871TIP3    H260105   5.972   1.223  12.157 -0.9427  0.1429  0.0517
12872TIP3   OH260106   2.289   6.664  11.615 -0.3097  0.0701 -0.3834
12872TIP3    H160107   2.340   6.584  11.628  1.1046  1.4524  4.1198
12872TIP3    H260108   2.204   6.646  11.655 -0.0058  0.7359  0.6004
12873TIP3   OH260109   2.522   0.974   0.809 -0.5499 -0.1008 -0.3306
12873TIP3    H160110   2.550   0.927   0.730  0.7515  1.3889 -0.7955
12873TIP3    H260111   2.455   1.035   0.777 -1.5286 -0.9160  0.1057
12874TIP3   OH260112   3.504   6.773  15.266  0.3007 -0.0672 -0.4489
12874TIP3    H160113   3.496   6.801  15.357  2.0053 -0.7299 -0.0703
12874TIP3    H260114   3.447   6.696  15.260 -1.3435  1.0865 -0.4980
12875TIP3   OH260115   3.629   1.712  16.851  0.2668  0.4534  0.1743
12875TIP3    H160116   3.625   1.629  16.898 -0.9066  1.0730  1.2544
12875TIP3    H260117   3.538   1.731  16.828  0.6205  1.0256 -0.8191
12876TIP3   OH260118   6.593   6.553  15.574  0.2920 -0.4050 -0.3106
12876TIP3    H160119   6.615   6.487  15.640  0.0665 -1.4897 -1.2812
12876TIP3    H260120   6.549   6.504  15.505  1.9428  0.4159 -2.0164
12877TIP3   OH260121   5.840   3.371   3.603 -0.5931 -0.3693  0.1531
12877TIP3    H160122   5.805   3.357   3.692  0.4161 -0.0468  0.6154
12877TIP3    H260123   5.837   3.465   3.590 -1.2966 -0.4598 -0.4045
12878TIP3   OH260124   6.722   4.619   3.005  0.1583 -0.2393  0.3779
12878TIP3    H160125   6.659   4.553   2.975  0.6904 -0.4317 -0.3518
12878TIP3    H260126   6.690   4.645   3.091 -0.5499 -0.8138  0.3024
12879TIP3   OH260127   0.521   1.559  14.982  0.3252  0.3826  0.2369
12879TIP3    H160128   0.584   1.630  14.968  2.4136 -1.2445  0.7826
12879TIP3    H260129   0.531   1.503  14.905 -1.4454  0.7387 -0.2805
12880TIP3   OH260130   6.788   4.208   1.814 -0.0442 -0.2602 -0.2162
12880TIP3    H160131   6.694   4.193   1.811  0.0790 -1.1970  0.0957
12880TIP3    H260132   6.807   4.222   1.907  0.3103 -1.5306 -0.0757
12881TIP3   OH260133   0.724   6.151  14.987 -0.0599  0.0267 -0.1035
12881TIP3    H160134   0.756   6.113  14.906  0.7065 -0.3602  0.3670
12881TIP3    H260135   0.632   6.169  14.971  0.4524  1.5644 -1.6497
12882TIP3   OH260136   3.713   5.278  10.784 -0.2736  0.3786  0.3854
12882TIP3    H160137   3.690   5.291  10.692 -0.7315  1.6317  0.6594
12882TIP3    H260138   3.772   5.203  10.783  1.3075  1.5591 -1.1541
12883TIP3   OH260139   2.214   5.526  13.190 -0.0726 -0.4471 -0.0950
12883TIP3    H160140   2.285   5.462  13.184  1.1944  0.9890 -0.9196
12883TIP3    H260141   2.211   5.550  13.283  1.3047  0.3038 -0.2200
12884TIP3   OH260142   3.133   2.730  14.715 -0.4434 -0.2777  0.6615
12884TIP3    H160143   3.079   2.805  14.689 -1.1189 -0.5120  1.3791
12884TIP3    H260144   3.206   2.732  14.653 -0.7605  0.6203  0.2904
12885TIP3   OH260145   0.077   5.401  12.675 -0.0209  0.8600  0.3037
12885TIP3    H160146   0.114   5.466  12.616  1.5486  0.0133  0.3037
12885TIP3    H260147   0.028   5.342  12.618 -0.8993  1.6369  0.2255
12886TIP3   OH260148   5.758   1.568   5.719 -0.2227 -0.1226 -0.0626
12886TIP3    H160149   5.774   1.498   5.657 -1.7797  0.6491 -1.4228
12886TIP3    H260150   5.672   1.603   5.694 -0.7537  0.4484  2.3093
12887TIP3   OH260151   6.493   6.412   2.707 -0.0280 -0.0041  0.2771
12887TIP3    H160152   6.449   6.452   2.632 -1.0634 -1.1629  0.2249
12887TIP3    H260153   6.586   6.418   2.687 -0.2815 -0.0951 -1.0136
12888TIP3   OH260154   3.210   5.522   4.699 -0.4282  0.3765 -0.1094
12888TIP3    H160155   3.138   5.546   4.758  0.0642  0.2348  0.5679
12888TIP3    H260156   3.258   5.604   4.686 -0.9072  0.5458 -0.8451
12889TIP3   OH260157   3.841   5.876  15.953 -0.5556  0.2036 -0.6285
12889TIP3    H160158   3.914   5.899  15.896  1.0061 -1.4806  0.5638
12889TIP3    H260159   3.870   5.901  16.041 -1.4035 -0.4954 -0.1266
12890TIP3   OH260160   3.647   2.806   0.177 -0.5127 -0.3091 -0.3549
12890TIP3    H160161   3.572   2.745   0.181 -0.1353 -1.0157 -2.3725
12890TIP3    H260162   3.612   2.889   0.208 -1.2904 -1.3232  1.6466
12891TIP3   OH260163   3.109   5.342  15.130  0.8195 -0.1947 -0.2486
12891TIP3    H160164   3.171   5.395  15.181  0.1201 -1.8520  2.5469
12891TIP3    H260165   3.024   5.362  15.169 -0.0007 -0.4169 -1.8451
12892TIP3   OH260166   2.109   6.119   3.007  0.1319 -0.2671 -0.1725
12892TIP3    H160167   2.116   6.163   2.922 -0.8053 -1.8614 -1.1260
12892TIP3    H260168   2.019   6.134   3.035 -0.1486 -1.4100 -0.4318
12893TIP3   OH260169   3.987   5.229   4.720  0.2604 -0.6215 -0.8220
12893TIP3    H160170   3.992   5.198   4.629  1.0493 -1.5333 -0.4819
12893TIP3    H260171   4.072   5.209   4.757  0.6116  1.4542 -0.3890
12894TIP3   OH260172   5.055   1.317   5.048  0.2809 -0.4625  0.3486
12894TIP3    H160173   4.975   1.278   5.084 -0.6433  0.4882 -0.5873
12894TIP3    H260174   5.048   1.303   4.954  1.5246 -0.8904  0.3101
12895TIP3   OH260175   3.256   4.764  11.048  0.1446  0.2655  0.7660
12895TIP3    H160176   3.240   4.850  11.011  0.8232 -0.3538 -1.0351
12895TIP3    H260177   3.350   4.762  11.066  0.5778 -0.8651 -1.3621
12896TIP3   OH260178   0.888   2.812   3.677 -0.0757 -0.2425  0.2340
12896TIP3    H160179   0.849   2.752   3.740  0.2721 -0.0112  0.6770
12896TIP3    H260180   0.909   2.890   3.728 -1.5034  0.6861 -0.5502
12897TIP3   OH260181   2.533   6.212  11.546  0.1284 -0.2580 -0.2443
12897TIP3    H160182   2.589   6.220  11.469 -0.6814 -0.6852 -0.8973
12897TIP3    H260183   2.472   6.141  11.524 -0.1091 -0.3865  0.7936
12898TIP3   OH260184   1.218   6.592  10.875  0.2375 -0.3273  0.5921
12898TIP3    H160185   1.311   6.568  10.871  0.1512 -0.6362  0.3028
12898TIP3    H260186   1.176   6.517  10.917  0.0982 -0.2530  0.5854
12899TIP3   OH260187   5.604   3.673   4.818  0.3331 -0.4847 -0.4917
12899TIP3    H160188   5.598   3.598   4.760  1.8404 -0.3462 -0.8648
12899TIP3    H260189   5.513   3.698   4.835 -0.1559 -1.6912 -1.2550
12900TIP3   OH260190   3.326   6.669  12.630  0.3903 -0.3159  0.2362
12900TIP3    H160191   3.250   6.712  12.592  1.2089  0.6969 -0.3177
12900TIP3    H260192   3.292   6.587  12.666 -1.0587  0.3641  0.5092
12901TIP3   OH260193   3.179   3.346   0.078  0.6034 -0.1641  0.2504
12901TIP3    H160194   3.215   3.287   0.011 -0.6729 -1.0930  0.3507
12901TIP3    H260195   3.248   3.353   0.144  1.4157 -0.1919 -0.5726
12902TIP3   OH260196   0.468   0.339   4.265  0.6846 -0.1173  0.1237
12902TIP3    H160197   0.559   0.352   4.289 -0.0457  1.8626  2.1273
12902TIP3    H260198   0.433   0.281   4.333 -0.1351  1.1965  0.8561
12903TIP3   OH260199   4.530   4.930   6.525 -0.3660  0.0102  0.0191
12903TIP3    H160200   4.590   4.890   6.588 -0.3702  1.2916  0.8692
12903TIP3    H260201   4.587   4.977   6.464 -0.4436  0.1575  0.0596
12904TIP3   OH260202   6.081   1.418   1.315  0.0968  0.4731 -0.0638
12904TIP3    H160203   6.035   1.348   1.361  2.8168 -0.9380  0.6694
12904TIP3    H260204   6.011   1.475   1.283 -2.0585  0.3365  3.8423
12905TIP3   OH260205   5.958   6.801   2.375 -0.0001  0.2321  0.4402
12905TIP3    H160206   5.968   6.787   2.470  1.2215  0.8892  0.4141
12905TIP3    H260207   6.034   6.758   2.336 -0.5375 -0.1048 -0.2727
12906TIP3   OH260208   3.457   5.376  10.465 -0.4314  0.2789  0.3021
12906TIP3    H160209   3.466   5.282  10.445  1.6006  0.3440  0.6342
12906TIP3    H260210   3.387   5.380  10.530 -0.3396 -1.0698  0.5283
12907TIP3   OH260211   1.715   3.764  13.882  0.4584 -0.1504  0.2032
12907TIP3    H160212   1.758   3.700  13.825 -0.6672 -1.7204  1.0570
12907TIP3    H260213   1.746   3.849  13.850  3.0056 -1.1438 -0.1333
12908TIP3   OH260214   4.206   4.225  13.505 -0.2918  0.2482  0.3660
12908TIP3    H160215   4.128   4.202  13.454 -1.2735  0.7606  1.5826
12908TIP3    H260216   4.276   4.171  13.468 -1.4578 -1.0355 -0.0532
12909TIP3   OH260217   2.379   2.077  11.213 -0.2657 -0.3375  0.7753
12909TIP3    H160218   2.404   2.024  11.138  0.6229  0.2621  0.6330
12909TIP3    H260219   2.363   2.164  11.178 -3.6639 -0.8630  0.6828
12910TIP3   OH260220   2.058   5.233   3.230 -0.0107 -0.2067 -0.1600
12910TIP3    H160221   2.011   5.235   3.147 -0.9056 -0.7499  0.3182
12910TIP3    H260222   2.014   5.165   3.281  2.5454 -2.2032 -0.4191
12911TIP3   OH260223   6.124   5.920   6.158 -0.1415 -0.0268  0.3787
12911TIP3    H160224   6.084   5.952   6.239 -0.7362 -0.4664  0.2692
12911TIP3    H260225   6.115   5.825   6.163  4.0725 -0.5628  2.0274
12912TIP3   OH260226   2.080   0.662  11.498  0.1012  0.2240  0.0485
12912TIP3    H160227   2.024   0.689  11.571  0.1953 -1.2024  0.6953
12912TIP3    H260228   2.034   0.691  11.420 -1.4779 -0.7408  0.5694
12913TIP3   OH260229   0.751   5.389   4.255 -0.0155  0.4381  0.1934
12913TIP3    H160230   0.786   5.338   4.181  0.6007 -1.3218  1.6344
12913TIP3    H260231   0.724   5.324   4.319 -1.7997  1.8952  1.0186
12914TIP3   OH260232   4.882   2.937  13.393  0.1653  0.0327  0.2098
12914TIP3    H160233   4.800   2.987  13.393  0.7521  1.0179  0.1698
12914TIP3    H260234   4.901   2.921  13.485  2.0282  3.3936  0.5382
12915TIP3   OH260235   5.286   3.336  11.079  0.0838  0.1448  0.2530
12915TIP3    H160236   5.336   3.366  11.003  1.0584  1.9063  1.5056
12915TIP3    H260237   5.342   3.356  11.154 -1.5594  0.1010  1.5538
12916TIP3   OH260238   1.985   4.798  14.257  0.4069 -0.4948  0.4362
12916TIP3    H160239   1.913   4.856  14.282  0.0030 -1.9178  2.8826
12916TIP3    H260240   2.059   4.857  14.243 -0.5718  0.7912  0.4549
12917TIP3   OH260241   1.542   6.499   6.394  0.6380  0.2432 -0.5630
12917TIP3    H160242   1.590   6.476   6.473  0.0211 -0.3169 -0.3376
12917TIP3    H260243   1.598   6.561   6.349  1.6529 -0.5364 -0.4037
12918TIP3   OH260244   6.489   4.471   4.797  0.3845  0.0545  0.7563
12918TIP3    H160245   6.395   4.460   4.781  0.5632 -2.9715  1.1875
12918TIP3    H260246   6.500   4.566   4.810 -3.0066  0.3284  3.0884
12919TIP3   OH260247   3.527   3.208  11.072 -0.0635 -0.1304  0.3510
12919TIP3    H160248   3.583   3.142  11.113  1.2244  0.7176  0.0139
12919TIP3    H260249   3.550   3.290  11.116 -0.2438  0.4160 -0.5513
12920TIP3   OH260250   0.471   0.261   1.868 -0.1770 -0.0974 -0.0104
12920TIP3    H160251   0.488   0.168   1.881  0.7282  0.0875  0.1731
12920TIP3    H260252   0.531   0.288   1.799 -0.0314  0.4745  0.3293
12921TIP3   OH260253   1.409   6.389   6.002 -0.3813  0.7034  0.2940
12921TIP3    H160254   1.359   6.338   5.940 -1.5552  0.5852  1.2939
12921TIP3    H260255   1.485   6.334   6.023 -2.2349 -1.3159  2.3061
12922TIP3   OH260256   3.129   5.587   6.244  0.2445 -0.1682  0.3780
12922TIP3    H160257   3.063   5.620   6.183 -1.1817  0.3647  2.0913
12922TIP3    H260258   3.209   5.632   6.220 -0.0993 -0.4879 -1.4941
12923TIP3   OH260259   0.128   5.924  11.390  0.0048 -0.5395  0.5878
12923TIP3    H160260   0.122   6.019  11.398 -0.1258 -0.5663  0.8416
12923TIP3    H260261   0.131   5.907  11.296 -1.2205 -0.3486  0.4995
12924TIP3   OH260262   4.912   3.618   1.260  0.3238 -0.1051 -0.1527
12924TIP3    H160263   4.816   3.615   1.255  0.3897 -0.9475 -1.9333
12924TIP3    H260264   4.931   3.683   1.327 -1.4934  0.7841 -0.4469
12925TIP3   OH260265   4.273   0.757   4.632  0.7760 -0.7547  0.2044
12925TIP3    H160266   4.192   0.805   4.612  0.7853 -0.9324 -0.2653
12925TIP3    H260267   4.318   0.811   4.696  0.1715 -0.7645  0.6429
12926TIP3   OH260268   5.738   6.763   2.146  0.1103 -1.0776  0.1704
12926TIP3    H160269   5.832   6.756   2.160  0.2326 -1.4832 -0.7469
12926TIP3    H260270   5.701   6.695   2.203  0.2701 -0.2207  1.3340
12927TIP3   OH260271   6.165   1.815   3.553  0.0484 -0.5452 -0.1449
12927TIP3    H160272   6.128   1.736   3.592 -0.6698 -0.8048 -1.2896
12927TIP3    H260273   6.102   1.884   3.574  0.6902 -0.2465  0.8808
12928TIP3   OH260274   3.402   6.713  10.944 -0.3822 -0.1055  0.3300
12928TIP3    H160275   3.472   6.700  10.881 -1.0171 -0.1217 -0.3761
12928TIP3    H260276   3.333   6.651  10.919  0.4566 -2.2009  2.7406
12929TIP3   OH260277   6.606   4.998  12.388 -0.5328  0.2304  0.1103
12929TIP3    H160278   6.525   4.955  12.417 -0.8062 -0.1197 -1.1271
12929TIP3    H260279   6.612   4.978  12.295  2.5221 -2.2091  0.7044
12930TIP3   OH260280   5.585   4.107   6.334  0.2357  0.0564 -0.6160
12930TIP3    H160281   5.604   4.037   6.397  1.5592  1.5676  0.7631
12930TIP3    H260282   5.522   4.163   6.380  1.2720  1.2129 -0.5548
12931TIP3   OH260283   1.696   1.449   4.585  0.1130 -0.5508  0.5386
12931TIP3    H160284   1.615   1.412   4.548 -0.2705 -1.9055  2.6027
12931TIP3    H260285   1.758   1.377   4.583  0.5514 -0.1924  1.1444
12932TIP3   OH260286   6.583   4.655  14.136  0.8985  0.0914 -0.1391
12932TIP3    H160287   6.585   4.714  14.061 -1.8098  0.7644  0.2168
12932TIP3    H260288   6.614   4.709  14.210 -2.4760  1.5640  0.3810
12933TIP3   OH260289   3.659   1.248   1.130  0.3028 -0.3947 -0.0429
12933TIP3    H160290   3.646   1.254   1.224  3.7800 -1.4832  0.6456
12933TIP3    H260291   3.710   1.325   1.107  2.1692 -1.6658 -0.3845
12934TIP3   OH260292   0.989   1.148  12.280 -0.7330 -0.0797 -0.0223
12934TIP3    H160293   0.959   1.188  12.199  0.1863  1.0638  0.1780
12934TIP3    H260294   1.052   1.210  12.316  1.8051 -2.2796 -0.3515
12935TIP3   OH260295   2.807   3.522  12.134 -0.0720  0.0827  0.1205
12935TIP3    H160296   2.770   3.583  12.070 -2.6334 -0.0688  1.3409
12935TIP3    H260297   2.827   3.575  12.210 -2.5549 -0.4960  1.2862
12936TIP3   OH260298   3.028   3.493   4.897  0.1234  0.3593  0.1852
12936TIP3    H160299   3.042   3.579   4.938 -1.8214  0.4814  0.7263
12936TIP3    H260300   2.939   3.498   4.862  0.1279 -1.3100 -0.1390
12937TIP3   OH260301   2.011   3.098  16.288  0.0421 -0.3937 -0.1494
12937TIP3    H160302   2.098   3.088  16.325  0.0110 -0.0535  0.0180
12937TIP3    H260303   2.014   3.181  16.241 -0.7125  0.5137  1.3491
12938TIP3   OH260304   5.032   6.396   2.092 -0.1979  0.2577  0.2717
12938TIP3    H160305   4.977   6.351   2.027 -1.3003 -0.2446  1.5009
12938TIP3    H260306   5.017   6.489   2.077  0.6778  0.2072 -1.1005
12939TIP3   OH260307   5.805   1.612   2.886  0.4825  0.3309 -0.0769
12939TIP3    H160308   5.763   1.527   2.875  3.1478 -1.1330  0.1155
12939TIP3    H260309   5.734   1.670   2.913 -1.3435 -1.9538  0.4330
12940TIP3   OH260310   0.631   3.856   4.407  0.0447  0.4896  0.1810
12940TIP3    H160311   0.676   3.934   4.374  1.2886 -0.2304  0.1192
12940TIP3    H260312   0.681   3.782   4.372  0.0956 -0.3217  1.8460
12941TIP3   OH260313   3.664   0.044  14.389  0.1936 -0.5326  0.2236
12941TIP3    H160314   3.687   0.093  14.468  1.3221 -0.7684  0.0601
12941TIP3    H260315   3.679   0.106  14.318 -1.2842 -0.1635  0.2040
12942TIP3   OH260316   1.602   5.806  12.775  0.4781  0.1784  0.3051
12942TIP3    H160317   1.523   5.801  12.722  1.1497  0.4447 -0.7490
12942TIP3    H260318   1.584   5.748  12.850 -0.3820 -0.4181 -0.3359
12943TIP3   OH260319   4.709   2.941   3.740 -0.7218  0.7460 -0.6122
12943TIP3    H160320   4.716   2.953   3.646 -2.0322 -0.1894 -0.8729
12943TIP3    H260321   4.687   2.848   3.750  3.0500 -0.1620  0.8506
12944TIP3   OH260322   3.032   2.983   6.068  0.0826 -0.2078  0.0400
12944TIP3    H160323   3.115   2.976   6.114  1.1091  2.1351 -1.2677
12944TIP3    H260324   3.056   2.994   5.976 -1.7035 -0.2502 -0.4848
12945TIP3   OH260325   4.458   6.356  12.045  0.1389  0.6586 -0.4694
12945TIP3    H160326   4.402   6.432  12.028  1.0962  1.5920  0.4046
12945TIP3    H260327   4.532   6.367  11.985 -0.8685 -0.9224 -2.0975
12946TIP3   OH260328   4.030   3.237   6.520 -0.3418 -0.0423  0.1919
12946TIP3    H160329   4.067   3.325   6.530 -1.4949  0.3886  0.9597
12946TIP3    H260330   4.102   3.183   6.489  0.2714  1.2763 -0.7416
12947TIP3   OH260331   6.508   4.165   1.123  0.5572  0.3144  0.0717
12947TIP3    H160332   6.510   4.143   1.216 -0.8097 -0.3435 -0.0326
12947TIP3    H260333   6.526   4.083   1.078 -2.1337 -0.1796 -0.2721
12948TIP3   OH260334   0.192   2.669   2.693 -0.4983 -0.5651 -0.0666
12948TIP3    H160335   0.278   2.681   2.654 -1.3561  0.9091 -1.5999
12948TIP3    H260336   0.196   2.718   2.775 -0.0847  0.0692 -0.4588
12949TIP3   OH260337   3.405   1.772  16.043  0.2820 -0.4145 -0.3131
12949TIP3    H160338   3.496   1.798  16.023 -0.0240  0.2600 -0.9036
12949TIP3    H260339   3.353   1.847  16.016 -0.5951 -1.3961 -1.4711
12950TIP3   OH260340   0.229   1.362  15.159  0.3799  0.2944 -0.0387
12950TIP3    H160341   0.317   1.395  15.177  0.1648  0.1642  1.3862
12950TIP3    H260342   0.243   1.281  15.111  1.0449  0.2168  0.2770
12951TIP3   OH260343   6.261   5.641   0.629 -0.2375  0.5874 -0.1196
12951TIP3    H160344   6.172   5.607   0.619 -0.1215 -0.3324  1.5700
12951TIP3    H260345   6.286   5.668   0.541 -1.4206 -1.0952 -1.0306
12952TIP3   OH260346   1.200   4.957  13.091  0.0007  0.3413  0.2351
12952TIP3    H160347   1.188   5.035  13.144  0.7899 -1.8044  3.9579
12952TIP3    H260348   1.124   4.902  13.111  0.7927 -0.9139 -0.0573
12953TIP3   OH260349   3.394   2.696   1.618  0.4514 -0.7350  0.4050
12953TIP3    H160350   3.409   2.641   1.695  0.0565  0.1693  1.1485
12953TIP3    H260351   3.331   2.647   1.566  1.0022 -1.5306  0.4659
12954TIP3   OH260352   6.010   0.706   5.483  0.1189 -0.1185  0.6490
12954TIP3    H160353   6.029   0.754   5.563  0.1391  0.1186  0.5045
12954TIP3    H260354   6.006   0.614   5.509 -0.4878  0.0092  1.0350
12955TIP3   OH260355   4.478   6.362  11.240 -0.3449 -0.3642 -0.7684
12955TIP3    H160356   4.523   6.340  11.158  0.2309 -0.5955 -0.3965
12955TIP3    H260357   4.386   6.340  11.223  0.0012 -1.9281 -0.8401
12956TIP3   OH260358   2.623   5.767   6.064 -0.2596  0.5177  0.5258
12956TIP3    H160359   2.528   5.760   6.052 -0.1128 -0.6167 -0.1576
12956TIP3    H260360   2.654   5.676   6.061  1.0306  0.9710 -0.8612
12957TIP3   OH260361   6.493   5.616   4.375  0.1363 -0.2472 -0.6564
12957TIP3    H160362   6.579   5.654   4.359  0.0365 -0.3109 -1.3695
12957TIP3    H260363   6.435   5.659   4.312 -0.7746  1.1964  1.0355
12958TIP3   OH260364   1.349   2.401  12.189  0.0816  0.1214  0.6522
12958TIP3    H160365   1.422   2.374  12.244 -0.7239  0.3238  1.8587
12958TIP3    H260366   1.281   2.428  12.250 -1.6788 -1.7229 -0.3601
12959TIP3   OH260367   2.752   6.703   2.048 -0.0727 -0.0727 -0.5732
12959TIP3    H160368   2.785   6.661   1.968  1.6179  1.1170 -0.5569
12959TIP3    H260369   2.797   6.787   2.051 -2.7336  1.4485 -0.1654
12960TIP3   OH260370   3.143   1.318  15.112  0.2655 -0.3397  0.3364
12960TIP3    H160371   3.078   1.271  15.060 -0.2417  1.1638 -0.4306
12960TIP3    H260372   3.149   1.267  15.193  0.0654 -1.9577 -0.6112
12961TIP3   OH260373   4.730   6.559   1.985 -0.3896 -0.5360  0.2896
12961TIP3    H160374   4.725   6.547   1.891 -1.7416  1.4011  0.0674
12961TIP3    H260375   4.807   6.614   1.999 -0.7582 -0.0089  0.2309
12962TIP3   OH260376   3.811   0.839  10.415 -0.1655  0.1229  0.4237
12962TIP3    H160377   3.892   0.841  10.467  1.3059 -2.4471 -1.5412
12962TIP3    H260378   3.799   0.930  10.387  2.2923  0.5280  0.4278
12963TIP3   OH260379   6.673   4.066  14.268 -0.2979 -0.2663  0.0656
12963TIP3    H160380   6.601   4.118  14.303  1.4331  1.4787  1.2514
12963TIP3    H260381   6.684   4.097  14.178 -1.0308 -0.5916 -0.1453
12964TIP3   OH260382   3.109   0.786  16.858  0.0073 -0.0663  0.2635
12964TIP3    H160383   3.086   0.773  16.766  0.1658 -1.2281  0.3685
12964TIP3    H260384   3.051   0.856  16.888  0.0182  0.3896 -0.7327
12965TIP3   OH260385   6.148   2.596  12.738 -0.2470  0.0859 -0.0576
12965TIP3    H160386   6.164   2.520  12.794  1.2593 -0.4152 -1.0797
12965TIP3    H260387   6.103   2.659  12.794  0.3706 -0.7506  1.4397
12966TIP3   OH260388   5.220   5.388   4.217 -0.3594  0.4461 -0.0031
12966TIP3    H160389   5.314   5.384   4.199 -0.2229  1.6546  0.3435
12966TIP3    H260390   5.191   5.470   4.175 -1.4074 -0.2631 -0.7180
12967TIP3   OH260391   4.846   0.508  15.229 -0.0985  0.8083 -0.2075
12967TIP3    H160392   4.878   0.419  15.213 -0.2688  1.1722 -3.1573
12967TIP3    H260393   4.913   0.548  15.285  0.1960 -1.0045  0.7973
12968TIP3   OH260394   3.308   3.631  15.505 -0.4457  0.4101 -0.4229
12968TIP3    H160395   3.227   3.650  15.457  0.2352  0.9492 -1.4000
12968TIP3    H260396   3.377   3.667  15.450  0.3690  1.2080  1.0527
12969TIP3   OH260397   2.750   3.778   2.840 -0.4732 -0.0053 -0.3888
12969TIP3    H160398   2.693   3.702   2.838 -1.0957  0.4154  0.3969
12969TIP3    H260399   2.725   3.824   2.921 -1.1955  1.8267 -1.5697
12970TIP3   OH260400   5.986   3.947  16.150  0.1594  0.3857  0.1861
12970TIP3    H160401   5.971   3.930  16.243 -0.1560 -1.1723 -0.1346
12970TIP3    H260402   5.900   3.940  16.110  0.4342  0.1133 -0.3667
12971TIP3   OH260403   5.140   2.114   3.212  0.4739 -0.7352  0.0593
12971TIP3    H160404   5.133   2.196   3.261 -0.0988 -2.0311  2.3060
12971TIP3    H260405   5.221   2.123   3.161  1.2131  0.6485  1.3903
12972TIP3   OH260406   2.940   3.942   2.707 -0.2109 -0.1437 -0.1740
12972TIP3    H160407   2.882   3.880   2.752 -0.4275  1.1191  1.3931
12972TIP3    H260408   2.900   3.955   2.622 -1.7666  0.0124  0.5434
12973TIP3   OH260409   3.494   5.726  16.928  0.2865  0.5818  0.4021
12973TIP3    H160410   3.430   5.702  16.860  0.6642 -0.9501  0.5459
12973TIP3    H260411   3.577   5.689  16.896  0.6025  0.4432  1.3593
12974TIP3   OH260412   2.654   4.322   4.204 -0.0684  0.7548  0.2606
12974TIP3    H160413   2.729   4.341   4.260 -0.5153  0.8980  0.8189
12974TIP3    H260414   2.646   4.227   4.207  2.1962  0.3577 -2.5686
12975TIP3   OH260415   2.063   0.207   1.329  0.0630  0.6753 -0.1284
12975TIP3    H160416   1.994   0.192   1.264 -0.3312  1.7886  0.0164
12975TIP3    H260417   2.106   0.288   1.299  1.6548 -0.2652 -0.5081
12976TIP3   OH260418   6.634   3.723  12.069  0.5894 -0.7270  0.6005
12976TIP3    H160419   6.657   3.816  12.057 -2.4307  0.1518  0.6924
12976TIP3    H260420   6.612   3.715  12.162 -1.7812 -0.7423  0.1224
12977TIP3   OH260421   5.873   1.883   4.405  0.1547  0.0531 -0.4025
12977TIP3    H160422   5.935   1.901   4.476  2.6446 -1.7055 -1.9909
12977TIP3    H260423   5.867   1.966   4.357 -0.2356  0.7749  0.8431
12978TIP3   OH260424   3.925   3.688   5.698  0.3983 -0.1958 -0.2463
12978TIP3    H160425   3.919   3.595   5.720  0.5663 -0.1374  0.0499
12978TIP3    H260426   3.909   3.692   5.604 -3.2365 -0.1701  0.2406
12979TIP3   OH260427   0.017   3.554  15.808 -0.4336  0.6561  0.5909
12979TIP3    H160428   0.066   3.632  15.835 -0.6672  0.9350  0.2163
12979TIP3    H260429  -0.023   3.578  15.725  1.8759 -0.8221 -1.0623
12980TIP3   OH260430   1.504   2.317  13.378 -0.4456  0.3114 -0.0272
12980TIP3    H160431   1.460   2.307  13.294  2.1107 -0.6285 -1.3822
12980TIP3    H260432   1.597   2.326  13.355  0.3305  0.0657  2.6877
12981TIP3   OH260433   6.545   6.614  14.546  0.4137 -0.1117 -0.2470
12981TIP3    H160434   6.456   6.586  14.527  0.4974 -0.4385 -0.1616
12981TIP3    H260435   6.548   6.706  14.519  0.0434 -0.0924 -0.2169
12982TIP3   OH260436   5.770   3.636   1.639  0.1265 -0.1089 -0.0043
12982TIP3    H160437   5.814   3.643   1.554  0.3917 -1.6001 -0.0064
12982TIP3    H260438   5.786   3.547   1.668 -3.1336 -0.8910 -0.1451
12983TIP3   OH260439   2.928   1.501   4.979 -0.1736  0.0368 -0.0981
12983TIP3    H160440   2.906   1.588   5.012  1.7607 -0.3430  2.4824
12983TIP3    H260441   2.927   1.511   4.883  0.9148  3.1716  0.0984
12984TIP3   OH260442   2.555   0.594   2.058  0.2940  0.2386  0.2750
12984TIP3    H160443   2.578   0.643   2.137 -1.4903  0.7222  0.5469
12984TIP3    H260444   2.490   0.530   2.087  0.1128 -0.0329 -0.6804
12985TIP3   OH260445   2.621   4.641  16.134 -0.3156 -0.1263  0.6476
12985TIP3    H160446   2.589   4.591  16.059  0.3322 -0.7387  0.7684
12985TIP3    H260447   2.542   4.674  16.176 -0.6840  0.3463 -0.3777
12986TIP3   OH260448   0.610   1.546   2.611 -0.3000 -0.0542  0.2971
12986TIP3    H160449   0.570   1.541   2.524 -0.2031 -0.1567  0.2588
12986TIP3    H260450   0.555   1.608   2.659 -0.3612 -0.0081  0.1670
12987TIP3   OH260451   4.139   6.546   1.189  0.2813 -0.3454 -0.0515
12987TIP3    H160452   4.097   6.555   1.104  0.4018  1.0220  0.0104
12987TIP3    H260453   4.089   6.603   1.247  1.3381  0.2228  0.3457
12988TIP3   OH260454   6.236   1.924   4.339 -0.0500  0.1019  0.8342
12988TIP3    H160455   6.275   1.995   4.288 -0.5173 -0.5709 -0.5109
12988TIP3    H260456   6.309   1.866   4.359  0.1778  0.4950  1.1594
12989TIP3   OH260457   0.663   0.175   0.620 -0.3810  0.1775  0.1974
12989TIP3    H160458   0.684   0.084   0.641 -1.3308 -0.3214 -0.8758
12989TIP3    H260459   0.743   0.224   0.640  0.5411 -1.0760 -0.2913
12990TIP3   OH260460   6.384   2.044  11.779  0.3221  0.3935  0.0376
12990TIP3    H160461   6.449   2.105  11.814 -0.0990  0.8389  0.0490
12990TIP3    H260462   6.420   2.017  11.694  0.8629  0.0827  0.3545
12991TIP3   OH260463   2.930   2.135   4.675  0.1872 -0.2072  0.1509
12991TIP3    H160464   2.986   2.087   4.737  0.1303 -0.0572  0.3190
12991TIP3    H260465   2.851   2.154   4.725  0.8135  1.4101  0.5793
12992TIP3   OH260466   1.543   6.685   2.094  0.1913  0.0879  0.2487
12992TIP3    H160467   1.544   6.719   2.005 -2.6179 -1.2518 -0.4005
12992TIP3    H260468   1.624   6.636   2.102  0.9262  0.9937 -1.2288
12993TIP3   OH260469   5.566   0.848  13.630 -0.0539 -0.0192 -0.0882
12993TIP3    H160470   5.623   0.796  13.573 -0.5983  0.4737 -1.1207
12993TIP3    H260471   5.552   0.794  13.707 -1.6196 -1.9586 -1.6481
12994TIP3   OH260472   1.361   4.705  14.739  0.0472 -0.5085  0.5063
12994TIP3    H160473   1.304   4.777  14.766  0.3464 -0.8035  2.0387
12994TIP3    H260474   1.415   4.741  14.668 -0.8156  0.3042  0.2474
12995TIP3   OH260475   0.357   1.629  12.253 -0.0891  0.8782  0.0333
12995TIP3    H160476   0.302   1.596  12.324  2.2427 -0.2166  1.4603
12995TIP3    H260477   0.356   1.724  12.264 -3.0126  1.1061 -1.1181
12996TIP3   OH260478   3.588   6.697  16.719  0.0743 -0.1228  0.1327
12996TIP3    H160479   3.550   6.755  16.785  0.9614  2.5436 -1.5759
12996TIP3    H260480   3.588   6.611  16.761  0.6269  1.4051  3.6244
12997TIP3   OH260481   6.582   2.524  10.946 -0.8554  0.6839  0.3921
12997TIP3    H160482   6.626   2.606  10.965 -1.4903  1.1215  0.0345
12997TIP3    H260483   6.618   2.461  11.008 -0.9611  1.4329  1.2150
12998TIP3   OH260484   3.238   0.773   5.613 -0.7209 -0.3476 -0.1234
12998TIP3    H160485   3.193   0.754   5.531 -0.3429 -0.9641 -0.1952
12998TIP3    H260486   3.168   0.784   5.677 -0.9759 -2.1073 -0.0553
12999TIP3   OH260487   3.557   1.430  12.212  0.1965 -0.1834  0.2832
12999TIP3    H160488   3.462   1.417  12.214  0.2137 -0.4687 -0.4643
12999TIP3    H260489   3.570   1.514  12.256 -0.3835 -0.2289  0.5544
13000TIP3   OH260490   3.492   5.483   2.109 -0.0682 -0.5100  0.2791
13000TIP3    H160491   3.475   5.482   2.015  0.1160 -0.9135  0.2441
13000TIP3    H260492   3.568   5.425   2.120  0.2897  0.0150  0.6047
13001TIP3   OH260493   3.687   0.131   4.022  0.2980  0.4504 -0.1698
13001TIP3    H160494   3.697   0.203   3.960  2.0069  0.0987 -0.3518
13001TIP3    H260495   3.613   0.081   3.988  0.2632  1.0965 -1.0784
13002TIP3   OH260496   6.677   1.310  17.115 -0.1472  0.3909 -0.2656
13002TIP3    H160497   6.700   1.251  17.186 -2.2393  0.8936  0.8984
13002TIP3    H260498   6.698   1.261  17.035 -1.2479 -1.7068  0.6679
13003TIP3   OH260499   3.897   2.563   2.775 -0.3969  0.1942  0.0468
13003TIP3    H160500   3.957   2.510   2.828 -0.3737  0.6298  0.4557
13003TIP3    H260501   3.936   2.650   2.774  0.7994 -0.2723 -2.5358
13004TIP3   OH260502   1.497   0.355   0.296  0.1824  0.1111  0.5043
13004TIP3    H160503   1.479   0.273   0.343 -0.1914  0.2596  0.6292
13004TIP3    H260504   1.470   0.337   0.206 -0.9406  0.4363  0.7603
13005TIP3   OH260505   3.803   0.289   3.147  0.0165  0.6621 -0.1567
13005TIP3    H160506   3.812   0.236   3.226  3.6018  0.5361 -0.4881
13005TIP3    H260507   3.780   0.226   3.079  2.3346 -0.2828 -0.1704
13006TIP3   OH260508   6.664   4.496   1.025  0.0558  0.3824  0.3616
13006TIP3    H160509   6.576   4.520   0.996 -1.2804 -1.4403  2.5984
13006TIP3    H260510   6.675   4.406   0.994  1.5759  0.9110 -0.7284
13007TIP3   OH260511   1.122   4.380  11.405 -0.0512  0.2775 -0.1056
13007TIP3    H160512   1.197   4.439  11.394 -0.1897  0.5121  0.2094
13007TIP3    H260513   1.157   4.293  11.385  0.1476  0.4662 -0.5918
13008TIP3   OH260514   5.410   4.837  16.885  0.1479 -0.2194 -0.6017
13008TIP3    H160515   5.389   4.745  16.899  1.5238 -0.5341 -0.4529
13008TIP3    H260516   5.331   4.884  16.912 -0.3982 -1.3218 -0.2250
13009TIP3   OH260517   4.259   1.321   3.723  0.1389 -0.2154 -0.0869
13009TIP3    H160518   4.267   1.310   3.818 -0.1233 -0.1816 -0.0588
13009TIP3    H260519   4.249   1.416   3.712  1.2883 -0.0959 -0.2381
13010TIP3   OH260520   5.082   4.851   0.076  0.7312 -0.4713 -0.3187
13010TIP3    H160521   5.172   4.868   0.105  0.3437 -0.8801  1.2412
13010TIP3    H260522   5.028   4.884   0.147 -0.3439 -0.5045 -1.1092
13011TIP3   OH260523   6.723   0.278   2.034  0.2210 -0.5292  0.1491
13011TIP3    H160524   6.742   0.266   2.127 -1.6929 -1.1912  0.4888
13011TIP3    H260525   6.709   0.189   2.001  0.2868 -0.2512 -0.6424
13012TIP3   OH260526   1.532   0.381   1.111 -0.4203  0.1836  0.1199
13012TIP3    H160527   1.489   0.434   1.044  0.6490  0.0921 -0.6677
13012TIP3    H260528   1.473   0.306   1.124 -0.2003 -0.2792 -1.4170
13013TIP3   OH260529   3.283   3.331  16.520  0.0205 -0.3118  0.3508
13013TIP3    H160530   3.358   3.341  16.461  1.2876  0.1999  1.9709
13013TIP3    H260531   3.302   3.390  16.593 -1.5399 -0.8541  1.2438
13014TIP3   OH260532   5.681   5.801   0.111 -0.1006  0.0740 -0.0934
13014TIP3    H160533   5.679   5.890   0.146 -0.2130  0.3108 -0.6904
13014TIP3    H260534   5.683   5.813   0.016  2.0917 -0.5114 -0.1705
13015TIP3   OH260535   0.202   5.776  16.571  0.0202 -0.1988  0.1397
13015TIP3    H160536   0.112   5.785  16.604 -0.0792 -2.0461  0.4719
13015TIP3    H260537   0.257   5.809  16.642 -0.3837  1.4051 -0.2583
13016TIP3   OH260538   0.540   3.707  15.768  0.5536 -0.2845 -0.8401
13016TIP3    H160539   0.556   3.670  15.855 -2.6453 -1.1206 -0.4833
13016TIP3    H260540   0.511   3.797  15.786 -0.6710 -0.6453 -0.9804
13017TIP3   OH260541   6.769   6.149  11.324  0.0864 -0.3073  0.1283
13017TIP3    H160542   6.736   6.135  11.236 -1.5731  0.3963  0.5929
13017TIP3    H260543   6.718   6.088  11.378 -0.7012  0.9833  0.9048
13018TIP3   OH260544   1.005   4.270   3.418 -0.4348 -0.2495 -0.1898
13018TIP3    H160545   1.053   4.199   3.461 -0.2286  0.5526  0.9166
13018TIP3    H260546   1.063   4.345   3.422 -1.5013  0.5591  0.5547
13019TIP3   OH260547   6.109   1.438  14.097 -0.3291 -0.6230  0.1023
13019TIP3    H160548   6.109   1.534  14.101  0.2288 -0.6089 -0.1849
13019TIP3    H260549   6.044   1.412  14.163 -0.4577 -0.0528  0.2109
13020TIP3   OH260550   1.004   5.189   0.294  0.3083  0.0889  0.0830
13020TIP3    H160551   1.039   5.266   0.249 -0.4876 -0.2181 -1.1104
13020TIP3    H260552   1.030   5.115   0.239 -2.3093 -0.1409 -1.0243
13021TIP3   OH260553   4.374   3.754  12.059  0.2109  0.4937  0.1628
13021TIP3    H160554   4.312   3.826  12.064 -0.3344  0.0931 -0.6368
13021TIP3    H260555   4.444   3.778  12.120 -1.2321  0.4292  1.8852
13022TIP3   OH260556   1.710   1.249  11.319 -0.2571 -0.3011  0.0127
13022TIP3    H160557   1.726   1.290  11.403 -0.2849 -0.0952 -0.0820
13022TIP3    H260558   1.689   1.158  11.340 -1.7879  0.1019  0.3492
13023TIP3   OH260559   3.762   3.712   2.973 -0.2682 -0.4037 -0.4287
13023TIP3    H160560   3.683   3.658   2.967 -0.5867  0.0876 -0.6460
13023TIP3    H260561   3.790   3.723   2.882 -0.7145  0.5482 -0.4604
13024TIP3   OH260562   2.675   2.714  17.009 -0.0890  0.5023 -0.4404
13024TIP3    H160563   2.729   2.697  16.932  1.1166 -1.9051  0.7964
13024TIP3    H260564   2.678   2.809  17.020  0.2652  0.8531 -2.9154
13025TIP3   OH260565   2.980   0.285  14.090  0.0538  0.4540 -0.5458
13025TIP3    H160566   2.901   0.242  14.057 -1.5918  0.6449  2.7022
13025TIP3    H260567   2.960   0.378  14.084  0.9540  0.5979 -1.6199
13026TIP3   OH260568   3.886   1.870  17.077 -0.1128 -0.3429 -0.0935
13026TIP3    H160569   3.880   1.793  17.134 -0.0913 -0.6236 -0.4706
13026TIP3    H260570   3.809   1.922  17.098 -0.0876 -0.4290  0.2167
13027TIP3   OH260571   3.900   5.871   1.825 -0.3458  0.4785  0.0903
13027TIP3    H160572   3.874   5.895   1.914  1.6316  1.0913  0.5578
13027TIP3    H260573   3.920   5.778   1.830 -1.3299  0.2473 -0.0197
13028TIP3   OH260574   3.734   0.058  15.152  0.1689  0.8431  0.0442
13028TIP3    H160575   3.656   0.007  15.131  0.6606 -0.0849  0.4080
13028TIP3    H260576   3.722   0.084  15.243  0.8063 -0.3091  0.4765
13029TIP3   OH260577   4.537   6.027   1.862 -0.0070 -0.0750  0.0167
13029TIP3    H160578   4.489   5.945   1.846 -0.3562  0.0501  0.4077
13029TIP3    H260579   4.551   6.028   1.956 -1.1704  0.9501  0.2014
13030TIP3   OH260580   1.053   5.288   5.235  0.0061 -0.0080  0.2476
13030TIP3    H160581   1.126   5.333   5.279  1.3726  0.3401 -2.2284
13030TIP3    H260582   0.979   5.347   5.246  1.0571  1.5016 -0.4328
13031TIP3   OH260583   1.755   2.805  13.902  0.5798  0.7436 -0.3336
13031TIP3    H160584   1.714   2.844  13.979  0.3484  2.3622 -1.2274
13031TIP3    H260585   1.683   2.797  13.838  0.9085  0.0882 -0.6330
13032TIP3   OH260586   3.716   4.524  16.009 -0.4705 -0.2532  0.1777
13032TIP3    H160587   3.628   4.488  16.001 -0.4788  0.0232 -1.3769
13032TIP3    H260588   3.770   4.450  16.036 -0.9388 -0.7823 -0.3025
13033TIP3   OH260589   3.032   2.853   5.111  0.2318  0.0276 -0.1642
13033TIP3    H160590   2.989   2.787   5.056 -0.2654  0.1274  0.0970
13033TIP3    H260591   2.998   2.936   5.079  0.9155  0.1622 -0.5407
13034TIP3   OH260592   2.830   0.670   3.541  0.5879 -0.5410 -0.9464
13034TIP3    H160593   2.826   0.585   3.497 -3.0646 -1.3112  0.5179
13034TIP3    H260594   2.850   0.649   3.632 -0.5305  0.1053 -0.5308
13035TIP3   OH260595   1.504   3.993  16.228  0.2127 -0.3143  0.6682
13035TIP3    H160596   1.528   3.968  16.138 -0.9610  0.4924  0.1070
13035TIP3    H260597   1.585   4.029  16.265  0.7565 -0.8279 -0.0057
13036TIP3   OH260598   2.243   3.929  14.932  0.2512  0.1904  0.1788
13036TIP3    H160599   2.326   3.947  14.978  1.8532  1.9177 -3.0244
13036TIP3    H260600   2.253   3.840  14.899  0.8329  0.3671 -0.1408
13037TIP3   OH260601   4.185   6.111  13.386 -0.2080  0.2823 -0.4430
13037TIP3    H160602   4.200   6.021  13.358 -1.6717  0.5486 -2.2898
13037TIP3    H260603   4.093   6.113  13.412 -0.1885  1.2277 -0.3880
13038TIP3   OH260604   4.220   0.095  17.189 -0.3991  0.5002  0.4117
13038TIP3    H160605   4.205   0.190  17.191  1.3792  0.8687 -0.9673
13038TIP3    H260606   4.132   0.057  17.197 -1.1185  2.2228  1.4366
13039TIP3   OH260607   4.979   2.786  16.856  0.1034  0.2576 -0.6696
13039TIP3    H160608   5.019   2.855  16.908  1.6852  0.2965 -1.8807
13039TIP3    H260609   4.986   2.708  16.910 -4.2793  1.3768  1.9923
13040TIP3   OH260610   3.441   0.790   3.766  0.2123  0.3560  0.4518
13040TIP3    H160611   3.467   0.876   3.799  1.6198 -0.1109  0.6169
13040TIP3    H260612   3.515   0.733   3.784 -0.3049 -0.6897 -0.5297
13041TIP3   OH260613   5.121   6.766   3.067 -0.2052  0.5148  0.2738
13041TIP3    H160614   5.111   6.812   2.984  0.4095  0.9405  0.4317
13041TIP3    H260615   5.168   6.828   3.123 -0.5871  0.2214  0.9298
13042TIP3   OH260616   0.491   3.876   0.588 -0.0422  0.0051 -0.2736
13042TIP3    H160617   0.484   3.915   0.501 -1.0173 -0.0273 -0.2188
13042TIP3    H260618   0.572   3.826   0.585  0.5506  0.9723 -0.7679
13043TIP3   OH260619   0.117   6.406  16.094  0.5426 -0.3821 -0.5320
13043TIP3    H160620   0.130   6.314  16.070  1.4669 -0.3254 -0.2700
13043TIP3    H260621   0.158   6.414  16.180 -0.0307  0.1498 -0.3013
13044TIP3   OH260622   6.469   1.908  13.388  0.0034 -0.4713  0.5380
13044TIP3    H160623   6.554   1.864  13.377 -0.4646 -0.9321 -1.7616
13044TIP3    H260624   6.486   1.998  13.360 -0.2473 -0.5744  0.0354
13045TIP3   OH260625   3.152   6.598  10.915  0.8396  0.3649 -0.5193
13045TIP3    H160626   3.109   6.582  10.999 -0.8561  1.2291 -1.1760
13045TIP3    H260627   3.154   6.513  10.872 -0.3626  0.3222 -0.5185
13046TIP3   OH260628   2.533   6.160  16.406 -0.6208 -0.2526 -0.3497
13046TIP3    H160629   2.539   6.066  16.420 -1.7569 -0.1830  0.8724
13046TIP3    H260630   2.539   6.172  16.311  0.3096 -1.4709 -0.4615
13047TIP3   OH260631   3.717   3.201   1.864 -0.4070  0.0934 -0.8761
13047TIP3    H160632   3.692   3.229   1.776 -0.0203 -0.5364 -1.1893
13047TIP3    H260633   3.810   3.182   1.858 -0.7802 -1.9980 -0.8896
13048TIP3   OH260634   4.585   4.778   3.662  0.2024 -1.0309 -0.0585
13048TIP3    H160635   4.591   4.772   3.758  1.2394 -1.2983 -0.1248
13048TIP3    H260636   4.573   4.687   3.634 -1.7678 -0.7867 -0.1064
13049TIP3   OH260637   3.724   3.655  11.652  0.0800 -0.4805 -0.0864
13049TIP3    H160638   3.678   3.667  11.570  2.1892 -0.1959 -1.3058
13049TIP3    H260639   3.676   3.585  11.697 -1.4880 -0.1825 -1.2403
13050TIP3   OH260640   6.132   3.068  13.058 -0.8892 -0.3323  0.2756
13050TIP3    H160641   6.084   3.043  13.137 -0.9008 -2.5106 -0.3579
13050TIP3    H260642   6.065   3.073  12.989 -0.7751  0.8463  0.2257
13051TIP3   OH260643   2.604   2.812   1.176 -0.5466  0.2926  0.4444
13051TIP3    H160644   2.550   2.799   1.254  0.0741 -3.1457  0.4843
13051TIP3    H260645   2.664   2.737   1.176  2.1476  2.2627 -1.2825
13052TIP3   OH260646   2.647   4.386   3.160  0.3428 -0.0308 -0.0138
13052TIP3    H160647   2.633   4.401   3.254  0.3201  1.7777 -0.2640
13052TIP3    H260648   2.742   4.387   3.149  0.3998 -1.6224  0.1634
13053TIP3   OH260649   4.196   3.959  14.384 -0.0226 -0.3710  0.3894
13053TIP3    H160650   4.290   3.974  14.395 -0.0089 -0.3770  0.2797
13053TIP3    H260651   4.183   3.867  14.409  0.0969 -0.5466 -0.1700
13054TIP3   OH260652   2.393   4.005  11.398 -0.0917 -0.0595 -0.2123
13054TIP3    H160653   2.468   3.951  11.422  0.0431  1.2139  2.6047
13054TIP3    H260654   2.323   3.943  11.380  0.3047 -1.2336  2.0235
13055TIP3   OH260655   3.866   1.902   5.924 -0.2339  0.9228 -0.1576
13055TIP3    H160656   3.954   1.881   5.956 -0.3826  0.4262 -0.0679
13055TIP3    H260657   3.857   1.996   5.940  1.3437  1.6082 -2.7144
13056TIP3   OH260658   6.663   6.475  11.715  0.4087  0.0624  0.3391
13056TIP3    H160659   6.633   6.433  11.634  1.0120  1.3056 -0.5687
13056TIP3    H260660   6.756   6.453  11.720  0.4121  0.1326  0.6060
13057TIP3   OH260661   3.080   3.070   2.720  0.2760  0.7249  0.4724
13057TIP3    H160662   3.119   3.050   2.635 -1.2079 -2.8746  0.4505
13057TIP3    H260663   2.986   3.072   2.702  0.0125  1.2666  1.8421
13058TIP3   OH260664   3.427   6.055   5.513 -0.4070  0.1118 -0.4287
13058TIP3    H160665   3.504   6.001   5.531  0.7247  0.1829 -4.2259
13058TIP3    H260666   3.462   6.142   5.496 -1.5763  0.6485 -0.1654
13059TIP3   OH260667   6.509   6.793  13.083  0.1481 -0.2788 -0.3111
13059TIP3    H160668   6.478   6.819  12.996  1.9864  1.1879 -0.5792
13059TIP3    H260669   6.438   6.819  13.142 -0.6172 -0.1888 -1.2386
13060TIP3   OH260670   1.611   4.234  16.791 -0.0488 -0.6864  0.7589
13060TIP3    H160671   1.543   4.281  16.840 -0.2307 -0.2969  0.1392
13060TIP3    H260672   1.663   4.192  16.859  0.6424  1.1034  1.4057
13061TIP3   OH260673   4.053   2.677   1.315  0.2730 -0.3659 -0.2836
13061TIP3    H160674   3.985   2.633   1.264  0.4215 -0.9579  0.0191
13061TIP3    H260675   4.114   2.607   1.338  0.6887  0.0616 -0.0764
13062TIP3   OH260676   1.359   3.486   4.725 -0.1656 -0.0933 -0.5349
13062TIP3    H160677   1.320   3.422   4.785  0.9524  0.4033  0.7752
13062TIP3    H260678   1.451   3.459   4.719  0.4529  1.6382  0.4465
13063TIP3   OH260679   5.272   4.597   0.051 -0.4200  0.8837  0.2085
13063TIP3    H160680   5.191   4.617   0.097 -1.2632 -0.2118 -0.7140
13063TIP3    H260681   5.297   4.510   0.083 -0.9441  0.1656 -1.2128
13064TIP3   OH260682   0.807   6.636   5.443  0.1337 -0.3666 -0.1187
13064TIP3    H160683   0.723   6.627   5.488 -0.9241  2.7404 -1.2127
13064TIP3    H260684   0.793   6.596   5.357 -0.1040 -0.2067 -0.1539
13065TIP3   OH260685   6.062   4.528  13.611  0.2906 -0.6792 -0.0392
13065TIP3    H160686   6.053   4.433  13.615  0.3916 -0.6575  2.5969
13065TIP3    H260687   6.153   4.545  13.634  0.3047  0.0516 -0.5961
13066TIP3   OH260688   6.250   0.710   5.318  0.3315  0.2641 -0.0317
13066TIP3    H160689   6.269   0.801   5.295  1.4361 -0.2323 -1.2211
13066TIP3    H260690   6.182   0.715   5.385  0.0767  1.9438 -0.3912
13067TIP3   OH260691   0.337   2.763  13.822 -0.4842 -0.7089 -0.4024
13067TIP3    H160692   0.279   2.689  13.805 -1.0789 -0.4656  0.4783
13067TIP3    H260693   0.282   2.840  13.808 -0.0560 -0.4447 -0.6594
13068TIP3   OH260694   1.726   1.169  14.800  0.6327  0.1972  0.0797
13068TIP3    H160695   1.647   1.181  14.746  1.0036 -0.0037 -0.5182
13068TIP3    H260696   1.711   1.223  14.877  0.9275  2.0300 -1.1010
13069TIP3   OH260697   5.917   3.053   4.865 -0.0425  0.4670  0.1284
13069TIP3    H160698   5.984   3.084   4.804 -0.5348 -0.3750 -0.8722
13069TIP3    H260699   5.960   2.981   4.912 -0.1048  0.2151 -0.2004
13070TIP3   OH260700   0.429   1.344   4.045 -0.4243 -0.0748 -0.0656
13070TIP3    H160701   0.348   1.300   4.020 -1.8419  1.0471  2.2103
13070TIP3    H260702   0.422   1.431   4.006 -0.7146  0.2962  0.7972
13071TIP3   OH260703   3.270   6.737  13.059  0.0654 -0.3640 -0.3328
13071TIP3    H160704   3.193   6.697  13.100 -0.0453 -0.8691 -1.0104
13071TIP3    H260705   3.297   6.805  13.120 -1.0318 -0.0584 -0.1607
13072TIP3   OH260706   5.724   4.523  15.120 -0.1261  0.0363  0.3545
13072TIP3    H160707   5.707   4.606  15.165  0.0131  0.7999 -0.9636
13072TIP3    H260708   5.819   4.521  15.107 -0.1150 -0.3859  0.4821
13073TIP3   OH260709   2.108   3.735  12.458  0.2574  0.0023  0.2564
13073TIP3    H160710   2.157   3.658  12.428  1.2714  0.2527  1.1865
13073TIP3    H260711   2.019   3.703  12.472  0.3817 -0.7109 -0.5333
13074TIP3   OH260712   1.222   3.280   1.537  0.7387 -0.1914 -0.1134
13074TIP3    H160713   1.230   3.374   1.553  1.8226 -0.2160 -0.4334
13074TIP3    H260714   1.133   3.259   1.564  0.1380  1.1144 -0.9692
13075TIP3   OH260715   3.979   4.118   6.860  0.1061 -0.3632  0.4742
13075TIP3    H160716   3.920   4.112   6.785 -0.2438 -1.5850  0.8276
13075TIP3    H260717   3.984   4.211   6.879 -1.8996 -0.2338  0.5813
13076TIP3   OH260718   5.324   6.619   2.025  0.3802  0.1662 -0.3015
13076TIP3    H160719   5.315   6.560   1.950 -0.3667  1.4456 -1.2606
13076TIP3    H260720   5.384   6.574   2.084  0.9889 -0.8866 -1.6705
13077TIP3   OH260721   3.122   3.126  14.799 -0.2531 -0.2674 -0.3921
13077TIP3    H160722   3.102   3.107  14.708 -0.4178  1.1171 -0.6607
13077TIP3    H260723   3.185   3.198  14.796  1.0913 -1.3243  0.5570
13078TIP3   OH260724   5.602   1.504   4.925 -0.1781  0.4811  0.2466
13078TIP3    H160725   5.554   1.564   4.868 -0.5559  0.5099  0.5929
13078TIP3    H260726   5.543   1.429   4.936  0.8333 -0.5857 -1.2898
13079TIP3   OH260727   5.273   0.491  12.650  0.2971  0.4419 -0.0778
13079TIP3    H160728   5.277   0.396  12.652  1.5432  0.4474 -1.0013
13079TIP3    H260729   5.320   0.519  12.729  0.3928  0.2835 -0.0788
13080TIP3   OH260730   4.328   5.270   3.402 -0.3277  0.2428  0.2663
13080TIP3    H160731   4.400   5.269   3.465 -0.8050  1.5104  0.8669
13080TIP3    H260732   4.249   5.256   3.454 -0.6878  0.8038 -0.1073
13081TIP3   OH260733   3.015   5.988   2.800 -0.0492 -0.1304 -0.0074
13081TIP3    H160734   3.055   6.026   2.878 -2.3150  0.5762  0.9056
13081TIP3    H260735   2.922   5.981   2.822 -0.5867 -0.9460 -2.2582
13082TIP3   OH260736   3.153   0.639  10.681 -0.3914  0.0092 -0.0256
13082TIP3    H160737   3.063   0.649  10.650  0.0894  2.0681 -0.9378
13082TIP3    H260738   3.204   0.624  10.601  0.1532 -0.5007  0.4119
13083TIP3   OH260739   5.095   0.408   0.670  0.2288 -0.0126  0.2261
13083TIP3    H160740   5.128   0.420   0.581  0.5611 -2.0898  0.0234
13083TIP3    H260741   5.005   0.440   0.667  0.9427  2.1253 -0.2081
13084TIP3   OH260742   1.112   1.436  12.255  0.5356  0.6540 -0.3361
13084TIP3    H160743   1.060   1.504  12.298 -0.6970 -1.0719  1.1051
13084TIP3    H260744   1.186   1.421  12.315 -1.8430 -2.6416  2.2123
13085TIP3   OH260745   2.798   1.801   2.102  0.0658  0.0993  0.5982
13085TIP3    H160746   2.797   1.709   2.075  1.0622  0.9544 -2.7746
13085TIP3    H260747   2.848   1.801   2.184 -0.3144 -2.3615  0.9192
13086TIP3   OH260748   3.415   1.444   1.016 -0.6199  0.1172  0.2111
13086TIP3    H160749   3.473   1.507   1.060 -1.2717  1.1408 -0.3336
13086TIP3    H260750   3.399   1.376   1.081  0.3314  0.3658  0.7301
13087TIP3   OH260751   0.849   5.210   4.082 -0.1722 -0.3114  0.9524
13087TIP3    H160752   0.822   5.190   3.992 -1.5019 -0.1972  1.2986
13087TIP3    H260753   0.921   5.150   4.099 -0.2240 -0.6724 -0.0340
13088TIP3   OH260754   4.163   0.898  12.577  0.3409  0.1384 -0.0720
13088TIP3    H160755   4.200   0.981  12.608 -2.0412  1.5769 -0.7479
13088TIP3    H260756   4.123   0.920  12.493 -1.2247 -1.4368  0.2021
13089TIP3   OH260757   6.464   0.056   1.436  0.3727 -0.4100  0.2515
13089TIP3    H160758   6.467   0.145   1.470 -0.6846 -0.4206  0.3930
13089TIP3    H260759   6.556   0.034   1.419  0.6667  0.6039  0.4599
13090TIP3   OH260760   4.552   4.761  12.703 -0.5353  0.0612 -0.0582
13090TIP3    H160761   4.463   4.730  12.687 -0.7279  0.3354  0.4389
13090TIP3    H260762   4.608   4.706  12.648 -0.9322 -0.7088  0.2928
13091TIP3   OH260763   2.850   3.316  12.753 -0.2913 -0.3937  0.4943
13091TIP3    H160764   2.811   3.342  12.836 -0.9098  0.6080 -0.0894
13091TIP3    H260765   2.902   3.391  12.726 -2.8796  0.7854 -1.7075
13092TIP3   OH260766   6.567   1.992  14.358  0.0645 -0.1153 -0.2601
13092TIP3    H160767   6.494   1.941  14.395  0.4602 -0.1448  0.5114
13092TIP3    H260768   6.640   1.975  14.418  0.0484  1.8614  0.3913
13093TIP3   OH260769   6.167   1.289   4.877  0.5598 -0.1726 -0.4101
13093TIP3    H160770   6.155   1.336   4.794 -0.6907  1.4976  0.6523
13093TIP3    H260771   6.086   1.239   4.888 -0.2871  1.4126  0.8647
13094TIP3   OH260772   4.338   4.031   2.333 -0.6674  0.3617  0.1872
13094TIP3    H160773   4.381   4.097   2.386 -0.8076 -0.0443  0.8184
13094TIP3    H260774   4.409   3.982   2.291 -0.5447  0.3785  0.3789
13095TIP3   OH260775   4.027   6.465  15.738 -0.3213 -0.1682 -0.0280
13095TIP3    H160776   4.058   6.375  15.752 -1.7714 -0.7790 -0.5617
13095TIP3    H260777   4.013   6.499  15.827  0.0604 -0.5192  0.1735
13096TIP3   OH260778   1.234   0.863   3.709 -0.2362  0.0405  0.6380
13096TIP3    H160779   1.289   0.897   3.780 -1.1121 -1.0395  1.8955
13096TIP3    H260780   1.145   0.889   3.734 -0.5373 -0.1129 -0.2392
13097TIP3   OH260781   5.407   1.824  15.556  0.3048 -0.0309 -0.3501
13097TIP3    H160782   5.366   1.739  15.537 -0.6889  0.5178 -0.7416
13097TIP3    H260783   5.338   1.888  15.539  0.7938  0.8150  0.7112
13098TIP3   OH260784   6.169   4.676  15.417  0.0664 -0.4292 -0.0797
13098TIP3    H160785   6.121   4.603  15.378  0.2375  0.0810 -1.2833
13098TIP3    H260786   6.182   4.650  15.509  2.2641 -3.0810 -0.9949
13099TIP3   OH260787   1.202   2.577   5.492 -0.1736 -0.3473 -0.2011
13099TIP3    H160788   1.178   2.494   5.533  0.0561  0.2215  1.1443
13099TIP3    H260789   1.236   2.553   5.406  0.9222 -1.7447  0.5869
13100TIP3   OH260790   4.516   0.050   6.566 -0.1096  0.0203 -0.6722
13100TIP3    H160791   4.433   0.005   6.551 -1.9192  3.1158 -0.9713
13100TIP3    H260792   4.515   0.072   6.659  1.8714 -2.3800  0.0287
13101TIP3   OH260793   0.226   0.526   5.652  0.0058 -0.5655  0.1475
13101TIP3    H160794   0.280   0.574   5.588 -1.3937  0.4178 -0.3500
13101TIP3    H260795   0.269   0.543   5.736  0.7014 -0.1401 -0.2758
13102TIP3   OH260796   5.764   0.093  16.849  0.2956 -0.2837  0.4431
13102TIP3    H160797   5.732   0.159  16.910 -0.4508  0.2885 -0.5367
13102TIP3    H260798   5.701   0.095  16.777  0.1151 -2.2496  0.5085
13103TIP3   OH260799   3.575   0.129  16.104 -0.4790 -0.2211 -0.3432
13103TIP3    H160800   3.515   0.088  16.166 -0.5684 -0.1200 -0.3630
13103TIP3    H260801   3.649   0.158  16.159 -0.8550  0.4588 -0.1733
13104TIP3   OH260802   6.183   3.327  13.331  0.0678 -0.3119  0.0267
13104TIP3    H160803   6.164   3.380  13.408  0.3685  0.8122 -0.6472
13104TIP3    H260804   6.119   3.355  13.266  2.0546  1.4509 -1.3253
13105TIP3   OH260805   0.134   1.671   1.738  0.2887  0.0988 -0.0713
13105TIP3    H160806   0.216   1.641   1.775  0.9924  1.0386 -0.7950
13105TIP3    H260807   0.103   1.738   1.799 -0.5744 -1.0798  0.8233
13106TIP3   OH260808   0.372   1.189   4.732  0.2857 -0.0690 -0.1406
13106TIP3    H160809   0.385   1.284   4.730 -0.2405  0.1326  2.6974
13106TIP3    H260810   0.285   1.178   4.770  0.9009 -1.7169  0.8465
13107TIP3   OH260811   1.821   5.996   2.819 -0.0179 -0.2722  0.1713
13107TIP3    H160812   1.747   5.998   2.880 -0.6821  0.4944 -0.6453
13107TIP3    H260813   1.789   5.944   2.745  1.4554 -2.9575  1.2488
13108TIP3   OH260814   5.410   6.087   0.250 -0.5897 -0.2444 -0.1976
13108TIP3    H160815   5.392   6.011   0.306 -0.7130  0.3268  0.5555
13108TIP3    H260816   5.385   6.059   0.162 -0.6364 -1.0728  0.0759
13109TIP3   OH260817   1.808   0.486  14.932  0.2961 -0.5900  0.2352
13109TIP3    H160818   1.750   0.465  14.859  1.1392  1.0069 -0.9422
13109TIP3    H260819   1.882   0.531  14.892  1.0308 -0.1144  2.0257
13110TIP3   OH260820   5.251   1.151   0.977 -0.1725  0.6895 -0.4211
13110TIP3    H160821   5.197   1.203   1.037  0.6334  2.6417 -1.3056
13110TIP3    H260822   5.201   1.149   0.895 -0.1746  0.0682 -0.4124
13111TIP3   OH260823   0.700   5.894  15.080 -0.1273  0.3064  0.7551
13111TIP3    H160824   0.733   5.981  15.061  1.4830 -0.5562 -0.6924
13111TIP3    H260825   0.778   5.841  15.092 -1.0770 -0.7800  2.5025
13112TIP3   OH260826   1.771   4.393   4.401  0.2178  0.0789 -0.3743
13112TIP3    H160827   1.850   4.444   4.422 -0.6173  2.0436 -1.6786
13112TIP3    H260828   1.771   4.387   4.306 -1.1602  0.0371 -0.3852
13113TIP3   OH260829   2.488   5.069  15.160 -0.1206 -0.2251 -0.3063
13113TIP3    H160830   2.443   5.052  15.243  0.6905 -0.4231  0.0940
13113TIP3    H260831   2.417   5.073  15.095 -0.5842 -2.8201 -0.0632
13114TIP3   OH260832   5.263   6.458  12.150  0.5049 -0.4059 -0.3716
13114TIP3    H160833   5.202   6.401  12.196  0.4821  0.8831  1.2922
13114TIP3    H260834   5.350   6.431  12.181  0.5049  0.3197  0.2859
13115TIP3   OH260835   0.393   0.020  15.106  0.1095 -0.3319  0.0120
13115TIP3    H160836   0.454  -0.038  15.152 -2.0174 -1.3503  1.7147
13115TIP3    H260837   0.424   0.020  15.015  3.3557  0.2496  0.9804
13116TIP3   OH260838   5.867   4.238   4.615 -0.2767  0.3921  0.3414
13116TIP3    H160839   5.952   4.193   4.610 -0.3976  0.0850  1.0412
13116TIP3    H260840   5.804   4.175   4.581  0.0661  1.5332 -2.7915
13117TIP3   OH260841   4.274   0.836   3.301 -0.6059 -0.0271 -0.0711
13117TIP3    H160842   4.322   0.756   3.324 -1.0381 -0.2222  0.1710
13117TIP3    H260843   4.292   0.849   3.208  5.4203  3.5857  1.0828
13118TIP3   OH260844   5.095   1.408  12.265 -0.1744 -0.0817  0.0492
13118TIP3    H160845   5.137   1.375  12.344 -0.6730  0.6177  0.6239
13118TIP3    H260846   5.117   1.501  12.263 -0.8416  0.0802 -0.1789
13119TIP3   OH260847   2.385   1.297  15.477  0.1740 -0.3092  0.3781
13119TIP3    H160848   2.435   1.357  15.421 -0.7572 -0.0737 -0.2213
13119TIP3    H260849   2.364   1.223  15.420 -2.8413  0.9936 -0.4000
13120TIP3   OH260850   4.516   6.395  16.504 -0.0803  0.0375 -0.1559
13120TIP3    H160851   4.515   6.356  16.592  0.8714 -1.2610 -0.6837
13120TIP3    H260852   4.435   6.447  16.499  0.4448  1.1560  1.9069
13121TIP3   OH260853   4.046   5.311   3.102  0.2948 -0.4358  0.1938
13121TIP3    H160854   4.067   5.294   3.010 -4.6663 -1.2701 -1.0639
13121TIP3    H260855   4.063   5.227   3.147  1.3207 -0.4631 -0.2163
13122TIP3   OH260856   3.911   5.456   1.028  0.1527 -0.0467  0.3158
13122TIP3    H160857   3.985   5.404   0.997 -0.6481 -1.7906  1.1678
13122TIP3    H260858   3.875   5.405   1.100 -1.2480  1.2722  0.5970
13123TIP3   OH260859   3.282   2.621   4.311 -0.5280 -0.2819  0.4889
13123TIP3    H160860   3.321   2.705   4.338  1.0979 -0.2214 -1.7812
13123TIP3    H260861   3.211   2.646   4.252 -2.3431 -0.4840  2.4730
13124TIP3   OH260862   0.345   1.735  13.731  0.5248  0.1067 -0.4330
13124TIP3    H160863   0.297   1.653  13.727  0.0316  0.4252 -1.3337
13124TIP3    H260864   0.329   1.777  13.646 -2.2024  2.7776  1.2316
13125TIP3   OH260865   5.097   5.401  11.509 -0.6365 -0.2448 -0.2283
13125TIP3    H160866   5.056   5.335  11.565 -1.5327  1.0789  0.7217
13125TIP3    H260867   5.023   5.448  11.469 -0.1750 -2.7664 -4.7118
13126TIP3   OH260868   2.284   1.207  16.210 -0.3753  0.6144 -0.3267
13126TIP3    H160869   2.360   1.172  16.257 -1.1494  0.9109  1.2073
13126TIP3    H260870   2.321   1.248  16.131  0.9697  0.1185  0.0269
13127TIP3   OH260871   6.557   3.510  11.917  0.2606 -0.0325 -0.6883
13127TIP3    H160872   6.647   3.477  11.924  0.3607 -0.0888 -2.0098
13127TIP3    H260873   6.562   3.600  11.950  0.1425 -0.9602  2.1930
13128TIP3   OH260874   4.293   0.808  11.966 -0.5807 -0.5389  0.3669
13128TIP3    H160875   4.284   0.896  12.002 -0.7192 -0.4267  0.0633
13128TIP3    H260876   4.203   0.778  11.954 -0.5570 -0.1825 -0.8211
13129TIP3   OH260877   3.906   4.474   0.849 -0.1135  0.1536 -0.1849
13129TIP3    H160878   3.853   4.456   0.771 -0.0883  0.9412 -0.3970
13129TIP3    H260879   3.955   4.553   0.826 -0.7396  0.8897  0.9253
13130TIP3   OH260880   4.295   4.380   4.573  0.3996  0.5991  0.2787
13130TIP3    H160881   4.234   4.363   4.645 -0.8912  1.1825 -0.6382
13130TIP3    H260882   4.321   4.471   4.585  0.7448  0.4855  0.4063
13131TIP3   OH260883   6.247   3.632  14.082 -0.0517  0.7418  0.1267
13131TIP3    H160884   6.211   3.664  14.165 -0.5484  0.2791  0.1002
13131TIP3    H260885   6.247   3.709  14.025 -2.1824  0.5378 -0.2571
13132TIP3   OH260886   3.350   2.204  14.002 -0.7914  0.6612 -0.1464
13132TIP3    H160887   3.283   2.263  14.037 -2.3806 -0.7095 -0.7219
13132TIP3    H260888   3.389   2.164  14.080 -0.1876  1.9310  0.2197
13133TIP3   OH260889   1.703   4.862  13.358 -0.3675  0.1872 -0.3658
13133TIP3    H160890   1.747   4.777  13.351 -0.2477  0.3479 -1.9956
13133TIP3    H260891   1.622   4.843  13.405  0.4742 -0.4730  0.8965
13134TIP3   OH260892   3.701   5.159   6.412 -0.7889 -0.1257  0.2412
13134TIP3    H160893   3.784   5.128   6.449  0.1225 -0.2156 -1.7559
13134TIP3    H260894   3.701   5.253   6.429 -1.0190 -0.3545  1.5865
13135TIP3   OH260895   5.486   6.145   1.293 -0.7507  0.0056  0.0102
13135TIP3    H160896   5.537   6.194   1.357 -1.0096  0.4766 -0.1412
13135TIP3    H260897   5.396   6.148   1.326 -0.7288 -0.5802  0.1301
13136TIP3   OH260898   4.286   1.051  12.057 -0.1712  0.2914  0.3860
13136TIP3    H160899   4.253   1.139  12.072 -1.4699 -0.4330  2.1389
13136TIP3    H260900   4.341   1.032  12.133  0.4252 -0.2544 -0.1719
13137TIP3   OH260901   2.089   1.029   0.818 -0.9424 -0.3239  0.1352
13137TIP3    H160902   2.066   1.046   0.727 -0.4562  0.4855  0.1563
13137TIP3    H260903   2.178   1.064   0.828 -1.0764 -0.1952  0.9788
13138TIP3   OH260904   3.081   1.416   4.713  0.4882  0.0503  0.0025
13138TIP3    H160905   3.043   1.503   4.720 -1.4286 -0.7373  0.0270
13138TIP3    H260906   3.111   1.410   4.623 -0.7132  0.2295 -0.4201
13139TIP3   OH260907   3.698   6.765   2.500  0.4600 -0.2264 -0.6572
13139TIP3    H160908   3.699   6.674   2.530  0.0429 -0.2674 -0.7551
13139TIP3    H260909   3.758   6.767   2.426  2.8780  0.2434  1.1862
13140TIP3   OH260910   3.030   6.397  15.519 -0.4178  0.2210 -0.9947
13140TIP3    H160911   3.110   6.427  15.563  0.2704  1.6216 -3.0388
13140TIP3    H260912   3.024   6.304  15.541  0.4763  0.5906  1.0745
13141TIP3   OH260913   3.502   5.272  12.439 -0.3587 -0.3339  0.1723
13141TIP3    H160914   3.466   5.355  12.470  2.2738  0.9184  0.1419
13141TIP3    H260915   3.515   5.286  12.345 -0.2269 -0.9217  0.1020
13142TIP3   OH260916   5.037   0.538  13.296 -0.1531  0.2549  0.7748
13142TIP3    H160917   5.100   0.610  13.295 -1.2821  1.2694  0.0137
13142TIP3    H260918   5.088   0.462  13.323  0.8845  1.5093  2.5763
13143TIP3   OH260919   2.708   0.531   6.629  0.1924 -0.2141 -0.2291
13143TIP3    H160920   2.668   0.490   6.706 -2.3324 -0.9579 -1.8288
13143TIP3    H260921   2.649   0.509   6.557  1.6068  1.7996 -2.1163
13144TIP3   OH260922   2.979   5.595  14.461 -0.1010  0.6196  0.4106
13144TIP3    H160923   3.013   5.574  14.548 -1.1896  0.3210  0.7810
13144TIP3    H260924   2.903   5.650  14.478 -0.3943  0.4584 -0.3508
13145TIP3   OH260925   3.708   3.741   0.740  0.0824  0.1496 -0.1807
13145TIP3    H160926   3.748   3.697   0.665  1.0856 -0.2002  0.5403
13145TIP3    H260927   3.779   3.749   0.804 -0.6483  0.8233  0.5705
13146TIP3   OH260928   6.025   5.621   5.244 -0.2293 -0.4289  0.4013
13146TIP3    H160929   6.100   5.606   5.301  1.4586 -1.7639 -1.9606
13146TIP3    H260930   6.058   5.680   5.176 -2.0317  0.7847  0.5163
13147TIP3   OH260931   4.937   0.027   0.024 -0.1199  0.4293 -0.4348
13147TIP3    H160932   4.984  -0.035   0.079 -0.3853  1.1106  0.5923
13147TIP3    H260933   4.997   0.048  -0.047  0.0170 -0.8928 -0.7246
13148TIP3   OH260934   5.406   2.646  12.030  0.4320  0.0999 -0.4016
13148TIP3    H160935   5.472   2.651  11.961  1.6559 -0.3832  0.6854
13148TIP3    H260936   5.385   2.553  12.037  0.2472  0.1575 -0.1809
13149TIP3   OH260937   1.539   3.955  11.551 -0.2535 -0.7359 -0.5099
13149TIP3    H160938   1.530   4.038  11.504 -0.8157 -0.8649 -0.6341
13149TIP3    H260939   1.632   3.948  11.570 -0.3771  0.6768  0.8443
13150TIP3   OH260940   1.500   2.573   5.992 -0.1882  0.0435 -0.2275
13150TIP3    H160941   1.487   2.549   5.900  0.6250  0.2451 -0.4000
13150TIP3    H260942   1.411   2.579   6.028 -0.5167  0.0895 -1.0305
13151TIP3   OH260943   2.557   4.748   0.393 -0.2040  0.2759 -0.0564
13151TIP3    H160944   2.505   4.740   0.313 -2.4734 -0.1171  1.3668
13151TIP3    H260945   2.495   4.779   0.459  0.6377 -2.9006  2.4429
13152TIP3   OH260946   1.234   4.569  12.747  0.0203  0.5589 -0.2055
13152TIP3    H160947   1.291   4.529  12.813  0.5171  0.7148 -0.5323
13152TIP3    H260948   1.254   4.662  12.751  0.9821  0.4293 -1.4284
13153TIP3   OH260949   4.895   5.299  17.289 -0.1617 -0.4308 -0.3127
13153TIP3    H160950   4.808   5.304  17.328  0.7909  1.3697  1.8057
13153TIP3    H260951   4.938   5.226  17.333 -0.2686 -0.7150 -0.6722
13154TIP3   OH260952   2.444   3.069  14.791 -0.0717  0.4979 -0.2104
13154TIP3    H160953   2.504   3.113  14.852  1.1439  0.8197 -1.5845
13154TIP3    H260954   2.497   2.999  14.753 -1.7230 -1.7470  1.3455
13155TIP3   OH260955   0.776   5.189   2.367 -0.0421 -0.2631  0.5052
13155TIP3    H160956   0.827   5.261   2.403 -1.5031  0.1415  1.8878
13155TIP3    H260957   0.748   5.221   2.281 -1.2720  1.1749  1.3913
13156TIP3   OH260958   0.814   5.871   1.491 -0.9581 -0.2375 -0.6843
13156TIP3    H160959   0.861   5.941   1.445  1.3155 -2.3676 -1.8574
13156TIP3    H260960   0.835   5.792   1.441  0.0669 -2.4475  2.9064
13157TIP3   OH260961   0.682   1.019  12.365 -0.0145  0.0645  0.0455
13157TIP3    H160962   0.650   1.003  12.277 -2.3065 -0.5469  0.9113
13157TIP3    H260963   0.775   1.040  12.354 -0.1034 -0.5660 -2.4252
13158TIP3   OH260964   4.150   2.896  15.402 -0.2684 -0.5803  0.2847
13158TIP3    H160965   4.230   2.945  15.383 -0.1336 -0.6447  0.6700
13158TIP3    H260966   4.121   2.862  15.317 -0.5534  0.4490 -0.0379
13159TIP3   OH260967   4.779   4.367   4.366  0.3096  0.2996 -0.5877
13159TIP3    H160968   4.781   4.320   4.449 -2.2831  1.3120  0.1528
13159TIP3    H260969   4.869   4.394   4.351  1.1969 -1.6506  0.8308
13160TIP3   OH260970   4.966   0.217   1.205  0.3666 -0.1642  1.2348
13160TIP3    H160971   5.012   0.203   1.288  1.7439 -0.8970  0.4033
13160TIP3    H260972   5.005   0.152   1.146  0.4693  1.2807 -0.3680
13161TIP3   OH260973   2.957   0.973   4.814 -0.3661  0.1384 -0.2430
13161TIP3    H160974   2.966   1.015   4.728  0.9908 -0.7544 -0.5572
13161TIP3    H260975   3.015   1.023   4.871 -0.5996  0.1799 -0.0380
13162TIP3   OH260976   1.227   3.402   4.966 -0.0607 -0.1756 -0.5471
13162TIP3    H160977   1.218   3.497   4.980  2.3519  0.1299 -0.6431
13162TIP3    H260978   1.145   3.365   5.000 -0.1363  1.7339  1.5782
13163TIP3   OH260979   5.579   4.125  11.950  0.0599 -0.0128 -0.7196
13163TIP3    H160980   5.610   4.036  11.970  2.5115  0.7107 -0.9307
13163TIP3    H260981   5.588   4.172  12.033 -1.8792 -0.0746 -0.4354
13164TIP3   OH260982   0.520   5.136  15.073  0.2438  0.3406  0.1382
13164TIP3    H160983   0.481   5.049  15.067  2.3545 -0.6719  0.3813
13164TIP3    H260984   0.605   5.128  15.030  0.5154  2.2807  0.2128
13165TIP3   OH260985   4.252   0.589  13.478  0.3625 -0.2722  0.1302
13165TIP3    H160986   4.211   0.557  13.559  0.7184  0.2899  0.5344
13165TIP3    H260987   4.183   0.579  13.412 -0.2605  0.1461  0.6944
13166TIP3   OH260988   2.881   5.561   3.906 -0.1357  0.6000  0.5679
13166TIP3    H160989   2.934   5.493   3.947  0.5893  1.2415  0.7175
13166TIP3    H260990   2.791   5.540   3.932  0.2706  0.8522  2.3503
13167TIP3   OH260991   4.696   1.048  11.214  0.1541  0.2778 -0.3015
13167TIP3    H160992   4.747   1.122  11.182  0.7897 -0.1646 -0.3202
13167TIP3    H260993   4.716   0.977  11.153 -0.1136 -0.0337 -0.0316
13168TIP3   OH260994   6.475   5.883  14.668  0.4458  0.1519  0.7464
13168TIP3    H160995   6.565   5.878  14.635  0.4971  1.3904  0.6469
13168TIP3    H260996   6.474   5.962  14.722 -0.8749  0.8576 -0.2383
13169TIP3   OH260997   5.423   4.156   2.174 -0.0713  0.6808 -0.3426
13169TIP3    H160998   5.401   4.095   2.244  1.0518 -0.8252 -1.2604
13169TIP3    H260999   5.463   4.230   2.220  0.0797  0.0080  0.6504
13170TIP3   OH261000   5.149   5.474   2.625  0.0414 -0.4421 -0.4529
13170TIP3    H161001   5.078   5.536   2.638  0.5578  0.1148 -0.2462
13170TIP3    H261002   5.227   5.528   2.612  0.4441 -1.0407 -0.6018
13171TIP3   OH261003   4.191   5.745  16.330 -0.1080 -0.0640  0.3606
13171TIP3    H161004   4.218   5.704  16.412 -2.5574 -1.5297  0.5353
13171TIP3    H261005   4.097   5.728  16.324 -0.2688  1.1546 -2.1221
13172TIP3   OH261006   1.966   6.184   0.783 -0.5204  0.3454  0.6759
13172TIP3    H161007   2.045   6.132   0.799 -1.0606  0.2923  3.6089
13172TIP3    H261008   1.979   6.264   0.834 -1.5297  1.2383 -0.4080
13173TIP3   OH261009   2.880   3.322  14.550  0.1981  0.0991  0.2710
13173TIP3    H161010   2.975   3.336  14.544  0.1701  0.1466 -0.0704
13173TIP3    H261011   2.863   3.316  14.644  0.6236 -0.4736  0.3241
13174TIP3   OH261012   1.883   3.300   0.537 -0.1406 -0.7513 -0.3420
13174TIP3    H161013   1.922   3.377   0.579  1.8224 -0.9294 -1.7156
13174TIP3    H261014   1.957   3.242   0.520 -1.4692 -2.5862 -0.1377
13175TIP3   OH261015   5.423   3.575   5.114 -0.0882  0.1627  0.2216
13175TIP3    H161016   5.445   3.497   5.166  1.4743  1.4165  1.5872
13175TIP3    H261017   5.427   3.647   5.178 -0.8617  1.4426 -1.1248
13176TIP3   OH261018   3.934   5.091   2.965  0.1070  0.1730 -0.2254
13176TIP3    H161019   3.959   5.063   3.053 -0.2652 -1.6026 -0.6418
13176TIP3    H261020   3.988   5.038   2.907  0.3103  1.2873 -1.0839
13177TIP3   OH261021   1.193   3.339   5.526  0.1469  0.0455 -0.1955
13177TIP3    H161022   1.129   3.329   5.597 -1.3343  2.1565 -1.1324
13177TIP3    H261023   1.278   3.329   5.570 -0.7038  1.3772  1.9395
13178TIP3   OH261024   0.734   0.722  13.488  0.0975  0.1814  0.4122
13178TIP3    H161025   0.666   0.789  13.478  0.9048  0.7993 -1.2725
13178TIP3    H261026   0.816   0.769  13.479  0.6910 -0.9428 -0.3455
13179TIP3   OH261027   1.131   3.926  13.867  0.3035  0.1348  0.6848
13179TIP3    H161028   1.136   3.858  13.934 -2.5516 -0.1618  0.7194
13179TIP3    H261029   1.108   3.880  13.787 -1.6652  0.9592  0.7050
13180TIP3   OH261030   0.587   5.673  12.452 -1.1125 -0.0627  0.4329
13180TIP3    H161031   0.683   5.667  12.446 -1.0749  1.2415 -0.6327
13180TIP3    H261032   0.562   5.596  12.503  0.5906  0.0842  1.6103
13181TIP3   OH261033   0.719   1.587  13.878  0.6744  0.5656  0.3213
13181TIP3    H161034   0.762   1.654  13.825 -1.6625 -0.8546 -3.7381
13181TIP3    H261035   0.646   1.633  13.919 -0.3348  0.7827 -1.6397
13182TIP3   OH261036   3.917   0.104   0.795 -0.4317  0.4579  0.0401
13182TIP3    H161037   3.977   0.037   0.827 -0.7348 -0.4263 -1.1895
13182TIP3    H261038   3.958   0.137   0.715 -2.1264 -1.0929 -1.5812
13183TIP3   OH261039   5.900   2.995   0.740  0.0284  0.1939 -0.3421
13183TIP3    H161040   5.968   3.051   0.702  0.7197  0.8519  1.7218
13183TIP3    H261041   5.895   3.022   0.831  0.0986 -2.8285  0.6636
13184TIP3   OH261042   1.426   1.201  15.302  0.1039 -0.4562 -0.4255
13184TIP3    H161043   1.505   1.156  15.272 -0.5970 -2.9366  1.2036
13184TIP3    H261044   1.360   1.179  15.236  0.0466 -0.8059 -0.2481
13185TIP3   OH261045   5.521   1.926  11.649  0.4741  0.3180 -0.2377
13185TIP3    H161046   5.581   1.875  11.704 -0.7640 -2.2686 -1.0953
13185TIP3    H261047   5.442   1.935  11.703  0.2252  0.1577 -0.5704
13186TIP3   OH261048   5.306   6.189  13.853  0.3795  1.4000 -0.3624
13186TIP3    H161049   5.282   6.280  13.834 -0.3097  1.5178  0.9626
13186TIP3    H261050   5.240   6.137  13.807  0.3831  1.5871 -0.5829
13187TIP3   OH261051   1.469   5.694  12.989  0.3188  0.0071  0.0598
13187TIP3    H161052   1.442   5.747  13.063  2.0435 -0.8353  1.3519
13187TIP3    H261053   1.391   5.688  12.934 -0.8171  1.1777  1.4814
13188TIP3   OH261054   0.677   4.893   5.384  0.0908  0.5462  0.5323
13188TIP3    H161055   0.610   4.835   5.422  0.9708 -0.3046  0.8309
13188TIP3    H261056   0.627   4.962   5.341 -0.9817  0.0028  0.8652
13189TIP3   OH261057   4.314   2.491  10.997  0.7271 -0.3136  0.2947
13189TIP3    H161058   4.270   2.570  10.966  0.1221 -0.3676  1.0003
13189TIP3    H261059   4.358   2.457  10.919 -2.3381 -1.5142 -1.0980
13190TIP3   OH261060   1.631   4.299   0.843 -0.1269 -0.0114 -0.0263
13190TIP3    H161061   1.602   4.290   0.934 -0.3159  1.7427  0.1300
13190TIP3    H261062   1.722   4.328   0.850  0.2896 -1.1841 -0.4386
13191TIP3   OH261063   3.962   2.518   5.934 -0.1379  0.5540 -0.4487
13191TIP3    H161064   3.936   2.610   5.931 -1.2323  0.2855  0.1806
13191TIP3    H261065   3.901   2.479   5.997  0.1896 -0.6411 -0.8637
13192TIP3   OH261066   0.833   4.167  15.079 -0.3855 -0.3269  0.3360
13192TIP3    H161067   0.922   4.197  15.098 -1.1706  1.9685  0.7889
13192TIP3    H261068   0.845   4.094  15.018  1.8131 -0.6154  1.0212
13193TIP3   OH261069   5.881   6.589   5.362 -0.8896 -0.0543 -0.2203
13193TIP3    H161070   5.966   6.550   5.340 -0.3631  2.0944 -2.5746
13193TIP3    H261071   5.825   6.568   5.287 -2.3809 -1.1550  1.1448
13194TIP3   OH261072   4.535   1.635   0.748 -0.6309  0.6605 -0.1152
13194TIP3    H161073   4.528   1.690   0.670 -1.7741  1.8574  0.7744
13194TIP3    H261074   4.524   1.697   0.821 -1.7522 -0.6996  0.9289
13195TIP3   OH261075   5.446   2.253  12.691 -0.2271  0.0342  0.2718
13195TIP3    H161076   5.388   2.251  12.615 -2.0317  0.6457  1.5697
13195TIP3    H261077   5.484   2.340  12.690 -2.0501  0.8971  1.2997
13196TIP3   OH261078   4.376   4.680   1.906 -0.3120 -0.3769  0.1206
13196TIP3    H161079   4.341   4.752   1.853  0.9074 -0.8779 -1.4418
13196TIP3    H261080   4.433   4.632   1.846 -1.5685 -3.0463  0.9141
13197TIP3   OH261081   2.270   6.658  15.130 -0.2516  0.2450  0.2588
13197TIP3    H161082   2.360   6.626  15.135  0.2039  1.5510  0.9451
13197TIP3    H261083   2.278   6.753  15.130 -1.4745  0.4690 -2.7485
13198TIP3   OH261084   4.717   5.361  13.257  0.6114 -0.0359  0.2459
13198TIP3    H161085   4.707   5.441  13.207 -1.1614 -1.0369 -1.1344
13198TIP3    H261086   4.776   5.307  13.204 -1.3681 -1.1461 -0.9396
13199TIP3   OH261087   6.787   2.098  10.976  0.0672  0.3337  0.2719
13199TIP3    H161088   6.879   2.073  10.985  0.2093  1.0935  1.0902
13199TIP3    H261089   6.743   2.017  10.949  1.0832  0.1536 -0.9463
13200TIP3   OH261090   6.563   6.267   0.049  0.4386 -0.3744 -0.1351
13200TIP3    H161091   6.624   6.313   0.107 -0.4064 -0.2314  0.6668
13200TIP3    H261092   6.542   6.187   0.096  1.1885 -1.1718 -1.1135
13201TIP3   OH261093   6.625   2.754  15.853  0.6452 -0.1543  0.1017
13201TIP3    H161094   6.696   2.689  15.855 -0.1151 -1.0167 -0.4746
13201TIP3    H261095   6.546   2.705  15.875 -0.0458  0.4243 -0.9641
13202TIP3   OH261096   4.536   3.164  17.284  0.0485  0.0843 -0.2172
13202TIP3    H161097   4.597   3.145  17.355  1.3659 -0.7117 -1.5047
13202TIP3    H261098   4.539   3.259  17.274  2.8854 -0.0645 -1.7064
13203TIP3   OH261099   3.082   6.574  16.596 -0.4623 -0.0175 -0.0150
13203TIP3    H161100   3.088   6.505  16.529 -0.1758  1.4187 -1.5607
13203TIP3    H261101   3.169   6.615  16.594 -0.3070 -0.2265  1.6001
13204TIP3   OH261102   6.518   6.084  13.204  0.1515  0.7209  0.2841
13204TIP3    H161103   6.438   6.035  13.223  0.1824 -1.4327 -3.9845
13204TIP3    H261104   6.500   6.125  13.119  3.4096  0.4395 -0.6497
13205TIP3   OH261105   4.989   2.385   2.072 -0.2773 -1.5438  1.0697
13205TIP3    H161106   4.913   2.375   2.015 -0.1351 -1.0369  0.7856
13205TIP3    H261107   4.964   2.343   2.154 -1.0871 -0.8401  1.1860
13206TIP3   OH261108   0.899   0.612   4.384 -0.2730 -0.2443 -0.7505
13206TIP3    H161109   0.820   0.587   4.337 -1.3617  1.6724 -0.0437
13206TIP3    H261110   0.971   0.588   4.326 -1.3509 -1.8680 -1.4841
13207TIP3   OH261111   0.591   2.758  16.854 -0.2440  0.1163  0.0699
13207TIP3    H161112   0.593   2.792  16.765 -0.1005 -0.8585 -0.3056
13207TIP3    H261113   0.648   2.816  16.904  0.9135 -0.2397 -0.8061
13208TIP3   OH261114   3.247   4.541  15.568  0.3215  0.2681  0.4908
13208TIP3    H161115   3.312   4.474  15.589  1.1179  1.5247  2.3047
13208TIP3    H261116   3.200   4.556  15.650 -1.1808  0.5503 -0.3820
13209TIP3   OH261117   4.626   6.045  16.409  0.0101 -1.1561 -0.3771
13209TIP3    H161118   4.635   6.128  16.363  0.3275 -0.9533  0.0425
13209TIP3    H261119   4.654   5.979  16.346  2.7905 -0.7188  0.2704
13210TIP3   OH261120   0.474   4.549   2.525 -0.2996  0.3574 -0.7495
13210TIP3    H161121   0.542   4.597   2.479  0.6888  0.2912  0.5808
13210TIP3    H261122   0.417   4.616   2.561  0.8981  0.5773  0.8343
13211TIP3   OH261123   5.591   2.145   5.210 -0.1471  0.0857  0.4011
13211TIP3    H161124   5.584   2.050   5.203  0.3951  0.0858 -0.3428
13211TIP3    H261125   5.507   2.178   5.178  0.0641 -0.1215 -0.3870
13212TIP3   OH261126   1.597   6.655  11.616  0.1823  0.1570 -0.1008
13212TIP3    H161127   1.519   6.650  11.562  1.5251 -1.3352 -2.0266
13212TIP3    H261128   1.579   6.596  11.689  0.0387 -1.3780 -1.3171
13213TIP3   OH261129   5.987   0.482  16.620 -0.6128  0.0178 -0.5663
13213TIP3    H161130   6.007   0.413  16.556 -0.4029  2.4220 -3.3120
13213TIP3    H261131   5.898   0.509  16.598 -0.4986  0.9742  0.1074
13214TIP3   OH261132   3.905   2.068  16.582 -0.0993 -0.2204  0.7405
13214TIP3    H161133   3.856   2.048  16.662 -2.0533  1.6832  0.1184
13214TIP3    H261134   3.931   2.160  16.593 -0.4040  0.0680 -0.7991
13215TIP3   OH261135   3.067   4.994  11.824  0.0479 -0.2017 -0.3955
13215TIP3    H161136   2.989   4.993  11.769  0.0336  0.8024 -0.4004
13215TIP3    H261137   3.139   5.013  11.764  0.0270  0.9492 -0.0704
13216TIP3   OH261138   5.874   1.800   6.016  0.0315 -0.4472 -0.3406
13216TIP3    H161139   5.808   1.870   6.023  0.4990 -0.1370  1.2663
13216TIP3    H261140   5.957   1.843   6.038  0.2718 -1.5532  1.0592
13217TIP3   OH261141   2.049   6.039  11.720 -0.4046 -0.6402  0.3368
13217TIP3    H161142   2.122   5.990  11.682  1.0984  1.2033  0.6938
13217TIP3    H261143   1.988   6.052  11.648  1.5374  1.2094 -1.0994
13218TIP3   OH261144   3.980   1.607  15.516  0.0258 -0.3216 -0.0434
13218TIP3    H161145   3.944   1.695  15.501 -0.5041  0.0017  2.6660
13218TIP3    H261146   4.058   1.622  15.568  1.4444 -1.3645 -1.7653
13219TIP3   OH261147   1.631   0.804  16.962  0.1204  0.3327  0.0155
13219TIP3    H161148   1.696   0.805  17.032 -1.7897  0.4524  1.8863
13219TIP3    H261149   1.564   0.742  16.991 -1.8989  2.1158 -0.5047
13220TIP3   OH261150   3.635   5.523  13.070  0.3767  0.2232  0.3140
13220TIP3    H161151   3.695   5.597  13.060  0.1970  0.4198  0.6780
13220TIP3    H261152   3.607   5.503  12.981  2.2305 -0.9267 -0.0676
13221TIP3   OH261153   4.756   0.583   5.329 -0.4273  0.0194  0.7161
13221TIP3    H161154   4.708   0.508   5.367 -0.4525 -1.0686 -1.3049
13221TIP3    H261155   4.697   0.616   5.261  0.8904 -0.1725 -0.5651
13222TIP3   OH261156   6.723   3.950   2.570 -0.2393 -0.0377  0.3537
13222TIP3    H161157   6.708   3.863   2.605 -0.1998  0.2049  0.9937
13222TIP3    H261158   6.818   3.963   2.578 -0.1867 -0.1076 -0.1506
13223TIP3   OH261159   2.083   1.664  15.189 -0.2770  0.0056  0.0459
13223TIP3    H161160   2.154   1.657  15.253 -0.3648 -2.5742 -0.0354
13223TIP3    H261161   2.023   1.593  15.211 -1.0391 -0.0755 -2.0329
13224TIP3   OH261162   1.858   1.533   2.394  0.0055  0.4401  0.2284
13224TIP3    H161163   1.881   1.622   2.368  2.2754  0.3668  1.7527
13224TIP3    H261164   1.789   1.544   2.459  1.3911  1.2509  1.6294
13225TIP3   OH261165   3.162   0.681   3.549  0.1333 -0.4713 -0.7198
13225TIP3    H161166   3.252   0.706   3.530  0.8381 -1.1463  1.4526
13225TIP3    H261167   3.134   0.743   3.617  0.2767 -2.4938  1.2880
13226TIP3   OH261168   5.235   4.295  15.696  0.2861  0.0361 -0.4095
13226TIP3    H161169   5.140   4.298  15.705  0.3808 -1.2036  1.8227
13226TIP3    H261170   5.255   4.201  15.694  1.5402  0.2677  0.4940
13227TIP3   OH261171   0.686   4.273   1.660  0.1067 -0.1370 -0.2638
13227TIP3    H161172   0.739   4.319   1.724 -0.3459  0.9506 -0.6413
13227TIP3    H261173   0.644   4.342   1.609 -0.5640 -0.9694 -0.8857
13228TIP3   OH261174   1.626   4.947   2.237 -0.5578 -0.1517 -0.2478
13228TIP3    H161175   1.591   5.024   2.282 -0.2137 -1.3515  2.2365
13228TIP3    H261176   1.700   4.919   2.291  0.0445 -1.5661 -1.7250
13229TIP3   OH261177   6.731   5.647   5.389  0.0408  0.2113 -0.5251
13229TIP3    H161178   6.679   5.609   5.318 -0.3048  0.5875 -0.4748
13229TIP3    H261179   6.699   5.604   5.468 -0.2361  0.4908 -0.4867
13230TIP3   OH261180   6.706   5.269   2.057  0.3775  0.0083  0.8094
13230TIP3    H161181   6.669   5.357   2.048  0.4731 -0.0801 -0.8612
13230TIP3    H261182   6.749   5.253   1.973  0.0661 -1.7649  0.9453
13231TIP3   OH261183   5.589   3.344  15.545  0.2737  0.4788 -0.0204
13231TIP3    H161184   5.586   3.255  15.511 -1.8620 -0.0183  1.2508
13231TIP3    H261185   5.682   3.360  15.564  0.6072 -1.7862  0.4981
13232TIP3   OH261186   1.592   0.137   1.433 -0.0783 -0.1666  0.4390
13232TIP3    H161187   1.566   0.214   1.483 -0.6176 -0.3730  0.4928
13232TIP3    H261188   1.550   0.064   1.479  0.2355 -0.4643  0.2572
13233TIP3   OH261189   3.389   3.734   0.040 -0.1986 -0.0161 -0.6592
13233TIP3    H161190   3.300   3.756   0.069 -0.3809 -2.5005  0.9429
13233TIP3    H261191   3.439   3.815   0.051 -2.3209  1.6303 -2.1909
13234TIP3   OH261192   1.833   3.240  14.491 -0.3750  0.7337  0.6390
13234TIP3    H161193   1.911   3.294  14.477  1.1412 -1.9986 -3.2100
13234TIP3    H261194   1.865   3.163  14.539 -1.1071  0.4122  0.6332
13235TIP3   OH261195   2.704   0.416  16.456  0.2944  0.3543 -0.1721
13235TIP3    H161196   2.765   0.447  16.389  0.5961  1.7759  0.7341
13235TIP3    H261197   2.746   0.435  16.539 -0.0633 -1.4259  0.4700
13236TIP3   OH261198   1.935   0.150   0.966 -0.4675  0.1352 -0.1670
13236TIP3    H161199   1.898   0.151   1.054  3.3285  0.4827  1.6118
13236TIP3    H261200   1.944   0.057   0.944  2.3485 -0.1627  1.7408
13237TIP3   OH261201   4.096   2.072   5.148  0.2196 -0.2711 -0.1502
13237TIP3    H161202   4.169   2.133   5.143  0.0813 -0.0320  0.5079
13237TIP3    H261203   4.095   2.044   5.240 -0.7551  0.0455 -0.0502
13238TIP3   OH261204   0.293   1.129  14.978  0.0048  0.3982  0.0836
13238TIP3    H161205   0.332   1.201  14.929 -2.2704  1.6037 -0.0888
13238TIP3    H261206   0.292   1.055  14.917 -1.1048  1.3544 -1.1182
13239TIP3   OH261207   1.428   6.730   4.045  0.2266  0.2821  0.5129
13239TIP3    H161208   1.501   6.779   4.008  0.1710  0.2077  0.3004
13239TIP3    H261209   1.460   6.640   4.051  0.3331  0.3476  0.9147
13240TIP3   OH261210   3.627   3.442  15.211  0.2274  0.5302 -0.6757
13240TIP3    H161211   3.722   3.441  15.200  0.3648 -0.4019  0.4693
13240TIP3    H261212   3.601   3.530  15.183  1.4324  0.8313 -0.9094
13241TIP3   OH261213   1.429   5.478   7.016  0.1191  0.0194  0.5952
13241TIP3    H161214   1.525   5.472   7.018  0.0819 -0.4232  1.5577
13241TIP3    H261215   1.412   5.561   6.972  0.9373 -0.1147 -0.0003
13242TIP3   OH261216   5.999   5.597  14.190 -0.1856  0.2000  0.3667
13242TIP3    H161217   5.963   5.509  14.175 -1.3100  0.7572 -0.3531
13242TIP3    H261218   6.074   5.582  14.248 -1.4434 -1.0439  1.7696
13243TIP3   OH261219   5.534   3.888  14.664  0.5651  0.4449 -0.3222
13243TIP3    H161220   5.491   3.845  14.591 -0.1089  1.5199 -0.5813
13243TIP3    H261221   5.538   3.821  14.733 -1.0303  0.1438 -0.4789
13244TIP3   OH261222   5.140   0.626   4.297  0.1316 -0.2440  0.6809
13244TIP3    H161223   5.097   0.709   4.314 -1.3768 -0.7420 -0.4540
13244TIP3    H261224   5.170   0.633   4.206  1.0769 -0.5009  0.9606
13245TIP3   OH261225   3.476   6.276  11.340  0.2561  0.3959 -0.2868
13245TIP3    H161226   3.502   6.231  11.260 -0.0524 -0.3096  0.0022
13245TIP3    H261227   3.505   6.219  11.411 -1.6053 -0.1926  0.0620
13246TIP3   OH261228   1.680   5.638  17.005 -0.8904  0.4672  0.1353
13246TIP3    H161229   1.681   5.579  16.929 -0.4785 -0.1429  0.5959
13246TIP3    H261230   1.728   5.715  16.976 -2.0238  0.8917 -0.6999
13247TIP3   OH261231   1.599   5.617   0.166 -0.3523 -0.0743 -0.6081
13247TIP3    H161232   1.667   5.581   0.222  0.6268  1.0285 -1.0590
13247TIP3    H261233   1.589   5.553   0.096  0.0547 -0.3385 -0.4248
13248TIP3   OH261234   1.620   0.776   5.444  0.3936  0.6751  0.1440
13248TIP3    H161235   1.712   0.766   5.467  0.6043 -0.8751 -1.1637
13248TIP3    H261236   1.620   0.787   5.349 -0.7872  0.1529  0.0599
13249TIP3   OH261237   4.808   0.813   2.229 -0.0016  0.5629  0.5975
13249TIP3    H161238   4.777   0.858   2.150 -1.5984 -0.0467  0.8365
13249TIP3    H261239   4.840   0.729   2.197  2.8576  1.7036  0.1687
13250TIP3   OH261240   5.407   6.454  10.450  0.2931 -0.2726  0.2040
13250TIP3    H161241   5.374   6.376  10.405 -1.2944 -1.0604  2.5624
13250TIP3    H261242   5.493   6.428  10.483  0.3220 -0.5698 -0.0962
13251TIP3   OH261243   0.550   5.910  14.818  0.2483  0.5280 -0.1664
13251TIP3    H161244   0.624   5.923  14.759  0.3759  0.6270  0.0129
13251TIP3    H261245   0.590   5.882  14.900  0.0012 -0.7532 -0.4531
13252TIP3   OH261246   4.199   0.296   1.079  0.1283 -0.3520  0.0079
13252TIP3    H161247   4.106   0.298   1.056  0.0737 -0.9386  0.1787
13252TIP3    H261248   4.205   0.349   1.159  0.1462  0.7522 -0.7107
13253TIP3   OH261249   2.907   1.288  15.940 -0.4501 -0.8944  0.3081
13253TIP3    H161250   2.942   1.377  15.944 -1.0429 -0.6805  0.9020
13253TIP3    H261251   2.815   1.299  15.915 -0.1536 -1.4440 -1.1182
13254TIP3   OH261252   3.262   5.545  15.273  0.6245  0.2835  0.3551
13254TIP3    H161253   3.340   5.496  15.247 -0.1350 -2.0940  2.1391
13254TIP3    H261254   3.258   5.535  15.369 -1.0003  1.7178  0.4951
13255TIP3   OH261255   3.272   6.391  12.676  0.2587 -0.1356 -0.0804
13255TIP3    H161256   3.196   6.350  12.718  0.0173  1.7498  1.4882
13255TIP3    H261257   3.334   6.404  12.748  1.4547 -0.2766 -1.0649
13256TIP3   OH261258   6.187   1.223   4.395  0.0436  0.2968  0.6419
13256TIP3    H161259   6.097   1.192   4.388  0.3877 -0.8622  1.0637
13256TIP3    H261260   6.237   1.166   4.336  0.0445  3.1601 -2.4075
13257TIP3   OH261261   1.163   2.935  14.487  0.2940  0.3751 -0.3715
13257TIP3    H161262   1.103   2.931  14.562 -0.5822 -1.5944 -1.1253
13257TIP3    H261263   1.106   2.943  14.411  1.0871  0.2599 -0.9868
13258TIP3   OH261264   5.510   0.272  12.578  0.2988  0.2264  0.1462
13258TIP3    H161265   5.435   0.218  12.556  0.4182  0.8219 -1.8634
13258TIP3    H261266   5.586   0.227  12.539  0.4689  1.4859 -1.0563
13259TIP3   OH261267   3.631   4.978   0.766 -0.2352 -0.1817  0.0481
13259TIP3    H161268   3.647   4.886   0.785 -0.2107 -0.0259  0.8089
13259TIP3    H261269   3.713   5.021   0.788 -1.0654  0.3832  2.2993
13260TIP3   OH261270   2.835   2.453  16.302 -0.4171  0.1726  0.0104
13260TIP3    H161271   2.925   2.424  16.312 -0.2155  1.2974  2.1700
13260TIP3    H261272   2.782   2.376  16.324  0.0254 -0.1914 -0.2033
13261TIP3   OH261273   6.616   0.523  15.586 -0.5017  0.1714 -0.5687
13261TIP3    H161274   6.637   0.475  15.666  0.5591 -2.1532 -2.1412
13261TIP3    H261275   6.548   0.585  15.612 -0.7105 -1.0169  1.9488
13262TIP3   OH261276   3.784   4.372   4.159 -0.7351  0.2475  0.1130
13262TIP3    H161277   3.734   4.370   4.078  0.1671 -0.5864 -0.4445
13262TIP3    H261278   3.769   4.286   4.199  0.5697 -0.1831 -0.2770
13263TIP3   OH261279   5.694   1.864  11.448 -0.0055  0.2814  0.2935
13263TIP3    H161280   5.653   1.878  11.533  1.2325 -2.4930  1.4788
13263TIP3    H261281   5.785   1.891  11.460  0.0768  0.2930 -0.2948
13264TIP3   OH261282   2.450   3.073  14.407 -0.0923 -0.2481  0.1615
13264TIP3    H161283   2.361   3.047  14.382 -0.0671  0.1278 -0.3318
13264TIP3    H261284   2.449   3.168  14.404 -0.1147 -0.1709  1.7232
13265TIP3   OH261285   4.325   5.081   5.530  0.7801  0.4384 -0.3147
13265TIP3    H161286   4.276   5.036   5.461  1.1301  1.2876 -1.1490
13265TIP3    H261287   4.369   5.153   5.484  1.7279  0.4967  0.6483
13266TIP3   OH261288   0.955   4.741  14.903 -0.1061  0.6430  0.4758
13266TIP3    H161289   0.903   4.714  14.978  0.7483  3.0897  2.0618
13266TIP3    H261290   1.017   4.668  14.890 -0.0904  0.2709  2.3325
13267TIP3   OH261291   5.470   3.646  12.212 -0.6000  0.0841 -0.7096
13267TIP3    H161292   5.375   3.655  12.215 -0.7374 -0.7179 -1.8594
13267TIP3    H261293   5.496   3.692  12.132  0.3398  2.7188  0.9711
13268TIP3   OH261294   4.294   6.477  15.602  0.2500 -0.2780  0.7588
13268TIP3    H161295   4.381   6.454  15.635  0.3801  0.7786  1.1959
13268TIP3    H261296   4.274   6.561  15.645 -0.4123  0.1561 -0.3645
13269TIP3   OH261297   1.738   0.823   3.018  0.3854  0.1709 -0.0008
13269TIP3    H161298   1.699   0.905   3.047 -1.3467 -0.7687  0.5218
13269TIP3    H261299   1.743   0.770   3.098 -0.7067 -1.0232 -0.6817
13270TIP3   OH261300   5.115   0.359  14.910 -0.1167  0.0360 -0.5088
13270TIP3    H161301   5.099   0.448  14.940  1.1704 -0.2144  1.0012
13270TIP3    H261302   5.138   0.369  14.817 -2.9654  0.9276 -1.2237
13271TIP3   OH261303   5.999   1.752   2.648  0.3068  0.1907 -0.0025
13271TIP3    H161304   6.013   1.680   2.587 -0.6249 -0.2509  0.2998
13271TIP3    H261305   5.963   1.711   2.727  1.3863  0.7614  0.8287
13272TIP3   OH261306   0.429   0.497  12.099  0.3265  0.8197  0.2549
13272TIP3    H161307   0.515   0.457  12.112  0.0994  0.4731  0.7005
13272TIP3    H261308   0.448   0.589  12.082  0.7741  0.7800  0.5358
13273TIP3   OH261309   4.594   3.288   3.557 -0.3515  0.2949  0.3436
13273TIP3    H161310   4.534   3.244   3.616 -0.1754  0.0110  0.3120
13273TIP3    H261311   4.543   3.360   3.520 -0.2389  0.9323  1.4037
13274TIP3   OH261312   0.213   4.174  16.254  0.0373  0.0001 -0.2148
13274TIP3    H161313   0.170   4.259  16.247  1.3326  0.6443 -0.7318
13274TIP3    H261314   0.221   4.143  16.164  1.5247  0.3718 -0.2433
13275TIP3   OH261315   6.588   3.737   2.154 -0.2647  0.3390 -0.1127
13275TIP3    H161316   6.493   3.731   2.157 -0.2521 -0.4962 -1.0491
13275TIP3    H261317   6.618   3.647   2.165  0.5595  0.8722  3.3926
13276TIP3   OH261318   2.442   2.755   5.531 -0.5042 -0.0189 -0.6970
13276TIP3    H161319   2.414   2.703   5.456 -3.0347  1.2785 -0.7392
13276TIP3    H261320   2.404   2.711   5.607  0.5982 -0.3545 -0.3196
13277TIP3   OH261321   4.804   5.048   4.436 -0.4156 -0.3771 -0.3718
13277TIP3    H161322   4.842   5.120   4.486 -0.0909 -0.5389 -0.3847
13277TIP3    H261323   4.759   4.995   4.502 -1.6445  0.4488 -0.5060
13278TIP3   OH261324   0.984   5.533   4.360  0.5590  0.4333  0.0600
13278TIP3    H161325   0.892   5.511   4.348  0.8081 -1.5301  1.3032
13278TIP3    H261326   1.030   5.484   4.291  0.7003  1.2852 -0.4623
13279TIP3   OH261327   2.993   3.432  15.440 -0.0578 -0.3073 -0.2961
13279TIP3    H161328   2.945   3.470  15.514 -0.4207 -1.5364  0.1453
13279TIP3    H261329   3.069   3.390  15.480  0.9743  0.9277 -0.9035
13280TIP3   OH261330   2.165   5.214  16.583 -0.0673 -0.3228 -0.9458
13280TIP3    H161331   2.081   5.216  16.630  0.4279  3.8030  0.1417
13280TIP3    H261332   2.154   5.144  16.518 -3.3485 -1.6748  0.7908
13281TIP3   OH261333   0.466   5.549   0.116  0.0946  0.2345  0.0780
13281TIP3    H161334   0.516   5.625   0.146 -1.2412  0.1572  2.8654
13281TIP3    H261335   0.375   5.580   0.111 -0.2698 -0.8045 -0.1593
13282TIP3   OH261336   3.521   2.954   1.010 -0.7211  0.0726 -0.3044
13282TIP3    H161337   3.535   3.025   0.947 -0.6086  1.1827  0.9244
13282TIP3    H261338   3.598   2.957   1.067 -0.6393 -1.1563 -0.3248
13283TIP3   OH261339   2.525   3.234   2.469 -0.6856 -0.3886 -0.5209
13283TIP3    H161340   2.584   3.193   2.406 -0.0802  0.7263 -0.7018
13283TIP3    H261341   2.453   3.171   2.478 -0.6694 -0.6842 -2.1279
13284TIP3   OH261342   4.967   5.458   5.844  0.7436  0.4330 -0.1911
13284TIP3    H161343   4.879   5.422   5.850  1.4070 -1.1528  0.7288
13284TIP3    H261344   4.960   5.546   5.881 -0.6112  0.7012 -1.0133
13285TIP3   OH261345   2.123   2.858   0.312 -0.6012  0.3976  0.1751
13285TIP3    H161346   2.165   2.824   0.233 -1.8596 -1.1607  0.1206
13285TIP3    H261347   2.039   2.812   0.316 -0.3621  0.0463  2.6736
13286TIP3   OH261348   3.013   4.850  11.199  0.3969  0.3337 -0.0378
13286TIP3    H161349   3.080   4.839  11.266  0.1375  2.2948  0.6109
13286TIP3    H261350   3.056   4.899  11.129  1.1888 -3.1712 -2.2680
13287TIP3   OH261351   5.771   1.155   3.178  0.1456  0.2501 -0.7453
13287TIP3    H161352   5.796   1.062   3.178 -1.3181 -0.2925  3.0303
13287TIP3    H261353   5.690   1.158   3.126  0.3592 -0.5044 -1.1420
13288TIP3   OH261354   5.548   6.730  15.170  0.2424  0.3379 -0.3896
13288TIP3    H161355   5.502   6.646  15.163 -0.2104  0.5670 -0.2433
13288TIP3    H261356   5.639   6.710  15.148 -0.2588  0.2264 -2.5573
13289TIP3   OH261357   1.332   6.501   0.960  0.6359 -0.6331  0.4825
13289TIP3    H161358   1.249   6.456   0.944  0.4970 -0.6630  1.2247
13289TIP3    H261359   1.378   6.444   1.022  0.3464  0.3391  1.6356
13290TIP3   OH261360   2.173   0.108  13.440 -0.4790  0.4722 -0.0917
13290TIP3    H161361   2.204   0.116  13.530  0.2149  2.2225 -0.4602
13290TIP3    H261362   2.081   0.136  13.443 -0.4968  0.3971  0.0809
13291TIP3   OH261363   5.741   0.332   3.404  0.0803  0.0076 -0.3195
13291TIP3    H161364   5.670   0.323   3.340 -0.3051 -3.1950  0.3637
13291TIP3    H261365   5.712   0.403   3.461 -0.7495  1.2718 -2.2109
13292TIP3   OH261366   4.412   0.809  13.597  0.0522  0.1489  0.5339
13292TIP3    H161367   4.394   0.805  13.691  1.7000 -1.2976  0.8415
13292TIP3    H261368   4.366   0.734  13.560  0.9351 -0.3862  0.4959
13293TIP3   OH261369   3.485   3.698   0.352 -0.0372 -0.0874  0.4517
13293TIP3    H161370   3.390   3.709   0.364  0.1603  1.2407  0.9887
13293TIP3    H261371   3.493   3.649   0.270 -1.1916  0.0420  0.2407
13294TIP3   OH261372   4.477   6.587  14.000  0.1125 -0.3626 -0.2986
13294TIP3    H161373   4.479   6.622  13.912  1.6578  2.6019  0.8012
13294TIP3    H261374   4.386   6.558  14.012 -0.1638 -0.7192 -2.7444
13295TIP3   OH261375   2.985   3.950   3.140  0.7411  0.0406  0.0222
13295TIP3    H161376   2.998   3.872   3.086  1.8496  0.6515 -0.6396
13295TIP3    H261377   2.949   3.917   3.222 -0.9908 -0.9204 -1.0624
13296TIP3   OH261378   4.026   4.465   5.546 -0.1872 -0.2298  0.3856
13296TIP3    H161379   4.074   4.502   5.620 -1.8171  0.9689  0.9129
13296TIP3    H261380   4.023   4.535   5.482  1.3540 -1.3151 -0.9573
13297TIP3   OH261381   4.269   5.878  16.649  0.0279  0.2609  0.5691
13297TIP3    H161382   4.175   5.867  16.659 -0.1200 -1.6970 -1.9526
13297TIP3    H261383   4.287   5.965  16.684 -2.8422  1.0429  0.3578
13298TIP3   OH261384   0.362   5.563   2.715 -0.0769 -0.2495 -0.3742
13298TIP3    H161385   0.361   5.502   2.641 -1.4099  0.6550 -1.1315
13298TIP3    H261386   0.353   5.649   2.676 -1.4643  0.2095  0.8812
13299TIP3   OH261387   5.594   4.980  11.415  0.0513  0.4630 -0.9223
13299TIP3    H161388   5.643   5.060  11.397  0.3897  0.1507 -1.3994
13299TIP3    H261389   5.538   4.968  11.339  1.5618 -0.9131 -1.8639
13300TIP3   OH261390   2.158   3.720   1.157  0.4002  0.0549  0.1470
13300TIP3    H161391   2.222   3.651   1.172 -1.7068 -2.1285 -0.1767
13300TIP3    H261392   2.186   3.763   1.076  1.8265 -0.3123  0.4266
13301TIP3   OH261393   6.791   4.124   1.091  0.3288  0.5624  0.6927
13301TIP3    H161394   6.846   4.139   1.168  0.4889 -0.6821  0.8463
13301TIP3    H261395   6.705   4.157   1.116  0.6070  1.0264  1.0509
13302TIP3   OH261396   3.134   3.422  12.041  0.1618 -0.1434  0.1952
13302TIP3    H161397   3.051   3.402  11.998  1.2820 -1.9266 -1.3126
13302TIP3    H261398   3.145   3.517  12.030 -0.2407 -0.3281 -2.3523
13303TIP3   OH261399   4.132   2.125  14.637 -0.2300  0.2227  0.0808
13303TIP3    H161400   4.117   2.204  14.585  1.6945 -0.0213 -0.9461
13303TIP3    H261401   4.051   2.113  14.687 -1.9903  0.7536 -2.4595
13304TIP3   OH261402   6.747   0.568  14.383  0.4053 -0.0399 -0.0553
13304TIP3    H161403   6.788   0.510  14.318 -1.0674 -1.9428  0.6281
13304TIP3    H261404   6.656   0.539  14.387  0.4430  0.0348  2.8604
13305TIP3   OH261405   2.831   6.250   2.250  0.6991  0.0830  0.2448
13305TIP3    H161406   2.802   6.159   2.256 -1.9754  0.8322 -0.1212
13305TIP3    H261407   2.773   6.298   2.309  0.5711  1.8693 -1.2668
13306TIP3   OH261408   6.168   1.188  13.150 -0.1677 -0.5680  0.1990
13306TIP3    H161409   6.114   1.226  13.220  1.4900  0.2214  1.1183
13306TIP3    H261410   6.116   1.115  13.116 -2.4953  1.1075 -0.0751
13307TIP3   OH261411   5.792   0.504  15.058 -0.1141  0.2699 -0.6506
13307TIP3    H161412   5.857   0.549  15.113 -2.4414  2.2318  0.6702
13307TIP3    H261413   5.777   0.563  14.985  1.0487 -1.1560 -2.1250
13308TIP3   OH261414   0.350   3.689   4.691 -0.3964 -0.1064 -0.4375
13308TIP3    H161415   0.428   3.661   4.738 -0.3478  0.5566 -0.1204
13308TIP3    H261416   0.328   3.614   4.635 -0.3487 -0.8351  0.4909
13309TIP3   OH261417   4.184   6.035  16.295  0.3320 -0.0566  0.0788
13309TIP3    H161418   4.193   5.956  16.347  0.1315 -0.7576 -0.9115
13309TIP3    H261419   4.201   6.107  16.356  1.4874 -0.8924  0.7789
13310TIP3   OH261420   4.006   3.594   3.320 -0.3545  0.3138 -0.0188
13310TIP3    H161421   4.000   3.520   3.259 -0.2186  1.7071 -1.7796
13310TIP3    H261422   3.959   3.665   3.277  0.0591  1.4605  1.3470
13311TIP3   OH261423   5.478   5.073   5.984  0.2727 -0.7326  0.6127
13311TIP3    H161424   5.465   4.989   6.028  0.1485 -0.8498  0.3532
13311TIP3    H261425   5.449   5.138   6.048 -1.6905 -0.9827  0.0476
13312TIP3   OH261426   2.570   5.236  11.243  0.8807 -0.5130  0.6681
13312TIP3    H161427   2.552   5.228  11.337  1.0562  0.1954  0.7671
13312TIP3    H261428   2.503   5.298  11.211  0.1525 -1.5536  0.1158
13313TIP3   OH261429   4.195   4.710   2.691  0.1152 -0.3855  0.0408
13313TIP3    H161430   4.132   4.706   2.619 -0.0275  0.1141  0.1364
13313TIP3    H261431   4.142   4.726   2.769  0.4839  2.0619 -0.1277
13314TIP3   OH261432   2.238   4.766   2.561 -0.5459 -0.2078 -0.2117
13314TIP3    H161433   2.218   4.682   2.521 -0.2425 -0.3433 -0.0818
13314TIP3    H261434   2.299   4.807   2.499 -0.2343 -0.3324  0.0096
13315TIP3   OH261435   4.923   4.480  15.056 -0.2307  0.0374  0.0413
13315TIP3    H161436   4.907   4.573  15.073 -1.2057  0.0108 -0.6674
13315TIP3    H261437   4.870   4.435  15.121  1.7805 -0.0545  1.7194
13316TIP3   OH261438   0.624   4.294   2.297 -0.1431  0.5886 -0.2578
13316TIP3    H161439   0.549   4.235   2.307  0.2952  0.1092  0.2238
13316TIP3    H261440   0.684   4.248   2.239  0.1382  0.6239  0.0056
13317TIP3   OH261441   2.206   3.377   4.409  0.9120  0.5572 -0.0135
13317TIP3    H161442   2.241   3.425   4.484 -0.2286  1.8911 -0.2837
13317TIP3    H261443   2.199   3.442   4.340  0.2731 -0.2373 -0.7228
13318TIP3   OH261444   1.465   6.759  16.647 -0.5676 -0.6305  0.1290
13318TIP3    H161445   1.533   6.795  16.704  0.6648 -1.2381 -0.9209
13318TIP3    H261446   1.446   6.673  16.684  0.1031 -0.9502 -0.2476
13319TIP3   OH261447   3.653   5.540  12.323  0.5014  0.1738 -0.3412
13319TIP3    H161448   3.597   5.559  12.398  2.2500  1.2789  0.7852
13319TIP3    H261449   3.742   5.540  12.359  1.2685 -1.3952 -2.0534
13320TIP3   OH261450   4.853   3.777  11.239 -0.5748  0.1928  0.2662
13320TIP3    H161451   4.761   3.773  11.265 -1.0024  0.2364 -1.1540
13320TIP3    H261452   4.851   3.801  11.147  0.8564 -0.2598  0.0883
13321TIP3   OH261453   1.093   3.071   3.215 -0.5030 -0.1942 -0.7752
13321TIP3    H161454   1.010   3.119   3.210 -1.1018 -1.1349 -0.3620
13321TIP3    H261455   1.112   3.047   3.125  0.0206  1.1564 -1.0330
13322TIP3   OH261456   0.973   2.270  12.117 -0.2199  0.4023  0.8103
13322TIP3    H161457   0.973   2.346  12.175  2.3118  0.8797  0.2885
13322TIP3    H261458   0.951   2.305  12.031  0.8452  0.5737  0.5901
13323TIP3   OH261459   3.899   0.069   2.648  0.4634 -0.1910 -0.0222
13323TIP3    H161460   3.843   0.146   2.638  0.5813 -0.2330 -1.1607
13323TIP3    H261461   3.844  -0.004   2.618 -0.0336 -0.7358  2.0753
13324TIP3   OH261462   4.242   3.492  14.619  0.0813  0.2119 -0.1895
13324TIP3    H161463   4.209   3.433  14.551  1.1409  0.1773 -0.6826
13324TIP3    H261464   4.163   3.532  14.656 -0.5911 -0.8323 -0.4659
13325TIP3   OH261465   3.975   0.039   1.747 -0.1655 -0.1174  0.1910
13325TIP3    H161466   4.016  -0.043   1.721  0.0048  0.1347 -0.3272
13325TIP3    H261467   4.033   0.107   1.713 -0.7751  0.2311 -0.1598
13326TIP3   OH261468   1.213   2.944  15.430  0.1231  0.1223  0.3683
13326TIP3    H161469   1.222   2.849  15.437  1.1115  0.1373 -0.5158
13326TIP3    H261470   1.129   2.956  15.386  0.1630 -0.3548  0.1524
13327TIP3   OH261471   5.596   1.858   5.456 -0.0128  0.1823  0.2502
13327TIP3    H161472   5.575   1.848   5.363  1.3842 -0.5163 -0.0236
13327TIP3    H261473   5.615   1.951   5.467 -0.1325  0.2581 -0.1829
13328TIP3   OH261474   5.101   1.001   6.487  0.1281  0.1921 -0.3968
13328TIP3    H161475   5.165   1.071   6.473 -1.3943  1.7092 -0.0486
13328TIP3    H261476   5.026   1.044   6.527  0.1268 -2.1096  2.4104
13329TIP3   OH261477   6.111   1.272  16.553 -0.2677  0.3232  0.7017
13329TIP3    H161478   6.119   1.360  16.516  1.6064  0.0474  0.3873
13329TIP3    H261479   6.082   1.287  16.643 -0.5889  1.2109  0.4639
13330TIP3   OH261480   1.799   0.435   4.144 -0.6048  0.3635 -0.2925
13330TIP3    H161481   1.808   0.341   4.132 -0.5981  0.3617 -0.2735
13330TIP3    H261482   1.749   0.444   4.225 -0.0499  0.3843  0.0507
13331TIP3   OH261483   1.960   6.456  15.882 -0.3009 -0.3355 -0.2694
13331TIP3    H161484   1.877   6.491  15.913 -0.3193 -0.5322 -0.0965
13331TIP3    H261485   1.940   6.419  15.796 -0.4304 -0.5375 -0.1533
13332TIP3   OH261486   5.025   4.505   1.422  0.3286 -0.7683 -0.2636
13332TIP3    H161487   5.104   4.558   1.435  0.7505 -1.0772 -1.4701
13332TIP3    H261488   4.953   4.567   1.435  0.7161 -0.6493  1.6231
13333TIP3   OH261489   3.384   0.824   0.253 -0.4169 -0.3543 -0.5618
13333TIP3    H161490   3.355   0.733   0.259  1.2432 -0.9751 -1.3998
13333TIP3    H261491   3.479   0.819   0.245 -0.4876  1.2338 -4.1316
13334TIP3   OH261492   2.200   4.002  13.611  0.1705  0.2305  0.5553
13334TIP3    H161493   2.243   3.984  13.527 -1.6884  1.8007 -0.8400
13334TIP3    H261494   2.201   3.918  13.656  0.7150 -0.8340 -1.3058
13335TIP3   OH261495   4.238   6.398   6.425 -0.0738  0.4707  0.0430
13335TIP3    H161496   4.195   6.464   6.480  0.0828  1.2310 -0.7274
13335TIP3    H261497   4.327   6.391   6.461 -0.8007 -1.2147  1.7371
13336TIP3   OH261498   3.905   4.703  14.876  0.0368  0.6045 -0.1910
13336TIP3    H161499   3.964   4.646  14.827  0.0552 -0.7214  1.3271
13336TIP3    H261500   3.872   4.649  14.948  0.0562  2.4954  1.3168
13337TIP3   OH261501   4.254   3.205  12.569  0.3665  0.3750  0.4991
13337TIP3    H161502   4.277   3.134  12.510 -1.8583  0.8039 -1.0018
13337TIP3    H261503   4.208   3.269  12.514 -1.6625  0.8728  2.6092
13338TIP3   OH261504   4.209   4.039  12.745 -0.5812 -0.0975  0.4711
13338TIP3    H161505   4.281   3.976  12.752 -0.7928 -0.1797  2.4460
13338TIP3    H261506   4.252   4.124  12.738 -0.3045 -0.3046 -0.4736
13339TIP3   OH261507   1.673   2.686  11.729  0.0296 -0.1134  0.4367
13339TIP3    H161508   1.757   2.689  11.685 -1.6378 -0.2655 -3.1312
13339TIP3    H261509   1.654   2.593  11.739 -0.0310 -0.0862  0.5811
13340TIP3   OH261510   6.277   4.459   3.745  0.1950 -0.0392 -0.4402
13340TIP3    H161511   6.224   4.435   3.669  0.9976 -2.7030 -0.2704
13340TIP3    H261512   6.356   4.498   3.708  1.4130 -2.9700 -1.2166
13341TIP3   OH261513   6.692   3.405   4.042 -0.8812  0.1227  0.1769
13341TIP3    H161514   6.642   3.423   4.122 -1.5227  0.1690 -0.2240
13341TIP3    H261515   6.777   3.446   4.057 -1.5305  1.5273  0.1996
13342TIP3   OH261516   1.876   2.450  11.831 -0.4873 -0.0526 -0.1791
13342TIP3    H161517   1.932   2.373  11.818 -2.9953 -1.9584 -0.4843
13342TIP3    H261518   1.937   2.524  11.830  2.0121 -1.9625 -0.3186
13343TIP3   OH261519   3.896   6.754  11.721  0.2427 -0.4752 -0.4908
13343TIP3    H161520   3.825   6.701  11.758  1.7526 -1.1254  1.6355
13343TIP3    H261521   3.880   6.842  11.755  0.7072 -0.7253  0.3946
13344TIP3   OH261522   3.518   2.630   2.466 -0.9775 -0.1163  0.3513
13344TIP3    H161523   3.583   2.586   2.521 -1.0626 -1.5496 -0.6337
13344TIP3    H261524   3.457   2.560   2.441 -2.3388  0.9914  0.4283
13345TIP3   OH261525   5.913   1.385  16.129  0.6187 -0.3349  0.3519
13345TIP3    H161526   5.833   1.386  16.077  2.2109  0.4083 -2.2268
13345TIP3    H261527   5.909   1.466  16.181  1.2095  1.5978 -2.3891
13346TIP3   OH261528   3.052   1.532   6.136 -0.5847 -0.0940  0.3703
13346TIP3    H161529   3.061   1.511   6.229 -0.7299  1.8288  0.8504
13346TIP3    H261530   2.980   1.594   6.131  1.0761  1.8846 -0.6515
13347TIP3   OH261531   5.226   4.935  15.489 -0.3703 -0.1033  0.0305
13347TIP3    H161532   5.222   4.971  15.401 -0.1945 -0.1999 -0.0180
13347TIP3    H261533   5.136   4.905  15.507 -0.0271 -1.8206 -0.8615
13348TIP3   OH261534   2.755   2.582  14.604  0.0115  0.5798 -0.6923
13348TIP3    H161535   2.799   2.585  14.689  0.3235  3.0295 -0.8795
13348TIP3    H261536   2.808   2.523  14.551  1.5779  1.3892 -0.0873
13349TIP3   OH261537   1.066   4.902  13.363  0.5667 -0.0442  0.0878
13349TIP3    H161538   1.005   4.848  13.314  0.3561 -0.8152  1.1618
13349TIP3    H261539   1.072   4.983  13.312 -0.4587 -0.3984 -0.6366
13350TIP3   OH261540   5.639   2.137   1.624 -0.4689  0.3899  0.2175
13350TIP3    H161541   5.586   2.102   1.695  0.5688 -0.3752  0.6356
13350TIP3    H261542   5.694   2.203   1.665 -0.2658  0.3514  0.0087
13351TIP3   OH261543   1.651   0.695   1.778  0.0012  0.1753  0.2532
13351TIP3    H161544   1.738   0.710   1.741  0.9512  0.5799  2.4682
13351TIP3    H261545   1.599   0.661   1.706  1.6933  0.9617 -1.4104
13352TIP3   OH261546   4.823   4.945   2.893  0.3270 -0.4730  0.7481
13352TIP3    H161547   4.829   5.003   2.817  0.6075 -0.5402  0.7170
13352TIP3    H261548   4.834   5.003   2.968 -1.8125 -0.0969  0.8497
13353TIP3   OH261549   1.088   2.139  10.872  0.3466 -0.3843 -0.3102
13353TIP3    H161550   1.127   2.138  10.785 -2.1034 -2.9196 -1.5214
13353TIP3    H261551   1.000   2.175  10.860  0.0392 -0.5317  1.1889
13354TIP3   OH261552   3.697   0.383   1.023 -0.4100 -0.4731  0.2072
13354TIP3    H161553   3.761   0.338   1.077  0.4189  0.5056  0.0629
13354TIP3    H261554   3.725   0.474   1.023 -1.3675 -0.1630 -0.4884
13355TIP3   OH261555   1.237   2.565   6.150  0.3132  0.7922 -0.4445
13355TIP3    H161556   1.206   2.645   6.192  0.2220  0.4839  0.0816
13355TIP3    H261557   1.158   2.523   6.118  0.3202  0.6852 -0.3192
13356TIP3   OH261558   3.442   4.955   4.987  0.4463 -0.0058 -0.3109
13356TIP3    H161559   3.492   4.955   4.905  0.9534  0.1809 -0.0022
13356TIP3    H261560   3.366   4.899   4.968  0.4527  0.1939 -0.9725
13357TIP3   OH261561   2.551   2.628  11.328  0.4738  0.4872 -0.3609
13357TIP3    H161562   2.508   2.657  11.247 -2.8174  0.4013  1.1771
13357TIP3    H261563   2.499   2.553  11.357  2.9899 -0.9629  0.6871
13358TIP3   OH261564   3.141   2.514   3.144  0.2630  0.9229 -0.5263
13358TIP3    H161565   3.045   2.512   3.139  0.2327  2.5125 -1.1734
13358TIP3    H261566   3.161   2.594   3.192  1.2675  0.5021 -0.2164
13359TIP3   OH261567   5.563   4.354  13.865  0.1393 -0.2236 -0.3082
13359TIP3    H161568   5.606   4.435  13.839  1.1045 -0.7124 -0.2989
13359TIP3    H261569   5.503   4.334  13.793  0.8902 -0.1993 -0.9549
13360TIP3   OH261570   4.472   2.796   2.588 -0.1220 -0.4673 -0.4866
13360TIP3    H161571   4.553   2.747   2.597 -0.0162 -0.8134 -2.7789
13360TIP3    H261572   4.492   2.866   2.527 -1.6466 -0.9142 -1.5874
13361TIP3   OH261573   3.118   2.497  11.455  0.0289 -0.3808 -0.5089
13361TIP3    H161574   3.049   2.546  11.500 -1.7324 -0.0503 -3.3277
13361TIP3    H261575   3.197   2.551  11.468 -0.9009  0.8771  0.1740
13362TIP3   OH261576   6.020   2.611  15.974  0.2964  0.6567 -0.3763
13362TIP3    H161577   6.000   2.682  16.036 -2.3334 -1.3072  1.2487
13362TIP3    H261578   6.029   2.533  16.029 -0.5731 -0.9055 -2.3158
13363TIP3   OH261579   0.176   4.850   5.969  0.2122  0.1455  0.2742
13363TIP3    H161580   0.220   4.928   6.002 -0.2836  0.2040  0.8038
13363TIP3    H261581   0.083   4.864   5.988 -0.6099  1.5643 -3.6988
13364TIP3   OH261582   6.455   0.078   0.172  0.1423 -0.2721  0.4489
13364TIP3    H161583   6.389   0.010   0.181  0.3349 -0.4906  0.2412
13364TIP3    H261584   6.514   0.046   0.104  0.6416 -0.2277  0.8498
13365TIP3   OH261585   4.438   2.565   2.943  0.0060  0.0247 -0.0352
13365TIP3    H161586   4.481   2.566   3.028 -0.7099 -0.2447  0.3378
13365TIP3    H261587   4.434   2.657   2.917 -0.8292  0.2375  0.7821
13366TIP3   OH261588   5.767   4.105   1.055  0.2508  0.0472 -0.3917
13366TIP3    H161589   5.748   4.158   0.977 -1.8380 -2.3526 -1.6439
13366TIP3    H261590   5.698   4.130   1.117 -0.1795 -0.5019 -0.6403
13367TIP3   OH261591   0.771   3.033  11.775 -0.0505 -0.5013 -0.6140
13367TIP3    H161592   0.843   2.980  11.741 -0.6465 -1.1587 -0.8727
13367TIP3    H261593   0.696   2.973  11.777 -0.1247 -0.3903  1.5558
13368TIP3   OH261594   4.538   2.172   4.334  0.0387  0.2808 -0.1558
13368TIP3    H161595   4.483   2.150   4.409  2.9023  3.1515  3.1267
13368TIP3    H261596   4.519   2.264   4.316  1.9076  0.6268 -0.5616
13369TIP3   OH261597   0.110   2.788  13.276  0.4888  0.1437  0.0197
13369TIP3    H161598   0.033   2.778  13.333  0.7252 -0.1821  0.2863
13369TIP3    H261599   0.151   2.701  13.276 -0.0125 -0.1314 -1.3762
13370TIP3   OH261600   4.453   2.359   1.449 -0.8128  0.5410  0.0599
13370TIP3    H161601   4.424   2.268   1.459  1.4789 -0.4478 -1.3866
13370TIP3    H261602   4.391   2.398   1.388 -0.8633 -0.5956 -0.6476
13371TIP3   OH261603   0.217   1.227  12.889  0.0984  0.1583 -0.1739
13371TIP3    H161604   0.275   1.176  12.945  0.4792  0.8046  0.0229
13371TIP3    H261605   0.151   1.163  12.859  1.4764 -0.8285 -1.2378
13372TIP3   OH261606   0.639   5.112   2.873 -0.0405 -0.3117 -0.3847
13372TIP3    H161607   0.659   5.205   2.880  3.0423 -0.9330  0.8451
13372TIP3    H261608   0.633   5.096   2.778 -1.0603  1.1527 -0.6006
13373TIP3   OH261609   0.985   6.172  15.634 -0.2210 -0.0186  0.3292
13373TIP3    H161610   0.937   6.251  15.657  0.7520  0.3106  1.3115
13373TIP3    H261611   0.954   6.106  15.696 -0.1226 -0.0657  0.3282
13374TIP3   OH261612   1.059   3.939   4.325 -0.4430 -0.7196 -0.4098
13374TIP3    H161613   1.044   3.995   4.249  1.6613 -1.5816 -1.5341
13374TIP3    H261614   0.991   3.873   4.321 -2.5500  1.2657  0.5457
13375TIP3   OH261615   4.026   1.861  12.529 -0.1074  0.4118  0.3059
13375TIP3    H161616   4.068   1.925  12.586  1.5269  0.0213 -0.3966
13375TIP3    H261617   4.044   1.777  12.570  0.4783  0.1854 -0.3851
13376TIP3   OH261618   0.978   1.453   0.451  0.3375 -0.1490 -0.5704
13376TIP3    H161619   0.965   1.417   0.363  0.7096 -0.8845 -0.3362
13376TIP3    H261620   0.951   1.382   0.510 -0.1683  0.4351 -0.0900
13377TIP3   OH261621   6.524   3.455  11.645  0.0289  0.6333  0.1072
13377TIP3    H161622   6.520   3.463  11.740 -1.1453  0.9814  0.0496
13377TIP3    H261623   6.479   3.373  11.626  1.0114  0.1315 -0.1076
13378TIP3   OH261624   3.943   5.871   0.729  0.8642 -0.3605  0.2237
13378TIP3    H161625   3.972   5.780   0.716  0.7653 -0.3607 -0.0019
13378TIP3    H261626   4.021   5.923   0.713  0.3975 -0.2387 -2.1167
13379TIP3   OH261627   6.509   4.975   3.130 -0.2129  0.3596  0.2206
13379TIP3    H161628   6.518   4.982   3.225 -0.2084  0.6873  0.1993
13379TIP3    H261629   6.539   4.887   3.109  0.5342  0.5600  0.4335
13380TIP3   OH261630   5.232   0.137   5.497 -0.0504  0.9218  0.3001
13380TIP3    H161631   5.252   0.064   5.438  0.4568  0.2521  1.2880
13380TIP3    H261632   5.297   0.204   5.474  0.8892  0.2230  0.8726
13381TIP3   OH261633   0.855   5.439  12.867  0.1657  0.1407 -0.6643
13381TIP3    H161634   0.854   5.411  12.775  2.0615 -0.8022 -0.4529
13381TIP3    H261635   0.763   5.445  12.892 -0.3636 -0.8384 -2.2665
13382TIP3   OH261636   2.388   1.735   5.509  0.1483  0.1957  0.0411
13382TIP3    H161637   2.336   1.804   5.550 -0.1238 -1.2083  2.2463
13382TIP3    H261638   2.456   1.782   5.460 -1.5094  2.0270 -0.6616
13383TIP3   OH261639   5.962   6.801  11.217  0.2517 -0.0458 -0.4727
13383TIP3    H161640   5.956   6.892  11.188 -0.8343 -0.4173 -1.4940
13383TIP3    H261641   5.882   6.785  11.265  0.9769 -0.1377  0.7454
13384TIP3   OH261642   1.118   6.196  14.181 -0.3459  0.2824  0.4560
13384TIP3    H161643   1.053   6.257  14.216 -0.3815  0.5293 -0.0361
13384TIP3    H261644   1.108   6.202  14.086 -1.2671 -1.4694  0.4026
13385TIP3   OH261645   5.152   0.824  13.002  0.2412 -0.6586  0.1026
13385TIP3    H161646   5.057   0.820  12.998  0.0107 -1.8558  3.4871
13385TIP3    H261647   5.171   0.913  13.033  0.0653 -0.9133  0.9839
13386TIP3   OH261648   1.966   3.834  11.822 -0.1559 -0.1312  0.1390
13386TIP3    H161649   1.912   3.876  11.888 -0.5116  0.8792 -0.7637
13386TIP3    H261650   2.056   3.851  11.850 -0.3027  0.3921  0.2960
13387TIP3   OH261651   5.048   5.126  11.020 -0.6239  0.1819  0.3575
13387TIP3    H161652   5.055   5.174  11.102 -0.9950 -2.7485  2.2748
13387TIP3    H261653   4.954   5.120  11.004 -0.5506  2.3551 -1.4563
13388TIP3   OH261654   6.752   1.148   4.313  0.1667 -0.2146 -0.0474
13388TIP3    H161655   6.804   1.228   4.325 -0.7749  0.4713 -0.4518
13388TIP3    H261656   6.663   1.173   4.337 -0.0586 -1.2820  0.2889
13389TIP3   OH261657   3.936   2.751  12.048 -0.0285 -0.0170  0.3181
13389TIP3    H161658   3.952   2.702  12.128  0.1037  0.3542  0.5199
13389TIP3    H261659   3.840   2.753  12.041 -0.0586  0.5163  0.8228
13390TIP3   OH261660   6.016   6.601  13.261 -0.0803 -0.4594  0.7441
13390TIP3    H161661   5.940   6.657  13.274  0.0762 -0.1351  0.2889
13390TIP3    H261662   6.080   6.631  13.326  0.5134  0.8232 -0.3688
13391TIP3   OH261663   4.396   5.539  10.359 -0.2879 -0.0875 -0.2224
13391TIP3    H161664   4.381   5.584  10.442 -0.0595  0.6455 -0.5728
13391TIP3    H261665   4.315   5.554  10.309  0.0329  0.4738 -0.5797
13392TIP3   OH261666   0.901   1.036  13.636  0.4565  0.3366 -0.3043
13392TIP3    H161667   0.958   0.961  13.623  0.4690 -0.0912  1.9290
13392TIP3    H261668   0.953   1.111  13.606  1.0306 -0.3438 -1.0775
13393TIP3   OH261669   2.995   0.176  15.368 -0.2344  0.4467 -0.0564
13393TIP3    H161670   2.924   0.139  15.420 -0.0930  0.5777  0.2338
13393TIP3    H261671   3.073   0.127  15.395 -0.6498 -1.6990 -2.4311
13394TIP3   OH261672   1.560   0.968   4.057  0.0449 -0.0944  0.3695
13394TIP3    H161673   1.596   0.880   4.065 -0.0182 -0.0949  0.6792
13394TIP3    H261674   1.606   1.018   4.125 -1.3405 -0.3605  1.5535
13395TIP3   OH261675   3.095   0.817  12.058 -0.1479  0.2575  0.9661
13395TIP3    H161676   3.046   0.751  12.009 -1.0563 -0.7060  3.0311
13395TIP3    H261677   3.038   0.894  12.058 -0.0156  0.3563  0.2917
13396TIP3   OH261678   4.713   0.174  11.650 -0.5679 -0.0846  0.1778
13396TIP3    H161679   4.648   0.217  11.594 -0.0883 -0.8371 -1.0174
13396TIP3    H261680   4.790   0.231  11.645 -0.7377  0.1929  0.6327
13397TIP3   OH261681   5.261   1.919   2.268  0.4821 -0.3247 -0.2640
13397TIP3    H161682   5.276   1.864   2.191  0.7171  2.0203 -2.0191
13397TIP3    H261683   5.210   1.993   2.235 -1.1466 -0.1806  2.2967
13398TIP3   OH261684   2.438   3.664   0.571  0.4542  0.5183  0.0331
13398TIP3    H161685   2.486   3.733   0.525 -0.2810  1.2098  0.3012
13398TIP3    H261686   2.347   3.691   0.567  0.3055  0.2306  1.3055
13399TIP3   OH261687   1.475   4.960  11.396  0.0054 -0.2014 -0.3823
13399TIP3    H161688   1.514   5.048  11.392 -0.7151  0.1148 -0.6711
13399TIP3    H261689   1.522   4.910  11.329 -1.1799  0.6397 -1.9050
13400TIP3   OH261690   4.016   0.648  12.857  0.0621 -0.0430 -1.0891
13400TIP3    H161691   3.993   0.572  12.911  1.3949 -0.2470 -0.7491
13400TIP3    H261692   3.958   0.718  12.886  1.2644  0.0857  1.2101
13401TIP3   OH261693   0.994   4.870  11.388  0.3016 -0.0964 -0.7896
13401TIP3    H161694   0.920   4.810  11.381  0.5926 -0.3583 -1.7640
13401TIP3    H261695   1.069   4.813  11.403  0.5474  0.0396 -1.5041
13402TIP3   OH261696   0.180   4.951  15.159 -0.4370 -0.2816 -0.0750
13402TIP3    H161697   0.190   5.044  15.181  0.2364 -0.1217 -0.9856
13402TIP3    H261698   0.240   4.906  15.219  1.8963  0.2044 -1.8750
13403TIP3   OH261699   0.879   2.861   0.306 -0.1561 -0.3479  0.5805
13403TIP3    H161700   0.968   2.869   0.272  0.1445 -0.7746  1.2275
13403TIP3    H261701   0.862   2.944   0.350  0.1942 -0.5177  1.0503
13404TIP3   OH261702   0.104   0.121   3.435 -0.0099 -0.2603 -0.0373
13404TIP3    H161703   0.049   0.076   3.499  1.8110 -2.1731  0.2803
13404TIP3    H261704   0.099   0.213   3.461 -0.6608 -0.7576  1.8191
13405TIP3   OH261705   3.242   0.128   1.465  0.1719 -0.0030 -0.4318
13405TIP3    H161706   3.296   0.068   1.413 -0.4480 -0.0061 -1.0754
13405TIP3    H261707   3.234   0.207   1.411 -0.3225  0.0629 -0.2636
13406TIP3   OH261708   4.517   0.805   3.678 -0.0619 -0.0561 -0.4519
13406TIP3    H161709   4.429   0.844   3.680  0.1108  0.3874  2.4551
13406TIP3    H261710   4.567   0.864   3.621 -0.7203  1.9888  0.9564
13407TIP3   OH261711   3.843   0.919  16.391  0.1931  0.2361 -0.2898
13407TIP3    H161712   3.876   1.007  16.373 -1.2334  1.0693  0.9020
13407TIP3    H261713   3.890   0.862  16.330  2.7917  1.4991  0.3934
13408TIP3   OH261714   2.063   5.868   1.861  0.0703 -0.5936 -0.0568
13408TIP3    H161715   2.089   5.833   1.946 -0.8874 -3.2219 -0.7383
13408TIP3    H261716   1.967   5.859   1.859 -0.0101  0.2356 -1.0855
13409TIP3   OH261717   6.205   4.282   0.703 -0.1564 -0.6820 -0.2197
13409TIP3    H161718   6.259   4.291   0.782  0.6459  0.1721 -0.8301
13409TIP3    H261719   6.187   4.372   0.677 -0.6670 -0.9582 -0.8394
13410TIP3   OH261720   0.325   6.182   2.139  0.2027  0.3376  0.4481
13410TIP3    H161721   0.412   6.222   2.134  0.8892 -0.6949  2.8275
13410TIP3    H261722   0.265   6.256   2.141  1.1357  1.1194  0.5194
13411TIP3   OH261723   2.613   2.871  15.951  0.2106  0.2091  0.1539
13411TIP3    H161724   2.683   2.936  15.953  0.9588 -0.4252 -2.1955
13411TIP3    H261725   2.616   2.830  16.037  1.9081  1.0572  0.5418
13412TIP3   OH261726   1.241   2.529   4.134  0.1298 -0.5236  0.0018
13412TIP3    H161727   1.192   2.591   4.082  0.1194 -0.1724  0.4220
13412TIP3    H261728   1.187   2.515   4.212  1.0274  0.4599  0.8361
13413TIP3   OH261729   3.437   3.899  14.939  0.2900  0.0517 -0.5278
13413TIP3    H161730   3.503   3.943  14.886  0.5052  0.4072  0.0225
13413TIP3    H261731   3.483   3.827  14.981  0.2139  0.0087 -0.5174
13414TIP3   OH261732   2.085   4.372   1.168 -0.7181 -0.5019 -0.0191
13414TIP3    H161733   2.121   4.284   1.163 -1.2784 -0.7106 -0.5160
13414TIP3    H261734   2.138   4.416   1.234  0.8964 -0.5729 -1.1994
13415TIP3   OH261735   1.128   2.261  17.262  0.2099 -0.4531  0.1253
13415TIP3    H161736   1.035   2.256  17.239  0.1743 -0.1035  0.1917
13415TIP3    H261737   1.171   2.200  17.202  0.1710  0.7133 -1.1568
13416TIP3   OH261738   3.322   4.224   0.421 -0.9441 -0.1023  0.1930
13416TIP3    H161739   3.414   4.230   0.449 -0.5547  1.4171 -1.2952
13416TIP3    H261740   3.322   4.155   0.354 -1.5112 -2.2609  2.2457
13417TIP3   OH261741   5.150   4.323  13.476 -1.1141  0.3682  0.7490
13417TIP3    H161742   5.174   4.242  13.430  0.9998  1.0384  0.5685
13417TIP3    H261743   5.056   4.313  13.494 -1.4711 -1.0102 -1.4742
13418TIP3   OH261744   1.628   2.992   6.772 -0.0881 -0.2861  0.1879
13418TIP3    H161745   1.547   3.014   6.725 -0.8772 -1.7726  0.7886
13418TIP3    H261746   1.634   3.058   6.841 -0.3557  0.3039 -0.3380
13419TIP3   OH261747   0.577   5.007   1.598  0.3520 -0.4236  0.7065
13419TIP3    H161748   0.637   4.941   1.633  0.0012 -0.1308  1.9065
13419TIP3    H261749   0.512   5.020   1.667 -0.2105  0.3901  0.0499
13420TIP3   OH261750   6.427   4.858   0.913  0.5269 -0.2186  0.1029
13420TIP3    H161751   6.481   4.929   0.879 -1.2774  1.1780 -0.0118
13420TIP3    H261752   6.470   4.830   0.994  3.0236 -1.2704 -1.4786
13421TIP3   OH261753   1.953   0.076  16.319 -0.5014  0.1610 -0.2464
13421TIP3    H161754   1.909   0.016  16.378  0.5535  3.1396  4.0080
13421TIP3    H261755   1.892   0.148  16.307  0.7033  1.3237  0.3674
13422TIP3   OH261756   1.425   4.549   4.244 -0.3763  0.0949  0.4891
13422TIP3    H161757   1.454   4.476   4.189  0.8820  1.2074 -0.3937
13422TIP3    H261758   1.471   4.536   4.327  0.5565  0.3444  0.0296
13423TIP3   OH261759   1.097   4.935  16.142  0.2050 -0.7795 -0.2518
13423TIP3    H161760   1.165   4.956  16.206  0.2418  0.1143 -0.5744
13423TIP3    H261761   1.018   4.924  16.195  0.6060 -1.9329  0.1352
13424TIP3   OH261762   4.755   2.903  13.017  0.1320 -0.5730  0.3806
13424TIP3    H161763   4.723   2.976  13.071 -2.5521 -0.7674 -0.7849
13424TIP3    H261764   4.684   2.839  13.020  0.7408 -1.4124 -1.8210
13425TIP3   OH261765   5.909   4.043  14.142  0.2762  0.3174  0.2022
13425TIP3    H161766   5.818   4.018  14.159  0.8495 -0.9450  1.7009
13425TIP3    H261767   5.955   3.959  14.132  1.0268  0.9463 -2.2203
13426TIP3   OH261768   3.277   3.706   5.861 -0.0004 -0.0671 -0.1924
13426TIP3    H161769   3.360   3.753   5.858 -0.4583  0.7352 -1.1197
13426TIP3    H261770   3.241   3.725   5.948 -0.1418  1.2732 -0.5251
13427TIP3   OH261771   3.929   2.350  11.440 -0.2663 -0.0514 -0.6497
13427TIP3    H161772   3.935   2.366  11.345 -0.9371 -1.9027 -1.0407
13427TIP3    H261773   3.982   2.272  11.454 -2.5657 -1.6128 -0.0360
13428TIP3   OH261774   3.470   6.772  15.560 -0.1740  0.1790 -0.0618
13428TIP3    H161775   3.441   6.681  15.563 -1.9474  0.7336  1.3004
13428TIP3    H261776   3.556   6.772  15.603  0.4812 -1.0331 -1.3207
13429TIP3   OH261777   6.044   2.506  13.610  0.2359 -0.5676  0.4181
13429TIP3    H161778   6.017   2.489  13.701  0.9560 -0.3018  0.6845
13429TIP3    H261779   5.962   2.505  13.561 -0.0052 -2.6085  0.7501
13430TIP3   OH261780   6.199   2.793   3.251  0.4240 -0.0173  0.2069
13430TIP3    H161781   6.142   2.860   3.290  1.5819 -0.4269  2.8346
13430TIP3    H261782   6.142   2.744   3.193 -1.3914  0.8923  1.1325
13431TIP3   OH261783   0.814   2.885   1.685  0.3413 -0.1748  0.8005
13431TIP3    H161784   0.825   2.915   1.775 -1.0344 -0.3871  1.0589
13431TIP3    H261785   0.734   2.832   1.687 -0.0378  0.2952 -0.6613
13432TIP3   OH261786   4.125   1.198  12.564 -0.4675 -0.5239  0.8993
13432TIP3    H161787   4.120   1.227  12.473 -0.8955 -1.6941  0.5378
13432TIP3    H261788   4.161   1.273  12.611 -1.5534  0.5955  0.0046
13433TIP3   OH261789   3.593   3.083  14.859  0.3995  0.2302 -0.4089
13433TIP3    H161790   3.632   3.041  14.782  0.2922 -1.5873  0.4811
13433TIP3    H261791   3.637   3.167  14.865  2.8677 -0.9605 -0.5325
13434TIP3   OH261792   2.840   6.186  12.319  0.1307  0.1634 -0.0687
13434TIP3    H161793   2.839   6.154  12.409 -1.0685  0.1726 -0.0733
13434TIP3    H261794   2.930   6.171  12.290  0.4383 -0.1679  1.0090
13435TIP3   OH261795   2.823   4.743  17.014 -0.1088  0.0787  0.4454
13435TIP3    H161796   2.746   4.801  17.012  0.0878  0.3511  0.6150
13435TIP3    H261797   2.897   4.802  16.996  0.0003 -0.2919 -0.3661
13436TIP3   OH261798   2.288   6.069  10.609 -0.1124  0.2867 -0.5459
13436TIP3    H161799   2.348   5.995  10.616  0.7840  0.9548 -0.9536
13436TIP3    H261800   2.270   6.094  10.699  1.8027  1.3048 -0.4017
13437TIP3   OH261801   1.686   6.618   1.639 -0.0973 -0.4857  0.4858
13437TIP3    H161802   1.769   6.600   1.593  0.2659  0.5828  0.7001
13437TIP3    H261803   1.619   6.594   1.576  0.3959  0.8532 -0.6053
13438TIP3   OH261804   5.623   5.052  16.332  0.2084 -0.2833 -0.3679
13438TIP3    H161805   5.660   4.998  16.263 -1.9798 -2.3825 -0.0335
13438TIP3    H261806   5.533   5.068  16.305  0.1717  1.4498  0.5988
13439TIP3   OH261807   1.438   4.396   0.655 -0.0152  0.0236 -0.4120
13439TIP3    H161808   1.493   4.361   0.725 -1.3245  2.2181  1.8979
13439TIP3    H261809   1.472   4.484   0.640 -0.3148 -0.1022 -1.9696
13440TIP3   OH261810   0.884   2.726  12.081  0.2713 -0.3241 -0.1037
13440TIP3    H161811   0.802   2.704  12.037  0.5473 -1.2238 -0.1785
13440TIP3    H261812   0.892   2.821  12.070 -0.6111 -0.2679 -0.3442
13441TIP3   OH261813   0.996   2.474   3.444  0.0599 -0.2897 -0.1651
13441TIP3    H161814   1.021   2.397   3.392  2.3123 -1.9033  3.0156
13441TIP3    H261815   0.916   2.447   3.489  0.3136 -0.3978  0.2199
13442TIP3   OH261816   4.191   0.266   6.438 -0.2606  0.1655  0.0550
13442TIP3    H161817   4.173   0.249   6.530  0.5482  0.1564  0.2105
13442TIP3    H261818   4.135   0.203   6.392  0.2249 -0.6524  0.5629
13443TIP3   OH261819   5.426   4.412   1.448  0.1723 -0.2731  0.0956
13443TIP3    H161820   5.379   4.425   1.531 -0.9443 -0.3547 -0.4920
13443TIP3    H261821   5.472   4.495   1.433  1.1526 -0.5855  1.2411
13444TIP3   OH261822   0.755   3.770   0.621 -0.1184 -0.6929 -0.4743
13444TIP3    H161823   0.790   3.682   0.628  0.8822 -0.2325  0.4507
13444TIP3    H261824   0.781   3.814   0.702 -0.6394  0.4401 -0.8909
13445TIP3   OH261825   4.484   1.056  11.791  1.0279 -0.5187  0.0014
13445TIP3    H161826   4.529   1.086  11.870  0.2922 -0.9564  0.5965
13445TIP3    H261827   4.551   1.061  11.723  1.0843  2.0176  0.1409
13446TIP3   OH261828   3.585   5.350  11.912 -0.6050 -0.4405 -0.2436
13446TIP3    H161829   3.634   5.359  11.830  0.4870 -0.4810  0.3863
13446TIP3    H261830   3.555   5.259  11.912 -2.2362  0.0477 -1.4568
13447TIP3   OH261831   4.016   3.917   0.607 -0.3320  0.5733  0.5634
13447TIP3    H161832   3.937   3.906   0.660 -1.1676  1.0496 -0.5626
13447TIP3    H261833   3.988   3.901   0.517  0.4549  2.4656 -0.0673
13448TIP3   OH261834   1.833   4.874  16.557  0.3296 -0.3272 -0.4403
13448TIP3    H161835   1.904   4.834  16.608 -1.1730 -1.4684  0.8496
13448TIP3    H261836   1.871   4.887  16.470  3.3025  2.5189  1.0535
13449TIP3   OH261837   1.267   2.272  13.206 -0.4291  0.7208  0.0675
13449TIP3    H161838   1.187   2.286  13.155 -0.2328  0.6895 -0.2571
13449TIP3    H261839   1.296   2.184  13.181 -0.6404  0.4797  0.6731
13450TIP3   OH261840   4.195   5.310   1.585  0.4289  0.1509 -0.5910
13450TIP3    H161841   4.273   5.254   1.587  1.9899  2.1178 -1.8826
13450TIP3    H261842   4.156   5.292   1.499 -1.1685 -1.5362  0.4323
13451TIP3   OH261843   0.735   0.933  15.562 -0.5283  0.0315  0.2944
13451TIP3    H161844   0.674   0.869  15.524 -1.2876  0.8488  0.0938
13451TIP3    H261845   0.742   1.002  15.496  0.1664  0.2245  0.5684
13452TIP3   OH261846   0.177   0.973   3.570  0.3740 -0.8052 -0.9530
13452TIP3    H161847   0.120   0.934   3.636 -0.6179  0.6209 -0.9211
13452TIP3    H261848   0.166   0.917   3.493  2.7482 -3.4371  0.4429
13453TIP3   OH261849   2.145   0.774  12.637  0.0096 -0.0094  0.0570
13453TIP3    H161850   2.107   0.861  12.649  0.5587  0.6009 -2.2016
13453TIP3    H261851   2.173   0.748  12.724 -1.0473  1.6569  0.9430
13454TIP3   OH261852   0.489   0.438   4.674 -0.6643 -0.6480 -0.0243
13454TIP3    H161853   0.395   0.442   4.656 -0.3677 -0.4968 -1.6262
13454TIP3    H261854   0.528   0.502   4.615  0.4224 -0.3535  0.9636
13455TIP3   OH261855   4.908   2.920  15.975  0.0853 -0.3949 -0.4478
13455TIP3    H161856   4.957   2.839  15.988 -0.6128 -0.7944 -0.2296
13455TIP3    H261857   4.970   2.979  15.932  0.8414 -0.7800  0.0914
13456TIP3   OH261858   1.302   6.020  12.159 -0.4127  0.0375  0.1084
13456TIP3    H161859   1.296   5.991  12.069  0.1881 -2.7673  0.8807
13456TIP3    H261860   1.248   5.958  12.209 -0.3898  1.2468  1.7482
13457TIP3   OH261861   4.538   4.983   2.804  0.1413 -0.0071  0.1567
13457TIP3    H161862   4.577   5.013   2.886  0.6537 -0.6715  0.1651
13457TIP3    H261863   4.588   5.027   2.736 -2.1975  2.9546  0.1601
13458TIP3   OH261864   5.932   6.113  11.232  0.5584  0.4043 -0.3896
13458TIP3    H161865   5.917   6.019  11.246 -0.5605  0.4683 -1.0142
13458TIP3    H261866   5.980   6.142  11.310  1.3934 -0.7820 -0.4257
13459TIP3   OH261867   3.214   0.677   2.161  0.5880 -0.4147 -0.5215
13459TIP3    H161868   3.299   0.685   2.204  0.2640 -2.1554  0.5108
13459TIP3    H261869   3.150   0.686   2.231 -0.1339  1.0510 -1.3127
13460TIP3   OH261870   1.715   2.290   0.681 -0.6343 -0.1042 -0.7968
13460TIP3    H161871   1.648   2.359   0.683 -2.1563 -1.5572  0.4673
13460TIP3    H261872   1.669   2.210   0.707  1.6300 -1.1496  0.2771
13461TIP3   OH261873   1.220   1.542   2.666  0.0089  0.1112 -0.4549
13461TIP3    H161874   1.127   1.537   2.688 -0.0269  0.9943 -0.3365
13461TIP3    H261875   1.244   1.454   2.640 -0.6321 -0.3466  0.4461
13462TIP3   OH261876   3.699   6.105  13.866  0.1559  0.5411  0.0696
13462TIP3    H161877   3.620   6.083  13.916  0.5648 -0.0510  0.4722
13462TIP3    H261878   3.683   6.067  13.779  0.1415  0.1078  0.2576
13463TIP3   OH261879   0.933   2.013  15.128  0.5198 -0.3912 -0.2197
13463TIP3    H161880   0.934   1.950  15.056  0.1716 -0.5390 -0.0957
13463TIP3    H261881   0.915   1.961  15.206 -2.3026  0.1435 -0.4046
13464TIP3   OH261882   1.241   2.786   5.025 -0.4941 -0.4428  0.0604
13464TIP3    H161883   1.194   2.858   5.067  0.4936  0.3021 -0.0657
13464TIP3    H261884   1.319   2.774   5.080 -0.0761 -0.6375 -0.5667
13465TIP3   OH261885   6.229   6.562  14.600  0.0520  0.5377 -0.1186
13465TIP3    H161886   6.164   6.492  14.604  0.8734 -0.2754 -0.5635
13465TIP3    H261887   6.240   6.579  14.507 -1.9644  3.0562 -0.0019
13466TIP3   OH261888   5.520   6.109  12.822 -0.0467 -0.4878  0.9277
13466TIP3    H161889   5.580   6.035  12.830 -0.0798 -0.6774 -0.2665
13466TIP3    H261890   5.450   6.077  12.764  0.5784  0.8215 -0.6484
13467TIP3   OH261891   0.583   0.491   6.252 -0.4164  0.7141  0.8701
13467TIP3    H161892   0.490   0.467   6.254  0.0613 -1.3265  0.9351
13467TIP3    H261893   0.600   0.514   6.161 -1.0083  1.3023  0.8982
13468TIP3   OH261894   0.322   0.046  13.899  0.8975 -0.2829  0.3839
13468TIP3    H161895   0.346   0.041  13.992  0.2765 -1.2932  0.5014
13468TIP3    H261896   0.302  -0.044  13.874  0.4230  0.0678 -0.5628
13469TIP3   OH261897   1.282   0.414   1.855  0.2251 -0.3854  0.2499
13469TIP3    H161898   1.360   0.458   1.821  1.3142 -0.9403  1.8986
13469TIP3    H261899   1.292   0.419   1.950 -2.8015  1.3445  0.5898
13470TIP3   OH261900   4.477   4.259   1.562 -0.3999  0.4064  0.7410
13470TIP3    H161901   4.554   4.215   1.527 -0.1680  0.3239  1.3512
13470TIP3    H261902   4.479   4.241   1.656 -0.0001  2.1495  1.1000
13471TIP3   OH261903   4.594   4.103  13.554 -0.0060 -0.2271 -0.0767
13471TIP3    H161904   4.540   4.079  13.478 -1.1782 -0.8332  0.9008
13471TIP3    H261905   4.673   4.141  13.517 -0.6926 -0.2135 -1.5941
13472TIP3   OH261906   1.425   5.910  14.863  0.5835 -0.1405 -0.1796
13472TIP3    H161907   1.352   5.956  14.823  0.9199 -0.0589 -0.7176
13472TIP3    H261908   1.393   5.882  14.949  0.9225  2.6771  0.9807
13473TIP3   OH261909   5.304   6.637  10.963 -0.0652  0.4310  0.1000
13473TIP3    H161910   5.307   6.728  10.993  0.4702  0.8456 -1.1433
13473TIP3    H261911   5.344   6.639  10.876 -2.7683 -0.4893 -1.2575
13474TIP3   OH261912   1.488   1.897   2.235 -0.0157  0.2748  0.0167
13474TIP3    H161913   1.563   1.917   2.291  1.1796 -1.0655 -1.0360
13474TIP3    H261914   1.465   1.981   2.195  0.6606  0.7741  0.6590
13475TIP3   OH261915   1.825   6.654  13.513 -0.0891 -0.3021 -0.2506
13475TIP3    H161916   1.781   6.574  13.483  1.5975 -0.8629 -1.3906
13475TIP3    H261917   1.823   6.712  13.436 -0.3397  0.3208  0.2221
13476TIP3   OH261918   6.808   5.547   6.145 -0.2521 -0.6074 -0.1519
13476TIP3    H161919   6.844   5.636   6.144  0.0448 -0.7118  0.5005
13476TIP3    H261920   6.721   5.555   6.105 -1.4350  0.5124  2.4540
13477TIP3   OH261921   3.859   3.709   2.701  0.2023 -0.2033 -0.1267
13477TIP3    H161922   3.907   3.667   2.630  1.2249  0.0222  0.4070
13477TIP3    H261923   3.927   3.734   2.764 -0.8657 -4.4345  3.1708
13478TIP3   OH261924   3.141   1.421  14.419  0.1824 -0.7067  0.2822
13478TIP3    H161925   3.076   1.481  14.382  1.6879  0.9289  0.1825
13478TIP3    H261926   3.226   1.457  14.392  1.1918 -2.0055  1.5470
13479TIP3   OH261927   2.280   0.230   2.473 -0.0555 -0.1259  0.5447
13479TIP3    H161928   2.242   0.177   2.403  1.6414  0.4492 -0.8891
13479TIP3    H261929   2.285   0.318   2.436  1.3569  0.0905  1.1853
13480TIP3   OH261930   6.001   5.189   5.648 -0.1412  0.5194  0.4667
13480TIP3    H161931   5.922   5.218   5.695 -0.8673 -1.0398  0.2553
13480TIP3    H261932   6.059   5.156   5.716  0.9291  2.8387  0.7761
13481TIP3   OH261933   5.238   3.127   3.269 -0.2006 -0.3264 -0.1814
13481TIP3    H161934   5.271   3.192   3.207  2.1782 -1.2962 -0.0397
13481TIP3    H261935   5.300   3.130   3.342 -1.6151 -0.8584  1.0845
13482TIP3   OH261936   4.503   2.852  13.742 -0.0889 -0.5335  0.2302
13482TIP3    H161937   4.595   2.856  13.715 -0.4850 -2.8775 -1.9727
13482TIP3    H261938   4.505   2.836  13.836  1.7588 -0.4321  0.2316
13483TIP3   OH261939   6.694   1.104  12.129 -0.0131  0.2240 -0.2382
13483TIP3    H161940   6.744   1.165  12.183 -1.9068  1.2451  0.4462
13483TIP3    H261941   6.751   1.086  12.054  1.5378  0.9611  0.7218
13484TIP3   OH261942   5.549   3.471   0.086  0.6261  0.5611 -0.1726
13484TIP3    H161943   5.502   3.475   0.002  0.0356  1.2912  0.1872
13484TIP3    H261944   5.639   3.496   0.064  0.3619  1.2281 -0.5072
13485TIP3   OH261945   2.446   2.520   3.506  0.4900 -0.3564 -0.1166
13485TIP3    H161946   2.360   2.554   3.481 -0.0066  0.1448  2.0778
13485TIP3    H261947   2.442   2.427   3.484 -1.2946 -0.7287  1.4657
13486TIP3   OH261948   6.593   4.684  15.948  0.9540 -0.3523 -0.3450
13486TIP3    H161949   6.637   4.600  15.960  0.2417 -0.8811 -1.3048
13486TIP3    H261950   6.500   4.662  15.938  0.8602  0.4451 -1.5540
13487TIP3   OH261951   4.176   3.979  17.215 -0.4188  0.0146 -0.1162
13487TIP3    H161952   4.257   3.945  17.253 -0.5214  0.1292  0.2035
13487TIP3    H261953   4.111   3.970  17.285 -0.4949  0.6808 -0.0983
13488TIP3   OH261954   1.217   4.089  16.237 -0.3393  0.2935 -0.0340
13488TIP3    H161955   1.301   4.043  16.225  0.0405  0.8091  0.5979
13488TIP3    H261956   1.161   4.026  16.282 -1.7333 -1.6372 -3.9967
13489TIP3   OH261957   1.892   3.289  15.395 -0.5729  0.1267 -0.4352
13489TIP3    H161958   1.816   3.318  15.445  1.3441 -0.3830  3.0719
13489TIP3    H261959   1.880   3.195  15.385 -0.1688 -0.0609  0.6887
13490TIP3   OH261960   5.847   0.352  13.879  0.1293  0.4094 -0.0186
13490TIP3    H161961   5.809   0.283  13.824 -1.1963  0.6927  0.5165
13490TIP3    H261962   5.941   0.348  13.860  0.0876 -1.4876 -0.0623
13491TIP3   OH261963   6.667   5.421  16.472 -0.0547 -0.0672 -0.4001
13491TIP3    H161964   6.676   5.515  16.454 -0.3457  0.6321  2.6519
13491TIP3    H261965   6.616   5.388  16.397 -0.7112  2.3714 -1.1275
13492TIP3   OH261966   3.084   2.319  16.308  0.4533 -0.3635 -0.1955
13492TIP3    H161967   3.032   2.250  16.266 -1.7063  1.1218 -0.0978
13492TIP3    H261968   3.120   2.276  16.386  1.7129 -2.1883 -1.6700
13493TIP3   OH261969   0.500   0.041  15.518  0.1088 -0.1690 -0.1652
13493TIP3    H161970   0.432   0.018  15.454  0.8143  0.2054 -1.0639
13493TIP3    H261971   0.471  -0.000  15.599 -0.5618 -1.0669 -0.8391
13494TIP3   OH261972   2.226   0.979  10.997 -0.4654  0.5319 -0.6422
13494TIP3    H161973   2.201   0.887  11.003 -4.2584  1.4468  0.3737
13494TIP3    H261974   2.173   1.014  10.925 -0.4487  2.2870  0.1368
13495TIP3   OH261975   1.161   3.323  12.963  0.2701  0.0132 -0.2515
13495TIP3    H161976   1.087   3.288  13.014  0.3258 -2.3722 -1.6596
13495TIP3    H261977   1.225   3.350  13.029 -0.5294 -0.9671  0.9751
13496TIP3   OH261978   6.696   0.146  13.227  0.6105 -0.3808  0.0967
13496TIP3    H161979   6.642   0.067  13.214  1.6509 -0.7537 -2.4063
13496TIP3    H261980   6.765   0.118  13.287  1.5034 -1.7211 -1.4695
13497TIP3   OH261981   0.886   3.039   1.006  0.1763  0.7078  0.2042
13497TIP3    H161982   0.852   3.108   0.948  0.5258  0.4630 -0.2997
13497TIP3    H261983   0.809   3.006   1.051  0.0303  1.5550  0.5884
13498TIP3   OH261984   5.102   4.872   3.074  0.2506 -0.0269 -0.5413
13498TIP3    H161985   5.109   4.881   2.979 -1.1272 -0.8764 -0.7442
13498TIP3    H261986   5.173   4.813   3.098  0.8602  0.5158 -0.9750
13499TIP3   OH261987   4.227   3.653   4.898 -0.4731 -0.4512 -0.2362
13499TIP3    H161988   4.246   3.693   4.983 -2.4019  1.6517 -0.7235
13499TIP3    H261989   4.183   3.571   4.920 -0.3379 -0.2731  0.7775
13500TIP3   OH261990   5.530   3.921   1.072  0.0712 -0.1102  0.3152
13500TIP3    H161991   5.463   3.855   1.088  0.8831 -0.5835  2.0961
13500TIP3    H261992   5.567   3.939   1.159  0.6797  1.8373 -0.2776
13501TIP3   OH261993   5.310   0.298  16.217 -0.1451 -0.5910 -0.4003
13501TIP3    H161994   5.240   0.330  16.274  1.5016  2.1539  0.2969
13501TIP3    H261995   5.269   0.287  16.131 -1.3299  1.6235 -0.1784
13502TIP3   OH261996   1.882   5.765   4.647 -0.1140  0.2406 -0.1423
13502TIP3    H161997   1.802   5.778   4.596  0.7884  0.4763 -1.5602
13502TIP3    H261998   1.879   5.834   4.714 -2.3129 -1.3193  1.5327
13503TIP3   OH261999   1.899   3.794   3.919  0.2854  0.0473 -0.0382
13503TIP3    H162000   1.885   3.715   3.867  1.3389  0.6208 -1.2609
13503TIP3    H262001   1.831   3.791   3.986 -0.7630 -1.0333 -1.0919
13504TIP3   OH262002   5.710   4.355   5.059  0.4934 -0.1809  0.1141
13504TIP3    H162003   5.715   4.439   5.013  2.9228  0.3751  1.1921
13504TIP3    H262004   5.799   4.340   5.091 -0.1408 -2.6050  0.9880
13505TIP3   OH262005   5.948   6.163   3.782  0.2425 -0.1534 -0.1762
13505TIP3    H162006   5.954   6.074   3.818  1.6113  0.2524  0.6905
13505TIP3    H262007   6.023   6.170   3.723  1.0673  0.8932  0.9293
13506TIP3   OH262008   2.771   3.237   2.590  0.0450  0.5153 -0.4497
13506TIP3    H162009   2.814   3.152   2.579 -0.7423 -0.0562  0.6089
13506TIP3    H262010   2.689   3.229   2.540 -0.6264  0.1619  0.6637
13507TIP3   OH262011   3.807   2.682  16.000  0.2336 -0.1448 -0.0745
13507TIP3    H162012   3.878   2.713  16.056  0.1351  1.6933 -0.9035
13507TIP3    H262013   3.768   2.609  16.049 -1.1790  2.6001  3.3066
13508TIP3   OH262014   4.678   5.467  16.046 -0.0504  0.5488 -0.3384
13508TIP3    H162015   4.651   5.392  15.993 -0.4457  0.6751 -0.3177
13508TIP3    H262016   4.727   5.428  16.119  0.4628  0.3733 -0.7645
13509TIP3   OH262017   4.100   4.880  16.318 -0.2532 -0.4161 -0.3998
13509TIP3    H162018   4.194   4.885  16.335  0.0974 -1.5699 -1.8381
13509TIP3    H262019   4.066   4.830  16.392  0.7983 -2.8069 -1.4212
13510TIP3   OH262020   1.342   1.966  11.715 -0.0634  0.8784 -0.0758
13510TIP3    H162021   1.320   1.875  11.735  1.1413  0.7900  0.9601
13510TIP3    H262022   1.387   1.997  11.794  0.6793  1.9808 -0.9192
13511TIP3   OH262023   0.964   2.765  17.112 -0.2871 -0.1494 -0.3759
13511TIP3    H162024   1.038   2.792  17.168  0.8295  0.2975 -2.0005
13511TIP3    H262025   0.986   2.676  17.086 -0.1864  0.0689 -1.0528
13512TIP3   OH262026   2.590   3.334   3.166  0.3185 -0.0007  0.5361
13512TIP3    H162027   2.541   3.302   3.091 -0.4142 -0.5452  1.2313
13512TIP3    H262028   2.647   3.261   3.191  0.2144  0.0025  0.7939
13513TIP3   OH262029   4.218   4.760  14.904  0.6228 -0.1780  0.4549
13513TIP3    H162030   4.157   4.817  14.857 -1.4366 -1.5626  1.3129
13513TIP3    H262031   4.285   4.738  14.839 -0.5340  0.2893 -0.9519
13514TIP3   OH262032   0.385   0.669  14.044 -0.4809 -0.2621 -0.4641
13514TIP3    H162033   0.296   0.664  14.079 -0.1809  0.3009  0.4183
13514TIP3    H262034   0.404   0.579  14.017 -1.3432 -0.3728 -0.7489
13515TIP3   OH262035   3.684   2.620   4.911 -0.0495  0.0527  0.3193
13515TIP3    H162036   3.638   2.539   4.935  0.4763 -1.0384 -2.0849
13515TIP3    H262037   3.670   2.629   4.816  0.1509  2.6543  0.4473
13516TIP3   OH262038   2.640   5.446   4.016  0.2140  0.5015 -0.2919
13516TIP3    H162039   2.558   5.405   3.988  0.3917  0.3658 -0.6271
13516TIP3    H262040   2.618   5.492   4.097 -0.0689  0.0122 -0.0829
13517TIP3   OH262041   3.908   1.609   4.453 -0.0015  0.0114  0.2281
13517TIP3    H162042   3.903   1.612   4.357 -0.4530 -1.2281  0.1919
13517TIP3    H262043   3.994   1.569   4.470  0.3002  0.7072  0.3572
13518TIP3   OH262044   4.563   4.653  13.303 -0.4684  0.4334 -0.2322
13518TIP3    H162045   4.652   4.676  13.277  0.6290 -0.8492  2.0421
13518TIP3    H262046   4.521   4.736  13.322  0.8367  0.9921  0.3472
13519TIP3   OH262047   6.249   0.027  16.562  0.1604  0.0829 -0.1707
13519TIP3    H162048   6.297   0.084  16.622 -0.1551  1.0967 -0.8633
13519TIP3    H262049   6.209  -0.039  16.619  0.3195  0.6950  0.6720
13520TIP3   OH262050   2.873   0.846  16.348  0.1450  0.9386 -0.0373
13520TIP3    H162051   2.871   0.865  16.255  0.3359  2.2315  0.1958
13520TIP3    H262052   2.783   0.821  16.370 -0.2859  2.1815 -0.2918
13521TIP3   OH262053   6.523   3.141  12.675 -0.0244  0.1919 -0.0418
13521TIP3    H162054   6.478   3.156  12.758 -0.3974 -0.0683 -0.1954
13521TIP3    H262055   6.615   3.131  12.699 -0.2493 -0.7771  0.4359
13522TIP3   OH262056   0.539   1.683  14.067  0.5668  0.4184 -0.3365
13522TIP3    H162057   0.528   1.667  14.161  0.6107  3.7532  0.3614
13522TIP3    H262058   0.455   1.659  14.029 -0.1363  0.7977  0.8934
13523TIP3   OH262059   4.369   6.276  11.772  0.0540 -0.1542  1.2234
13523TIP3    H162060   4.367   6.313  11.861  1.7715 -0.3879  1.3979
13523TIP3    H262061   4.414   6.342  11.720  0.4574 -0.6860  0.8821
13524TIP3   OH262062   0.809   5.878  16.874  0.3081  0.2537 -0.7237
13524TIP3    H162063   0.816   5.922  16.959 -0.4313 -2.2459  0.7348
13524TIP3    H262064   0.866   5.801  16.882 -0.3144 -0.4040 -2.2345
13525TIP3   OH262065   6.413   6.480  10.837 -0.2412 -0.0716  0.4256
13525TIP3    H162066   6.431   6.415  10.769 -0.6069  0.2993 -0.0454
13525TIP3    H262067   6.462   6.557  10.809  0.7952 -0.3708  1.3785
13526TIP3   OH262068   5.343   4.889   3.431 -0.9788 -0.5227 -0.1848
13526TIP3    H162069   5.374   4.977   3.454 -1.2372 -0.4370 -0.1566
13526TIP3    H262070   5.333   4.844   3.514 -0.8083 -0.5918 -0.2020
13527TIP3   OH262071   0.451   3.062  15.246 -0.1462 -0.5038 -0.0724
13527TIP3    H162072   0.442   3.061  15.341  1.9028  1.2900  0.2087
13527TIP3    H262073   0.511   2.990  15.226 -1.4059 -1.5711 -0.1783
13528TIP3   OH262074   0.454   2.268  14.726  0.2114  0.5023 -0.0125
13528TIP3    H162075   0.549   2.279  14.717 -0.0732  2.3879 -1.1438
13528TIP3    H262076   0.443   2.220  14.808  2.1239  0.4131  0.2306
13529TIP3   OH262077   2.018   0.478  12.802 -0.1758 -0.4437  0.1660
13529TIP3    H162078   2.054   0.556  12.844  1.1425 -0.7033 -0.4379
13529TIP3    H262079   2.082   0.455  12.735 -1.7658 -0.5825 -1.3810
13530TIP3   OH262080   5.228   2.988  15.440 -0.2790 -0.1743  0.0935
13530TIP3    H162081   5.269   2.955  15.521 -0.3213  0.6376  0.4615
13530TIP3    H262082   5.217   2.911  15.385 -1.4152 -0.9655  1.3658
13531TIP3   OH262083   4.936   1.091  12.008 -0.5000 -0.5826  0.0901
13531TIP3    H162084   4.847   1.073  11.980 -0.5625  1.7550 -1.5081
13531TIP3    H262085   4.928   1.164  12.069  0.3596  0.0793 -0.5682
13532TIP3   OH262086   2.154   2.673   4.848 -0.2812  0.0408 -0.0220
13532TIP3    H162087   2.159   2.743   4.913  0.1202 -0.0633  0.0665
13532TIP3    H262088   2.113   2.600   4.894  1.8930 -0.7533  0.7950
13533TIP3   OH262089   2.693   6.521  16.435 -0.5951 -0.3078  0.1196
13533TIP3    H162090   2.731   6.489  16.517  0.0845 -2.5746 -0.9990
13533TIP3    H262091   2.748   6.596  16.411 -0.3004 -0.1149  1.3154
13534TIP3   OH262092   3.117   6.591  13.807 -0.0792  0.2837 -0.4817
13534TIP3    H162093   3.067   6.668  13.834  1.5477  1.7254 -1.3285
13534TIP3    H262094   3.162   6.619  13.727 -0.0452 -1.8363 -1.2877
13535TIP3   OH262095   1.473   1.364   6.155 -0.2560  0.1048 -0.0621
13535TIP3    H162096   1.427   1.309   6.218 -0.2922 -1.5069 -1.4174
13535TIP3    H262097   1.504   1.303   6.088  1.3604  1.5194 -0.6778
13536TIP3   OH262098   0.209   6.041   2.917 -0.2801  0.2553 -0.1419
13536TIP3    H162099   0.152   6.026   2.842  1.6739 -0.9714 -1.4779
13536TIP3    H262100   0.155   6.022   2.994 -1.4430 -1.5850 -1.3705
13537TIP3   OH262101   4.820   4.217  11.359 -0.2462 -0.2135  0.0922
13537TIP3    H162102   4.909   4.230  11.328 -0.3982  0.3188 -0.1463
13537TIP3    H262103   4.815   4.125  11.383  0.8843  0.1372  1.8130
13538TIP3   OH262104   4.821   3.528  13.169  0.2452  0.2805  0.0781
13538TIP3    H162105   4.844   3.562  13.256  0.4041  1.6626 -0.4813
13538TIP3    H262106   4.881   3.455  13.155 -0.1567 -0.3333  1.3554
13539TIP3   OH262107   3.556   6.805  12.104  0.2239  0.3439 -0.0160
13539TIP3    H162108   3.477   6.777  12.151  0.8189  0.1226  0.8796
13539TIP3    H262109   3.563   6.899  12.124 -0.2990  0.5666 -0.8346
13540TIP3   OH262110   2.900   3.120  17.188 -0.1762 -0.2020  0.6833
13540TIP3    H162111   2.924   3.080  17.271 -0.0751 -0.5357  0.4952
13540TIP3    H262112   2.875   3.210  17.210 -0.1547 -0.2924  1.0703
13541TIP3   OH262113   5.220   6.800  10.652  0.1510  0.2192  0.3170
13541TIP3    H162114   5.270   6.880  10.666  0.7434 -0.4708  2.6744
13541TIP3    H262115   5.141   6.828  10.606  0.6808  2.0193  0.4413
13542TIP3   OH262116   1.522   1.344  13.433 -0.7714  0.1686  0.4991
13542TIP3    H162117   1.582   1.298  13.374 -1.1182 -0.6068  0.7385
13542TIP3    H262118   1.443   1.290  13.433 -0.7342  0.0806  1.7788
13543TIP3   OH262119   2.029   6.571   1.265  0.2029 -0.5335 -0.2775
13543TIP3    H162120   2.012   6.499   1.326  0.4859 -0.4264 -0.0665
13543TIP3    H262121   1.962   6.562   1.197 -1.2048  0.3328  0.9297
13544TIP3   OH262122   1.796   0.422   6.715 -0.4829  0.0430 -0.1341
13544TIP3    H162123   1.730   0.457   6.775 -1.3373 -1.3086 -0.2426
13544TIP3    H262124   1.814   0.495   6.655  0.0107  1.2457  1.4085
13545TIP3   OH262125   1.451   3.600   0.867 -0.5265 -0.3390  0.2474
13545TIP3    H162126   1.519   3.646   0.917 -0.2680  0.1583 -0.5444
13545TIP3    H262127   1.499   3.541   0.809 -0.6812  0.8938 -1.1947
13546TIP3   OH262128   4.274   1.239  13.457 -0.6673  0.2888 -0.6919
13546TIP3    H162129   4.355   1.220  13.504 -1.5710  1.6980  1.6027
13546TIP3    H262130   4.257   1.160  13.406  0.8369 -1.0125  0.7071
13547TIP3   OH262131   6.280   4.442  11.744 -0.3339  1.1433  0.2857
13547TIP3    H162132   6.254   4.481  11.827  0.2919  0.3839  0.8594
13547TIP3    H262133   6.370   4.473  11.731 -0.0001  0.3097  0.5128
13548TIP3   OH262134   0.315   2.291  13.135  0.5004  0.3429 -0.1277
13548TIP3    H162135   0.381   2.343  13.181 -0.6820 -0.0099  2.0994
13548TIP3    H262136   0.366   2.220  13.094  1.6644  0.9398  0.2284
13549TIP3   OH262137   5.641   2.909  15.281  0.0619 -0.0264  0.4306
13549TIP3    H162138   5.732   2.884  15.267  0.3359  1.2320 -0.2493
13549TIP3    H262139   5.594   2.876  15.204  0.1764  0.3899  0.1805
13550TIP3   OH262140   5.374   0.188   0.991  0.8101 -0.0963 -0.3025
13550TIP3    H162141   5.312   0.257   0.966  0.5280 -0.6593 -1.2146
13550TIP3    H262142   5.422   0.168   0.911  1.2280 -0.6163  0.0688
13551TIP3   OH262143   6.353   3.908   0.331 -0.5740 -0.1142 -0.0387
13551TIP3    H162144   6.270   3.863   0.347 -0.1927 -0.3182  1.4994
13551TIP3    H262145   6.415   3.868   0.392  0.3812  0.8074 -0.3710
13552TIP3   OH262146   2.531   4.062  14.868 -0.3309  0.4285 -0.6416
13552TIP3    H162147   2.547   4.133  14.931 -0.7771  1.1614 -1.3393
13552TIP3    H262148   2.618   4.033  14.843 -0.1359 -0.2193  0.6797
13553TIP3   OH262149   1.114   2.141   0.575  0.3531  0.2678  0.3780
13553TIP3    H162150   1.050   2.103   0.515 -0.1611  0.0162  1.0692
13553TIP3    H262151   1.199   2.116   0.539  0.0410 -0.5678  0.1923
13554TIP3   OH262152   1.482   4.680  15.307 -0.4452 -0.0698 -0.3795
13554TIP3    H162153   1.554   4.647  15.254 -1.1732 -1.5599 -0.4759
13554TIP3    H262154   1.409   4.690  15.246 -0.3124  1.5871 -0.3177
13555TIP3   OH262155   0.494   1.458  13.759 -0.5401 -0.4893 -0.4119
13555TIP3    H162156   0.444   1.465  13.840  1.3796 -4.0920  1.3384
13555TIP3    H262157   0.578   1.499  13.779 -0.1026 -1.2870 -0.5746
13556TIP3   OH262158   4.345   0.598  11.195  0.0815 -0.1428  0.0511
13556TIP3    H162159   4.316   0.515  11.158 -0.6054  0.2338 -0.2699
13556TIP3    H262160   4.300   0.602  11.280 -0.7907  0.4172 -0.4246
13557TIP3   OH262161   5.815   3.711   0.347 -0.3706  0.2796 -0.1332
13557TIP3    H162162   5.905   3.684   0.326  0.3341  0.4346  2.3555
13557TIP3    H262163   5.822   3.804   0.367 -1.4470  0.7004 -1.6120
13558TIP3   OH262164   3.158   1.298   4.938 -0.0651 -0.5575  0.0753
13558TIP3    H162165   3.135   1.333   4.852  0.1687 -0.8864 -0.1208
13558TIP3    H262166   3.137   1.370   4.998  0.5256 -0.0198 -0.3377
13559TIP3   OH262167   5.746   4.990   2.104  0.5416 -0.4422 -0.0421
13559TIP3    H162168   5.809   5.062   2.094 -0.9842  0.9897  0.0668
13559TIP3    H262169   5.721   4.968   2.015  1.4515 -1.2743 -0.1028
13560TIP3   OH262170   6.113   0.130   1.374 -0.2547  0.3046 -0.1306
13560TIP3    H162171   6.123   0.036   1.388 -1.8860  0.0578 -0.4166
13560TIP3    H262172   6.034   0.153   1.424  0.5457  1.6749  0.5634
13561TIP3   OH262173   0.584   4.714   0.359 -0.2185  0.1694 -0.5952
13561TIP3    H162174   0.625   4.783   0.306 -1.1698  0.2165 -1.2851
13561TIP3    H262175   0.575   4.640   0.299 -0.3039 -0.1578 -0.1851
13562TIP3   OH262176   2.041   2.004   6.314 -0.6962  0.0971  0.1638
13562TIP3    H162177   2.082   1.922   6.286  0.9912  0.5438  1.1736
13562TIP3    H262178   2.047   2.061   6.237  0.0473 -0.0602  0.0933
13563TIP3   OH262179   4.295   1.314   3.990 -0.5006 -1.1456 -0.6372
13563TIP3    H162180   4.322   1.324   4.081 -2.2266 -0.1547 -0.1864
13563TIP3    H262181   4.202   1.295   3.994 -0.4659 -1.7932 -2.1904
13564TIP3   OH262182   0.469   3.712   2.584  0.1501  0.2073 -0.0398
13564TIP3    H162183   0.525   3.749   2.653 -0.2482  0.3555  0.2032
13564TIP3    H262184   0.393   3.678   2.631  0.2144 -0.3436 -0.3296
13565TIP3   OH262185   3.255   0.688  15.452 -0.1136  0.2386 -0.0512
13565TIP3    H162186   3.197   0.615  15.470  0.8238 -0.3663  0.6484
13565TIP3    H262187   3.309   0.696  15.531  0.5310  0.9803 -0.5472
13566TIP3   OH262188   2.079   1.602  12.661 -0.0830 -0.0755 -0.2064
13566TIP3    H162189   2.104   1.682  12.615 -1.5124  1.3382  1.3660
13566TIP3    H262190   2.121   1.611  12.747  0.5801 -1.5354 -0.3515
13567TIP3   OH262191   1.568   6.066  12.905  0.3150  0.1936  0.4036
13567TIP3    H162192   1.558   6.153  12.866 -2.1777  0.3276  1.1794
13567TIP3    H262193   1.592   6.010  12.832  2.0098  1.5078 -0.1090
13568TIP3   OH262194   0.058   3.380   1.261 -0.1084 -0.3833  0.2596
13568TIP3    H162195   0.062   3.452   1.323  1.2615  1.5120 -1.9016
13568TIP3    H262196  -0.025   3.393   1.214  0.6549  0.5138 -0.8915
13569TIP3   OH262197   0.078   6.266  15.324  0.0786  0.1672 -0.2292
13569TIP3    H162198   0.008   6.264  15.258  0.0817  0.7816 -0.2564
13569TIP3    H262199   0.153   6.227  15.279 -0.0692  0.0811 -0.4054
13570TIP3   OH262200   1.710   3.347   0.039  0.3770  0.3540  0.2489
13570TIP3    H162201   1.707   3.298   0.122 -1.6640  0.7666  0.4759
13570TIP3    H262202   1.797   3.386   0.037  1.6432 -2.2473  0.6548
13571TIP3   OH262203   2.120   2.608  14.560  0.0284 -0.1769 -0.0071
13571TIP3    H162204   2.067   2.528  14.556 -0.1328 -0.1768  1.6353
13571TIP3    H262205   2.094   2.657  14.482 -1.0210 -1.0315 -0.2215
13572TIP3   OH262206   5.252   3.297   2.077  0.5210  0.0774 -1.1056
13572TIP3    H162207   5.261   3.216   2.027  1.2933 -1.0773  0.7716
13572TIP3    H262208   5.195   3.352   2.024 -0.8301 -2.0704 -2.0329
13573TIP3   OH262209   2.634   6.492   0.920  0.1250 -0.0944  0.3061
13573TIP3    H162210   2.574   6.499   0.846  0.8664  1.3675 -0.1846
13573TIP3    H262211   2.616   6.405   0.957 -2.8694  0.5817  0.6985
13574TIP3   OH262212   4.017   3.358  12.596  0.0632  0.2879  0.3394
13574TIP3    H162213   4.050   3.294  12.658  1.5662 -0.9009 -1.5763
13574TIP3    H262214   3.948   3.312  12.548  1.0596  0.0759 -0.9606
13575TIP3   OH262215   3.980   4.053  13.601 -0.4897 -0.1960  0.2491
13575TIP3    H162216   3.980   4.046  13.505 -0.8438 -1.9611  0.3429
13575TIP3    H262217   3.896   4.015  13.628  0.1097 -0.8002  1.3237
13576TIP3   OH262218   0.475   3.147   2.023 -0.1446 -0.9916 -0.1583
13576TIP3    H162219   0.534   3.106   1.960  2.1039  0.5717  0.7779
13576TIP3    H262220   0.519   3.135   2.107 -1.0752  0.3685  0.5564
13577TIP3   OH262221   5.832   1.318  13.703 -0.1503 -0.1156 -0.0786
13577TIP3    H162222   5.901   1.323  13.769  1.8110  1.3790 -2.0545
13577TIP3    H262223   5.819   1.225  13.688  0.0646 -0.4489  1.6653
13578TIP3   OH262224   6.398   5.402   0.092 -0.3939 -0.0908  0.6640
13578TIP3    H162225   6.491   5.415   0.074 -0.5089 -0.2225 -0.0659
13578TIP3    H262226   6.391   5.408   0.187  0.4774 -0.8520  0.7923
13579TIP3   OH262227   6.436   3.952   1.574 -0.3873 -0.7757  0.1376
13579TIP3    H162228   6.472   3.874   1.615 -1.2480 -1.4416 -0.3380
13579TIP3    H262229   6.352   3.966   1.618 -0.0375  0.1633  0.5391
13580TIP3   OH262230   5.641   0.756   5.876  0.2611 -0.1585 -0.2594
13580TIP3    H162231   5.701   0.831   5.874 -1.0522  0.9450 -0.5988
13580TIP3    H262232   5.604   0.758   5.964 -0.6241  0.3303 -0.6258
13581TIP3   OH262233   5.994   5.912   0.725 -0.2996  0.3918 -0.1881
13581TIP3    H162234   5.961   5.948   0.808  0.6140  0.9942 -0.0711
13581TIP3    H262235   5.967   5.976   0.659  0.6121  0.8918 -0.0910
13582TIP3   OH262236   0.365   2.124   1.368 -0.2548  0.0067  0.3467
13582TIP3    H162237   0.370   2.032   1.343  1.5063 -0.2891  1.5523
13582TIP3    H262238   0.344   2.170   1.287 -2.4737 -1.5170 -0.0414
13583TIP3   OH262239   5.118   3.640  14.048 -0.1946 -0.5215  0.0269
13583TIP3    H162240   5.179   3.692  14.099 -1.6854  0.7913  0.5620
13583TIP3    H262241   5.101   3.693  13.970 -0.5456 -0.9273 -0.1752
13584TIP3   OH262242   0.268   0.393  13.618 -0.1932 -0.0488  0.0589
13584TIP3    H162243   0.174   0.377  13.611 -0.0268 -0.7071 -1.0512
13584TIP3    H262244   0.301   0.379  13.529  0.7418  1.6473  0.0963
13585TIP3   OH262245   6.156   0.489   0.711  0.8764 -0.1517 -0.6492
13585TIP3    H162246   6.098   0.459   0.641  0.0552  1.5622 -0.7430
13585TIP3    H262247   6.131   0.436   0.786 -1.3636  0.9955 -0.4918
13586TIP3   OH262248   5.275   2.585   5.441 -0.2982 -0.6432  0.3138
13586TIP3    H162249   5.209   2.579   5.510 -0.0846 -0.8508  0.5039
13586TIP3    H262250   5.230   2.558   5.362 -0.1623 -1.8157  0.6232
13587TIP3   OH262251   0.377   0.928   3.743 -0.1354  0.4007  0.1050
13587TIP3    H162252   0.314   0.925   3.671  0.4764 -0.9410 -0.4163
13587TIP3    H262253   0.328   0.965   3.816 -1.1615  0.5456 -0.6303
13588TIP3   OH262254   4.803   4.334  16.278 -0.3844  0.3324  0.1346
13588TIP3    H162255   4.780   4.404  16.217  0.3535  0.5846  0.1326
13588TIP3    H262256   4.896   4.319  16.263 -0.8903 -1.9681 -1.1960
13589TIP3   OH262257   5.879   0.886   5.857  0.2159 -0.1785  0.2775
13589TIP3    H162258   5.935   0.929   5.792  0.4134 -0.3361  0.3439
13589TIP3    H262259   5.912   0.797   5.863 -1.3917 -0.9612 -1.2771
13590TIP3   OH262260   3.450   1.090   2.353  1.0156 -0.2184 -0.1416
13590TIP3    H162261   3.476   1.002   2.327  0.8085 -0.0672 -0.8875
13590TIP3    H262262   3.417   1.080   2.443  1.1652 -0.8615 -0.1539
13591TIP3   OH262263   1.631   3.001   1.291 -0.5126  0.4511 -0.1834
13591TIP3    H162264   1.642   3.091   1.262 -0.5223  0.4582 -0.1648
13591TIP3    H262265   1.677   2.997   1.376  0.9011  0.0308 -0.9338
13592TIP3   OH262266   0.979   1.641  11.970  0.0966  0.0110  0.4097
13592TIP3    H162267   1.028   1.559  11.962 -1.3394 -0.8327 -0.1726
13592TIP3    H262268   0.901   1.627  11.916 -0.1977  1.7594  0.3309
13593TIP3   OH262269   3.146   0.573   0.290 -0.3184  0.0492 -1.0351
13593TIP3    H162270   3.131   0.497   0.347 -1.7616 -0.2402 -1.7642
13593TIP3    H262271   3.215   0.545   0.230 -0.9479 -0.7741 -1.3982
13594TIP3   OH262272   1.018   3.611   4.001 -0.0179 -1.0202  0.2060
13594TIP3    H162273   0.966   3.560   3.939 -0.1540 -0.8314  0.1627
13594TIP3    H262274   1.093   3.641   3.951 -0.4241 -0.3744 -0.0348
13595TIP3   OH262275   6.026   6.076   6.374 -0.3596  0.6296  0.1078
13595TIP3    H162276   6.073   6.152   6.409 -0.3419  0.4158  0.5528
13595TIP3    H262277   5.939   6.110   6.354 -0.7605  0.4815  1.5101
13596TIP3   OH262278   0.936   1.143   4.326 -0.8024 -0.2279 -0.4602
13596TIP3    H162279   0.938   1.195   4.406  0.9417 -1.1160  0.1386
13596TIP3    H262280   0.950   1.053   4.356 -0.4055 -0.6124 -1.7376
13597TIP3   OH262281   0.958   6.480  13.490  0.3721 -0.7644 -0.3687
13597TIP3    H162282   1.029   6.423  13.520  1.2222 -0.8672 -2.3702
13597TIP3    H262283   0.989   6.569  13.511  0.6682 -0.8656 -0.3636
13598TIP3   OH262284   0.315   1.371  16.101 -0.1371  0.0121 -0.7070
13598TIP3    H162285   0.249   1.427  16.141  1.2991  1.2022  0.0648
13598TIP3    H262286   0.398   1.415  16.118  0.9281 -1.7225 -1.1553
13599TIP3   OH262287   6.233   4.141  14.545  0.0647 -0.3979 -0.2495
13599TIP3    H162288   6.213   4.209  14.608 -0.8164 -0.5826 -0.3214
13599TIP3    H262289   6.185   4.064  14.576  1.5106 -1.1745  0.1642
13600TIP3   OH262290   4.432   3.299  15.399  0.5426 -0.4050  0.5342
13600TIP3    H162291   4.474   3.359  15.461  0.1349 -0.5665  0.9710
13600TIP3    H262292   4.339   3.303  15.420  0.4385 -0.7135  0.1497
13601TIP3   OH262293   5.415   3.668   1.758 -0.6632  0.2403 -0.4491
13601TIP3    H162294   5.358   3.652   1.834  1.7394 -4.4010  0.7984
13601TIP3    H262295   5.470   3.741   1.784 -1.7322  0.5669  1.0585
13602TIP3   OH262296   5.420   4.619   2.408 -0.0749 -0.0761  0.0229
13602TIP3    H162297   5.432   4.581   2.495 -0.1883 -0.2539 -0.0381
13602TIP3    H262298   5.329   4.600   2.386  0.2622 -1.0534 -0.6134
13603TIP3   OH262299   4.690   5.532   6.516 -0.0425  0.0151 -0.4086
13603TIP3    H162300   4.601   5.497   6.508  0.4737 -1.0534 -2.3510
13603TIP3    H262301   4.735   5.497   6.439  1.9588  0.8456  0.3359
13604TIP3   OH262302   6.711   2.179   1.252 -0.1023 -0.0369 -0.4021
13604TIP3    H162303   6.760   2.219   1.324  0.3776 -0.9298 -0.2052
13604TIP3    H262304   6.701   2.087   1.279 -1.1457 -0.0654 -0.8380
13605TIP3   OH262305   5.080   2.966  11.740 -0.3951 -0.2618  0.8476
13605TIP3    H162306   5.116   3.055  11.742 -1.6251  0.2542  0.5796
13605TIP3    H262307   5.098   2.931  11.828  0.5765  0.0381  0.7817
13606TIP3   OH262308   1.757   6.307   5.894 -0.1399 -0.1502  0.0054
13606TIP3    H162309   1.725   6.279   5.979 -0.1873 -0.1864 -0.0246
13606TIP3    H262310   1.766   6.402   5.902 -1.0841 -0.0263 -0.2662
13607TIP3   OH262311   4.176   3.516   5.351 -0.4526 -0.1365 -0.1839
13607TIP3    H162312   4.126   3.579   5.300 -1.8526 -0.4493  0.7284
13607TIP3    H262313   4.226   3.569   5.413 -3.3832  0.1421  2.1689
13608TIP3   OH262314   1.946   4.061  13.299  0.6201 -0.4468  0.5284
13608TIP3    H162315   1.900   3.994  13.249  0.5800 -0.5286  0.6738
13608TIP3    H262316   1.933   4.035  13.390  0.1640  0.0386  0.6056
13609TIP3   OH262317   1.790   6.612   3.097 -0.0294 -0.1333  0.1161
13609TIP3    H162318   1.761   6.550   3.031 -1.0906  0.6720 -0.2126
13609TIP3    H262319   1.727   6.602   3.169  1.1363 -1.0330  1.0531
13610TIP3   OH262320   6.470   4.502  11.260  0.1063 -0.3163 -0.1197
13610TIP3    H162321   6.456   4.582  11.312 -0.6209  0.6261 -1.6744
13610TIP3    H262322   6.546   4.522  11.206  0.4001 -0.9951  0.0355
13611TIP3   OH262323   1.609   3.228  12.211 -0.0498  0.3607  0.6530
13611TIP3    H162324   1.560   3.232  12.129  1.6272 -0.3849 -0.4360
13611TIP3    H262325   1.542   3.218  12.279 -1.4432  0.5110 -0.6552
13612TIP3   OH262326   5.060   4.178   4.113  0.0347 -0.1377 -0.0217
13612TIP3    H162327   5.048   4.130   4.031  0.3636 -3.4557  1.6849
13612TIP3    H262328   4.987   4.150   4.168 -0.6284  2.6318  0.6348
13613TIP3   OH262329   6.158   0.383   2.685  0.2240  0.4548 -0.0107
13613TIP3    H162330   6.224   0.359   2.749  0.9728  1.0026 -0.5643
13613TIP3    H262331   6.166   0.317   2.616  0.3782  0.6769 -0.2062
13614TIP3   OH262332   2.840   4.623   2.696 -0.2468 -0.3784 -0.3496
13614TIP3    H162333   2.825   4.621   2.791  0.8250  2.1261 -0.0607
13614TIP3    H262334   2.919   4.572   2.683  1.2772  1.6407  0.5558
13615TIP3   OH262335   1.758   1.035   5.622 -0.0573 -0.1304 -0.0591
13615TIP3    H162336   1.830   0.992   5.578 -1.0067 -0.5194 -1.2809
13615TIP3    H262337   1.768   1.128   5.602 -1.4386 -0.4568 -2.6585
13616TIP3   OH262338   3.880   5.810   3.920  0.0427 -0.4134 -0.7828
13616TIP3    H162339   3.793   5.832   3.953 -0.2535 -1.3178 -0.9389
13616TIP3    H262340   3.866   5.732   3.867  1.0623 -1.0339 -0.1762
13617TIP3   OH262341   6.670   3.114   4.626  0.2852  0.0688  0.2924
13617TIP3    H162342   6.606   3.074   4.685  1.2745 -0.5775  0.9662
13617TIP3    H262343   6.631   3.105   4.539  0.0916 -1.6254  0.5122
13618TIP3   OH262344   0.865   1.883  11.616  0.6650 -0.5119 -0.4491
13618TIP3    H162345   0.945   1.886  11.670  0.0115 -0.1293  0.5216
13618TIP3    H262346   0.855   1.973  11.584 -1.4172  0.4631  2.5476
13619TIP3   OH262347   4.831   2.833  15.251  0.0881 -0.0260  0.2153
13619TIP3    H162348   4.750   2.855  15.206  0.3079  0.7454  0.1831
13619TIP3    H262349   4.803   2.779  15.325 -0.7197  1.9940  1.4660
13620TIP3   OH262350   5.000   0.001   1.011 -0.0597  0.0280  0.2618
13620TIP3    H162351   5.076   0.016   0.954 -2.0494  3.5777 -1.8250
13620TIP3    H262352   4.955  -0.073   0.971 -0.0539  0.8481 -1.3861
13621TIP3   OH262353   0.340   5.748  12.366  0.6631 -0.3165 -0.0872
13621TIP3    H162354   0.429   5.715  12.377  1.2079  0.7759 -1.0626
13621TIP3    H262355   0.350   5.827  12.313 -0.6901  0.8451  1.2965
13622TIP3   OH262356   0.001   0.436  14.135 -0.0315 -0.1103 -0.3623
13622TIP3    H162357  -0.075   0.466  14.086 -0.2811 -1.6801 -0.9885
13622TIP3    H262358   0.061   0.401  14.069  0.2352 -0.9732  0.3098
13623TIP3   OH262359   2.426   4.191  12.119 -0.1484  0.4042 -0.4587
13623TIP3    H162360   2.438   4.267  12.175 -1.1176  1.7113 -1.9211
13623TIP3    H262361   2.496   4.197  12.054 -0.4882  0.3032 -0.8409
13624TIP3   OH262362   6.125   2.706   4.672  0.3027  0.6379  0.6064
13624TIP3    H162363   6.162   2.648   4.738 -1.3790 -1.1281  0.0738
13624TIP3    H262364   6.173   2.686   4.592 -0.1297  0.1240  0.4726
13625TIP3   OH262365   5.586   3.796  11.356  0.3771 -0.1227 -0.5121
13625TIP3    H162366   5.673   3.770  11.326  0.2850 -1.1729  0.0892
13625TIP3    H262367   5.577   3.756  11.443 -0.1046  1.2711  0.1107
13626TIP3   OH262368   2.931   3.652  13.097  0.6114  0.5458 -0.4983
13626TIP3    H162369   3.017   3.624  13.129  0.3321  0.2231 -0.0229
13626TIP3    H262370   2.933   3.748  13.106  0.9222  0.5409 -0.4946
13627TIP3   OH262371   0.274   5.319  11.499 -0.2782 -0.1453 -0.1923
13627TIP3    H162372   0.189   5.283  11.475 -0.6750  0.5080  0.1909
13627TIP3    H262373   0.291   5.284  11.587 -0.7135  0.6756  0.2234
13628TIP3   OH262374   6.109   3.240   4.091 -0.1282 -0.4486 -0.1809
13628TIP3    H162375   6.144   3.234   4.180  1.6413  3.1382 -0.4836
13628TIP3    H262376   6.046   3.312   4.094  1.3552  1.0333 -2.1430
13629TIP3   OH262377   3.059   3.609  16.776  0.4532 -0.1598 -0.1850
13629TIP3    H162378   3.081   3.698  16.751  2.2340 -0.4921  0.0063
13629TIP3    H262379   2.965   3.610  16.791  0.2018  1.3076 -1.6472
13630TIP3   OH262380   0.753   2.528   1.371 -0.8833 -0.3890 -0.4628
13630TIP3    H162381   0.777   2.437   1.355 -3.1423 -1.6084  2.1153
13630TIP3    H262382   0.836   2.575   1.376  0.3169 -2.1403 -2.4756
13631TIP3   OH262383   4.944   3.639  15.648  0.2156  0.5153  0.5261
13631TIP3    H162384   4.973   3.558  15.690  0.5087 -1.0401 -2.4635
13631TIP3    H262385   4.852   3.647  15.670  0.2154 -0.5660  0.9419
13632TIP3   OH262386   1.653   1.330   2.420 -0.1249 -0.4379  0.6620
13632TIP3    H162387   1.573   1.328   2.472 -2.0170 -0.5497 -2.0197
13632TIP3    H262388   1.678   1.238   2.413 -1.4966 -0.7535 -0.8157
13633TIP3   OH262389   0.903   2.330   5.897  0.0789 -0.2818 -0.1818
13633TIP3    H162390   0.911   2.235   5.888  2.6371 -0.1165 -0.2683
13633TIP3    H262391   0.891   2.361   5.807 -1.8120 -0.5371 -0.0634
13634TIP3   OH262392   2.289   6.205  13.649  0.2891 -0.0603  0.0157
13634TIP3    H162393   2.348   6.134  13.626  2.0865  2.0269 -2.5105
13634TIP3    H262394   2.313   6.229  13.738  1.9151 -0.5738 -0.2531
13635TIP3   OH262395   1.136   6.679  14.553  0.1988  0.1669  0.4179
13635TIP3    H162396   1.218   6.719  14.523 -0.3217 -0.0704 -1.3810
13635TIP3    H262397   1.078   6.682  14.477 -1.3026 -0.1471  1.5122
13636TIP3   OH262398   4.087   3.229  11.488 -0.3058  0.1889  0.0327
13636TIP3    H162399   4.098   3.145  11.443 -0.4189  0.0586  0.2477
13636TIP3    H262400   4.129   3.216  11.573 -1.8078 -0.1969  0.7283
13637TIP3   OH262401   5.604   6.465  16.263 -0.1742  0.4483 -0.4829
13637TIP3    H162402   5.543   6.445  16.192 -0.3838  0.9204 -0.4322
13637TIP3    H262403   5.550   6.498  16.334  0.1311  0.7980 -0.4095
13638TIP3   OH262404   3.734   2.646  17.212  0.3086 -0.2723 -0.5817
13638TIP3    H162405   3.754   2.587  17.285 -0.4400 -1.3270 -1.2033
13638TIP3    H262406   3.723   2.732  17.253 -0.3266 -0.8883  0.5960
13639TIP3   OH262407   1.149   3.847   3.686 -0.6355 -0.0649  0.6440
13639TIP3    H162408   1.060   3.834   3.719 -0.9013  1.3465  0.5514
13639TIP3    H262409   1.147   3.934   3.647  1.1990  0.6807  2.0834
13640TIP3   OH262410   2.314   5.137   3.445  0.1731 -0.4439 -1.0039
13640TIP3    H162411   2.299   5.205   3.379 -1.6183  0.8792  0.6499
13640TIP3    H262412   2.229   5.092   3.452  0.0743 -0.0018  0.9634
13641TIP3   OH262413   5.043   3.712  15.015 -0.4408 -0.1670 -0.0056
13641TIP3    H162414   4.995   3.664  14.947 -1.2138 -1.3963  1.3589
13641TIP3    H262415   5.071   3.645  15.077  0.1758  0.9295  0.9356
13642TIP3   OH262416   1.488   2.398  15.024 -0.2597 -0.0099 -0.1075
13642TIP3    H162417   1.494   2.332  15.093 -0.5725  1.4853  1.4133
13642TIP3    H262418   1.394   2.405  15.005 -0.0719 -1.7535 -2.1278
13643TIP3   OH262419   2.963   5.696   2.690  0.3767  0.6620 -0.0048
13643TIP3    H162420   2.997   5.665   2.606 -0.9631 -0.1678 -0.2707
13643TIP3    H262421   2.983   5.790   2.691 -0.0542  0.8025 -1.5068
13644TIP3   OH262422   5.852   5.705  15.635  1.0864 -0.2522 -0.1465
13644TIP3    H162423   5.860   5.717  15.540  1.7786  1.2612  0.0741
13644TIP3    H262424   5.758   5.710  15.653  1.0908  1.9625 -0.4927
13645TIP3   OH262425   6.735   4.196   1.534 -0.1011 -0.1242 -0.2303
13645TIP3    H162426   6.760   4.209   1.625 -0.7463 -2.3849  0.3478
13645TIP3    H262427   6.818   4.187   1.487  0.2285 -0.3549  0.3875
13646TIP3   OH262428   5.380   6.340  12.939  0.3691  0.8065 -0.1601
13646TIP3    H162429   5.442   6.272  12.912  0.8545  0.1620  2.2972
13646TIP3    H262430   5.317   6.295  12.995  0.6594  2.3137  1.4906
13647TIP3   OH262431   2.936   1.497   2.881 -0.1134 -0.7516 -0.2170
13647TIP3    H162432   2.984   1.432   2.933  0.3791 -0.2023  0.0221
13647TIP3    H262433   2.845   1.465   2.881  0.0486 -1.2215  0.2448
13648TIP3   OH262434   0.034   5.524  15.834  0.8200 -0.2133  0.4545
13648TIP3    H162435  -0.028   5.525  15.761  1.5569  0.7119 -0.1751
13648TIP3    H262436   0.044   5.432  15.856 -0.3207 -0.4186  0.1788
13649TIP3   OH262437   4.335   4.256  15.842  0.4506 -0.3991  0.4780
13649TIP3    H162438   4.421   4.218  15.862  0.0958 -1.7757 -0.4654
13649TIP3    H262439   4.305   4.293  15.925  2.6840  1.7023  0.4708
13650TIP3   OH262440   6.227   1.851   2.177 -0.2589  0.1079 -0.2604
13650TIP3    H162441   6.226   1.937   2.219 -1.2073 -0.6810  1.4369
13650TIP3    H262442   6.310   1.812   2.204 -1.6215 -1.1235  2.6425
13651TIP3   OH262443   6.488   5.406   3.371  0.2764 -0.1242  0.1008
13651TIP3    H162444   6.573   5.374   3.403  0.6523  1.0473  0.3624
13651TIP3    H262445   6.490   5.500   3.392 -1.4339 -0.2318  0.8433
13652TIP3   OH262446   1.553   1.999  14.203  0.6214 -0.0118 -0.1837
13652TIP3    H162447   1.531   1.907  14.218  1.3686 -0.2928 -0.7554
13652TIP3    H262448   1.620   1.997  14.135  0.0286  1.0045 -0.8285
13653TIP3   OH262449   0.991   3.222  11.625  0.3150 -0.4853 -0.3823
13653TIP3    H162450   1.004   3.140  11.578  0.1477  0.2403 -1.7593
13653TIP3    H262451   0.905   3.253  11.596  1.4288  1.4191 -1.9312
13654TIP3   OH262452   5.085   6.506   4.888 -0.2474  0.0869 -0.3353
13654TIP3    H162453   4.990   6.491   4.883 -0.1611 -1.4722  1.5326
13654TIP3    H262454   5.110   6.474   4.975  2.2489 -1.0888 -1.3823
13655TIP3   OH262455   6.630   3.863   6.354  0.2056 -0.0792 -1.0456
13655TIP3    H162456   6.631   3.917   6.433  1.9895 -1.1345 -0.2757
13655TIP3    H262457   6.538   3.841   6.341 -0.2476  1.0002  0.0921
13656TIP3   OH262458   3.979   4.855  13.970  0.3163  0.0200  0.1920
13656TIP3    H162459   3.908   4.822  13.915  0.1761  0.8785 -0.1558
13656TIP3    H262460   4.054   4.800  13.947  0.3318  0.5406 -1.0686
13657TIP3   OH262461   2.543   0.390   2.416 -0.6959 -0.0162  0.3390
13657TIP3    H162462   2.515   0.373   2.326 -0.3097 -1.5403  0.4928
13657TIP3    H262463   2.462   0.414   2.462 -0.6501  2.7484 -0.7931
13658TIP3   OH262464   4.184   1.802  17.145 -0.1642 -0.1186  0.1917
13658TIP3    H162465   4.171   1.785  17.051  2.3598  0.5929 -0.3671
13658TIP3    H262466   4.198   1.896  17.151 -4.7191  0.6794  1.9989
13659TIP3   OH262467   5.944   1.849   2.151 -1.0566  0.0457 -0.5580
13659TIP3    H162468   6.035   1.842   2.178 -1.6652 -0.6162  1.5371
13659TIP3    H262469   5.924   1.764   2.111 -0.7668  0.1554 -0.9292
13660TIP3   OH262470   1.619   2.283   1.247 -0.1308  0.3988  0.3277
13660TIP3    H162471   1.668   2.324   1.176  1.3358  1.8616  2.0585
13660TIP3    H262472   1.599   2.194   1.216 -0.9912  1.4802 -2.4802
13661TIP3   OH262473   5.326   6.376   5.754  0.2065 -0.4873 -0.9063
13661TIP3    H162474   5.335   6.306   5.819  0.5460 -0.0391 -0.4747
13661TIP3    H262475   5.379   6.448   5.787 -0.1460 -0.0138 -1.3487
13662TIP3   OH262476   4.642   3.090   4.908  0.0850  0.0422  0.1840
13662TIP3    H162477   4.682   3.168   4.870  1.9357  0.3885  2.5664
13662TIP3    H262478   4.564   3.122   4.953  0.7617  0.5611  1.0335
13663TIP3   OH262479   1.806   3.822  15.067  0.2608 -0.1385  0.0725
13663TIP3    H162480   1.857   3.837  15.146  0.8432 -0.8059 -0.1589
13663TIP3    H262481   1.869   3.834  14.995 -0.9273  3.5370 -0.5308
13664TIP3   OH262482   4.901   4.415   3.884  0.0822 -0.4281 -0.0671
13664TIP3    H162483   4.879   4.447   3.972  0.8769 -1.1220  0.3983
13664TIP3    H262484   4.820   4.375   3.853 -0.0328 -0.7460  0.6096
13665TIP3   OH262485   2.965   6.251  13.461 -0.3078  0.4800 -0.0089
13665TIP3    H162486   3.048   6.218  13.427  0.2159  1.1149  0.6294
13665TIP3    H262487   2.934   6.184  13.521  0.3944  0.8013  0.7338
13666TIP3   OH262488   5.602   3.005  13.505 -0.2404 -0.1163 -0.0227
13666TIP3    H162489   5.665   2.936  13.485 -0.0539  0.1771 -0.4513
13666TIP3    H262490   5.584   3.046  13.421  0.4442  1.0471  0.3769
13667TIP3   OH262491   3.150   5.757  16.490 -0.0195  0.4154  0.1455
13667TIP3    H162492   3.074   5.809  16.511  0.4557  1.3909 -0.4928
13667TIP3    H262493   3.125   5.708  16.411  0.1667  1.1028 -0.3511
13668TIP3   OH262494   2.508   5.841  12.844  0.0146  0.2320 -0.2363
13668TIP3    H162495   2.592   5.882  12.865 -0.6863  2.1752 -0.9090
13668TIP3    H262496   2.513   5.823  12.750 -0.7055  1.4505 -0.5336
13669TIP3   OH262497   5.199   1.399  16.279 -0.2261  0.2030  0.6904
13669TIP3    H162498   5.214   1.306  16.294  1.1827  0.2354 -0.3016
13669TIP3    H262499   5.104   1.407  16.270 -0.3286 -1.2264  0.2621
13670TIP3   OH262500   3.806   5.514  16.569  0.5861 -0.5620  0.2014
13670TIP3    H162501   3.725   5.557  16.543  0.2101 -1.2168  0.2761
13670TIP3    H262502   3.813   5.439  16.510  0.2486 -1.4831  1.3007
13671TIP3   OH262503   4.173   2.204   2.434  0.1675  0.4943 -0.1083
13671TIP3    H162504   4.113   2.259   2.383  2.2330  2.3108 -0.7263
13671TIP3    H262505   4.201   2.259   2.507  0.5986 -0.5554  0.5529
13672TIP3   OH262506   5.022   0.741   4.960  0.2802 -0.1311 -0.5128
13672TIP3    H162507   4.966   0.681   5.010 -0.6790  0.9294 -0.2667
13672TIP3    H262508   5.111   0.723   4.991  0.2633 -2.5800 -1.6492
13673TIP3   OH262509   5.329   6.210  11.194 -0.4133 -0.7560 -0.5460
13673TIP3    H162510   5.377   6.174  11.119 -0.2081 -0.0418 -0.7632
13673TIP3    H262511   5.276   6.281  11.158 -0.0242 -0.1531  0.0326
13674TIP3   OH262512   1.513   3.147   3.299  0.2243 -0.6122 -0.3678
13674TIP3    H162513   1.514   3.233   3.257  1.2087  0.0162  0.8950
13674TIP3    H262514   1.549   3.088   3.233  1.6306  0.3371 -0.5002
13675TIP3   OH262515   0.092   2.208   2.777  0.1431 -0.1796 -0.1622
13675TIP3    H162516  -0.003   2.206   2.789  0.0437 -0.2678 -0.9294
13675TIP3    H262517   0.125   2.255   2.854 -0.4396 -0.9035  0.5441
13676TIP3   OH262518   0.611   4.504   1.911  0.1513 -0.1219 -0.2912
13676TIP3    H162519   0.554   4.428   1.903 -0.8571  0.8101 -3.0757
13676TIP3    H262520   0.699   4.469   1.899 -0.1487 -1.0299  0.0471
13677TIP3   OH262521   6.254   4.725   3.308 -0.7297  0.4527  0.6801
13677TIP3    H162522   6.305   4.644   3.301 -0.5314  0.5533  0.9791
13677TIP3    H262523   6.163   4.695   3.305 -0.6591  0.2826  0.0627
13678TIP3   OH262524   5.796   0.238  15.415  0.0825 -0.9176  0.4881
13678TIP3    H162525   5.769   0.281  15.496 -0.6254 -1.1317  0.3749
13678TIP3    H262526   5.881   0.277  15.394 -0.5268  0.4389  0.3888
13679TIP3   OH262527   5.841   4.786  16.251 -0.1363  0.1362 -0.4768
13679TIP3    H162528   5.750   4.757  16.245 -0.5374  1.3657 -0.6196
13679TIP3    H262529   5.866   4.767  16.341 -1.3131  1.9075  0.2787
13680TIP3   OH262530   3.620   6.490   5.405  0.2824  0.1965  0.2341
13680TIP3    H162531   3.534   6.502   5.365  0.2858  1.1006  0.4772
13680TIP3    H262532   3.617   6.402   5.443  0.0531 -0.4353 -1.1759
13681TIP3   OH262533   2.531   5.484  16.422 -0.7233  0.2816  0.0448
13681TIP3    H162534   2.554   5.451  16.335  0.5354  0.1610  0.4006
13681TIP3    H262535   2.436   5.471  16.429 -0.4116 -2.7620 -0.0474
13682TIP3   OH262536   2.904   0.395  15.203 -0.0654 -0.1108  0.2204
13682TIP3    H162537   2.950   0.344  15.270  1.2947  3.9902  2.7855
13682TIP3    H262538   2.972   0.447  15.160 -1.5998  2.0437  0.2062
13683TIP3   OH262539   4.030   6.013   2.702  0.0614  0.0227  0.5817
13683TIP3    H162540   4.032   5.965   2.785 -2.5104 -0.9791  0.1565
13683TIP3    H262541   3.981   6.093   2.721  1.7600  1.1128  0.5877
13684TIP3   OH262542   2.589   0.592  14.279  0.1948 -0.4264 -0.8425
13684TIP3    H162543   2.592   0.687  14.280  0.9043 -0.4471  0.3044
13684TIP3    H262544   2.632   0.567  14.197  2.1743  0.2021 -0.0555
13685TIP3   OH262545   1.320   0.960  13.199  0.1001  0.6877  0.0515
13685TIP3    H162546   1.233   0.965  13.160 -0.2285  2.2038  0.9097
13685TIP3    H262547   1.379   0.960  13.124 -0.6041  0.3355 -0.5193
13686TIP3   OH262548   3.867   0.664  10.917  0.0572 -0.1479 -0.3848
13686TIP3    H162549   3.955   0.638  10.943  0.1095  0.3814  0.0059
13686TIP3    H262550   3.877   0.753  10.884 -0.2373 -0.3069 -0.9197
13687TIP3   OH262551   1.461   2.184  15.426 -0.3396 -0.0278  0.4813
13687TIP3    H162552   1.511   2.224  15.497 -1.0880  0.0574  0.9653
13687TIP3    H262553   1.376   2.163  15.465  0.0543 -2.1907  0.2748
13688TIP3   OH262554   3.783   1.673   1.097 -0.3607  0.4512 -0.3388
13688TIP3    H162555   3.819   1.735   1.033 -0.4733 -0.6693 -1.5388
13688TIP3    H262556   3.776   1.723   1.178 -1.5615  2.3862 -1.5438
13689TIP3   OH262557   4.088   4.139   3.415 -0.4203 -0.4522  0.2198
13689TIP3    H162558   4.096   4.183   3.330 -0.7269  2.1078  1.4416
13689TIP3    H262559   4.178   4.131   3.446 -0.4390  0.4019  0.5061
13690TIP3   OH262560   6.775   0.597  16.080  0.2104 -0.0168  0.2845
13690TIP3    H162561   6.855   0.649  16.073  0.5761 -0.4325  1.2517
13690TIP3    H262562   6.735   0.602  15.993  0.6266  1.2432  0.1553
13691TIP3   OH262563   6.436   4.114  12.389  0.4920 -0.1950 -0.5987
13691TIP3    H162564   6.415   4.177  12.320 -1.8749  1.5465  1.5279
13691TIP3    H262565   6.376   4.041  12.374 -0.4089  0.4264 -0.1227
13692TIP3   OH262566   5.593   3.913  13.208  0.1814  0.0030  0.1236
13692TIP3    H162567   5.649   3.848  13.250 -0.3793 -2.3657 -2.4837
13692TIP3    H262568   5.638   3.934  13.126 -2.1541 -1.2608 -1.5944
13693TIP3   OH262569   0.901   5.589   4.975  0.1035  0.1547  0.3578
13693TIP3    H162570   0.955   5.513   4.952 -0.2718 -0.1588  0.4822
13693TIP3    H262571   0.822   5.579   4.921  0.6802  1.2628 -0.7296
13694TIP3   OH262572   0.550   3.444   3.913 -0.4501  0.6584 -0.5891
13694TIP3    H162573   0.643   3.429   3.932 -0.3043 -0.5649 -2.0902
13694TIP3    H262574   0.544   3.538   3.897  0.4890  0.7902 -0.2432
13695TIP3   OH262575   3.642   4.714  16.330  0.2907  0.4295  0.6471
13695TIP3    H162576   3.594   4.636  16.358  2.1041 -1.2341 -0.6052
13695TIP3    H262577   3.670   4.694  16.240  0.0265  2.9398 -0.0630
13696TIP3   OH262578   4.733   1.085  15.059 -0.3688 -0.2161 -0.6234
13696TIP3    H162579   4.733   0.989  15.057  1.0031 -0.2832  1.0236
13696TIP3    H262580   4.669   1.108  15.126  0.2614 -0.0419 -0.0690
13697TIP3   OH262581   5.380   2.289  14.498  0.1071 -0.7630  0.0703
13697TIP3    H162582   5.305   2.251  14.543  0.2876 -0.6760  0.4582
13697TIP3    H262583   5.395   2.231  14.423  0.3050 -1.4007  0.5840
13698TIP3   OH262584   2.446   4.800   2.045 -0.0509 -0.4358 -0.0623
13698TIP3    H162585   2.517   4.854   2.078  0.8776 -0.3970 -1.9891
13698TIP3    H262586   2.428   4.738   2.116  1.9576 -0.4977  0.4521
13699TIP3   OH262587   1.943   1.194  15.130 -0.3373 -0.4258 -0.1766
13699TIP3    H162588   1.991   1.221  15.051  3.1063 -0.3634  1.7314
13699TIP3    H262589   1.905   1.109  15.107  1.2448 -0.7736 -1.6949
13700TIP3   OH262590   3.353   5.473   3.699 -0.0651 -0.0446 -0.0121
13700TIP3    H162591   3.394   5.537   3.641 -0.9985 -0.1208 -0.7910
13700TIP3    H262592   3.266   5.509   3.718 -0.2165 -0.5917  0.3694
13701TIP3   OH262593   6.237   5.679  15.528  0.7499 -0.4625  0.4156
13701TIP3    H162594   6.207   5.592  15.504 -0.4539  0.3444 -1.3037
13701TIP3    H262595   6.317   5.691  15.477  1.4927 -0.9269  1.4537
13702TIP3   OH262596   6.339   0.547  11.282 -0.0941 -0.1753  0.4471
13702TIP3    H162597   6.363   0.601  11.206  1.5430 -0.9195  0.3868
13702TIP3    H262598   6.274   0.486  11.248 -0.0366  0.0783 -0.1411
13703TIP3   OH262599   1.789   1.307  12.101 -0.3299  0.2519  0.7616
13703TIP3    H162600   1.712   1.332  12.050 -0.6848 -0.2094  1.0712
13703TIP3    H262601   1.785   1.212  12.107  1.2947  0.0259 -0.8564
13704TIP3   OH262602   3.444   6.647  14.840  0.0556 -0.7086  0.4646
13704TIP3    H162603   3.381   6.610  14.777 -0.2496 -1.3650  1.1238
13704TIP3    H262604   3.509   6.692  14.787 -1.4572  0.7860 -0.2162
13705TIP3   OH262605   6.723   6.645  16.329  0.1905 -0.1452  0.1023
13705TIP3    H162606   6.770   6.579  16.379 -1.0755 -0.2534  1.1904
13705TIP3    H262607   6.696   6.601  16.249  2.1404 -0.0004 -0.7026
13706TIP3   OH262608   2.546   6.696  16.672 -0.3806  0.2492 -0.2929
13706TIP3    H162609   2.508   6.762  16.730 -0.3604 -0.0514  0.0663
13706TIP3    H262610   2.613   6.743  16.623  0.8543  0.1288  1.1940
13707TIP3   OH262611   4.427   3.647   0.834  0.6794 -0.2000  0.3290
13707TIP3    H162612   4.460   3.692   0.756  0.6607  0.0199  0.4484
13707TIP3    H262613   4.466   3.694   0.908 -0.6946  0.7222  0.5147
13708TIP3   OH262614   2.345   5.080  13.302 -0.5471  0.1504  0.1014
13708TIP3    H162615   2.425   5.118  13.267 -0.1836 -0.2492  0.4857
13708TIP3    H262616   2.372   5.038  13.384 -0.9946 -0.6321 -0.1361
13709TIP3   OH262617   3.118   0.136  16.302  0.2468  0.1967  0.6902
13709TIP3    H162618   3.147   0.164  16.215  1.1261 -0.3101  0.8088
13709TIP3    H262619   3.024   0.154  16.303  0.5212  1.8367  0.2719
13710TIP3   OH262620   2.594   4.457   5.280 -0.3803 -0.3309 -0.0160
13710TIP3    H162621   2.677   4.475   5.323 -1.3225  1.5609  1.1380
13710TIP3    H262622   2.618   4.430   5.191  1.4854 -1.3480  0.7503
13711TIP3   OH262623   4.249   2.436   0.154  0.1612  0.3204 -0.0934
13711TIP3    H162624   4.304   2.452   0.078 -1.4173 -0.0768 -1.3722
13711TIP3    H262625   4.291   2.485   0.225  0.9287  1.8272 -1.5193
13712TIP3   OH262626   0.135   4.312  13.404 -0.2330 -0.0963  0.4661
13712TIP3    H162627   0.153   4.390  13.351  0.4838 -0.3290  0.3606
13712TIP3    H262628   0.217   4.294  13.449 -0.3057 -0.9519  0.2744
13713TIP3   OH262629   2.770   6.382  11.837  0.4064  0.3026 -0.5281
13713TIP3    H162630   2.768   6.351  11.928 -0.6455  0.4443 -0.4970
13713TIP3    H262631   2.809   6.310  11.788 -2.5583 -1.4056 -0.5564
13714TIP3   OH262632   3.581   5.929  12.207 -0.3648  0.4954  0.3406
13714TIP3    H162633   3.654   5.902  12.152 -1.1506 -1.8285  0.3352
13714TIP3    H262634   3.529   5.986  12.151 -1.0764 -1.7002 -1.4058
13715TIP3   OH262635   4.678   6.639  16.580  0.0721 -0.0941  0.2371
13715TIP3    H162636   4.656   6.569  16.518 -1.0790 -0.1483  0.6751
13715TIP3    H262637   4.594   6.663  16.619  0.7037  0.3239  1.3763
13716TIP3   OH262638   2.834   4.117  12.292 -0.9060 -0.5505 -0.2389
13716TIP3    H162639   2.889   4.163  12.355 -0.9172  1.2782 -1.4944
13716TIP3    H262640   2.746   4.151  12.308 -0.9570 -0.2924 -1.0286
13717TIP3   OH262641   3.572   5.208   3.622  0.3846 -0.0622  0.4272
13717TIP3    H162642   3.506   5.144   3.597  1.5138 -0.4364 -1.7896
13717TIP3    H262643   3.647   5.156   3.649  0.1748  0.3706  1.9712
13718TIP3   OH262644   3.942   1.344   2.345 -0.4254  0.4193 -0.8294
13718TIP3    H162645   3.949   1.252   2.371  1.0836  0.6788 -0.2052
13718TIP3    H262646   3.879   1.382   2.407 -1.4001 -0.2566 -1.3677
13719TIP3   OH262647   1.241   0.117  11.912  0.3578 -0.1769 -0.5119
13719TIP3    H162648   1.192   0.157  11.840 -1.2670 -0.3318  0.4619
13719TIP3    H262649   1.267   0.190  11.967  2.2688  0.0258 -1.5710
13720TIP3   OH262650   6.737   6.335  11.972 -0.7047  0.2033 -0.2392
13720TIP3    H162651   6.808   6.275  11.996  1.4400  2.0513 -1.5943
13720TIP3    H262652   6.757   6.360  11.882 -3.7146  0.0142 -1.0571
13721TIP3   OH262653   1.053   3.089   4.409 -0.4286  0.0640  0.2651
13721TIP3    H162654   1.041   3.114   4.317  0.3602  2.5502  0.7667
13721TIP3    H262655   1.147   3.074   4.417 -0.3928  0.5745  0.8225
13722TIP3   OH262656   4.604   2.928  16.388 -0.5497 -0.4151 -0.1902
13722TIP3    H162657   4.643   2.965  16.467 -0.5977  2.0900 -1.2430
13722TIP3    H262658   4.621   2.993  16.320 -4.3519 -0.2845 -1.2666
13723TIP3   OH262659   4.996   2.376  16.566 -0.5396  0.1681 -0.1637
13723TIP3    H162660   4.914   2.368  16.517 -0.7050  0.1103  0.1214
13723TIP3    H262661   5.055   2.314  16.524 -0.5229  0.4850 -0.6171
13724TIP3   OH262662   5.331   2.901   3.725 -0.2266  0.3828  0.1553
13724TIP3    H162663   5.321   2.984   3.677  0.4726  1.1962  1.3466
13724TIP3    H262664   5.310   2.924   3.816 -1.0684 -1.0076  0.3344
13725TIP3   OH262665   3.063   4.249  10.793  0.2642 -0.2977  0.9196
13725TIP3    H162666   3.146   4.217  10.829  0.2009 -1.1616  0.3255
13725TIP3    H262667   3.001   4.176  10.806  0.4055 -0.9503 -1.5186
13726TIP3   OH262668   3.011   4.336   3.628 -0.3092 -0.1727 -0.0616
13726TIP3    H162669   3.047   4.252   3.655 -1.3943 -1.3469 -1.9810
13726TIP3    H262670   3.086   4.395   3.625  0.5165 -1.1139  1.0743
13727TIP3   OH262671   1.019   5.365  17.145  0.6865  0.1686 -0.0013
13727TIP3    H162672   0.947   5.426  17.161  1.3289  0.9983 -0.2446
13727TIP3    H262673   1.002   5.332  17.056 -0.3006 -0.9109  0.5595
13728TIP3   OH262674   0.912   1.260   3.325  0.1393  0.2845 -0.3751
13728TIP3    H162675   0.959   1.260   3.242  1.3095 -1.7268  0.2235
13728TIP3    H262676   0.980   1.271   3.392 -0.9598  4.0755  0.3841
13729TIP3   OH262677   6.260   6.787  11.800 -0.1456 -0.0776 -0.6601
13729TIP3    H162678   6.218   6.752  11.878 -1.2549 -0.2699 -1.3215
13729TIP3    H262679   6.295   6.711  11.755  1.0488  0.0914 -0.0599
13730TIP3   OH262680   2.645   0.188  12.849  1.0884  0.2587  0.4077
13730TIP3    H162681   2.643   0.257  12.916 -1.5986  0.8497 -0.1776
13730TIP3    H262682   2.580   0.214  12.785  1.3208 -1.9193 -0.8178
13731TIP3   OH262683   3.502   2.305  11.501  0.0234  1.1491  0.6182
13731TIP3    H162684   3.514   2.251  11.579 -1.8488  0.4902  0.5022
13731TIP3    H262685   3.454   2.249  11.440 -0.0027  2.2050 -0.3631
13732TIP3   OH262686   2.251   3.077  17.240  0.0342  0.1883 -0.2393
13732TIP3    H162687   2.252   3.027  17.322  1.5046  2.3925  1.1932
13732TIP3    H262688   2.197   3.153  17.259  0.6388  0.8802 -1.2257
13733TIP3   OH262689   0.632   1.729   5.123 -0.2390 -0.3303  0.0586
13733TIP3    H162690   0.548   1.742   5.166 -0.5018 -1.6037 -0.0633
13733TIP3    H262691   0.620   1.766   5.035 -0.1809  0.8557  0.5241
13734TIP3   OH262692   0.176   1.905  12.590  0.2147  0.2819 -0.5784
13734TIP3    H162693   0.159   1.951  12.507  2.1242  0.0308 -1.1555
13734TIP3    H262694   0.134   1.820  12.578 -1.1554  0.9178 -0.5051
13735TIP3   OH262695   1.878   1.837   4.975  0.1882 -0.2163  0.3361
13735TIP3    H162696   1.888   1.794   5.060 -1.3539 -1.5620 -0.1269
13735TIP3    H262697   1.784   1.841   4.961  0.3777  1.2552 -0.7065
13736TIP3   OH262698   3.414   4.420  14.438 -0.2995  0.0039  0.5539
13736TIP3    H162699   3.453   4.333  14.432 -0.6729 -0.3253  2.2539
13736TIP3    H262700   3.338   4.416  14.381 -0.1640 -0.6962  0.4125
13737TIP3   OH262701   1.450   3.825   4.848 -0.0455 -0.2034 -0.4021
13737TIP3    H162702   1.530   3.830   4.795  0.3011 -0.1015  0.1247
13737TIP3    H262703   1.443   3.911   4.890 -0.7237 -0.0318 -0.8559
13738TIP3   OH262704   4.892   4.043   4.306  0.3251  0.2595  0.1270
13738TIP3    H162705   4.919   4.106   4.373 -0.3121 -0.9587  1.5708
13738TIP3    H262706   4.893   3.958   4.351  1.4984 -0.8535 -1.8521
13739TIP3   OH262707   2.457   1.236   2.057  0.2514 -0.1633 -0.0455
13739TIP3    H162708   2.486   1.273   2.141 -1.3166 -0.0783  0.4864
13739TIP3    H262709   2.380   1.287   2.034  0.4240 -0.4671 -1.3492
13740TIP3   OH262710   5.515   3.359   3.297 -0.5037  1.0322  1.0180
13740TIP3    H162711   5.607   3.336   3.296 -0.9531 -1.0154  2.2630
13740TIP3    H262712   5.512   3.447   3.335  1.1164  2.5650 -2.0110
13741TIP3   OH262713   0.736   1.609  13.114 -0.0090  0.3038 -0.0928
13741TIP3    H162714   0.742   1.680  13.178 -0.7248  1.4777 -1.2825
13741TIP3    H262715   0.648   1.618  13.077  0.3771 -0.3783 -1.2061
13742TIP3   OH262716   4.226   0.201  11.513  0.3536  0.0781  0.1070
13742TIP3    H162717   4.261   0.114  11.533  0.3852  0.5891  2.5693
13742TIP3    H262718   4.295   0.243  11.461  0.7224 -1.0447 -0.3374
13743TIP3   OH262719   5.315   4.606   3.875  0.0224 -0.3012  0.1152
13743TIP3    H162720   5.329   4.528   3.821  0.4089  0.5339 -1.0166
13743TIP3    H262721   5.400   4.649   3.878 -0.2357  0.1910  0.5590
13744TIP3   OH262722   6.389   1.976  15.705  0.3461 -0.7294  0.2066
13744TIP3    H162723   6.392   2.061  15.748 -0.8195 -0.5712  0.0225
13744TIP3    H262724   6.409   1.994  15.613  1.9563 -0.9389  0.4990
13745TIP3   OH262725   5.375   0.651   4.479  0.4312  0.3353  0.2314
13745TIP3    H162726   5.379   0.603   4.562  1.7516  0.7278  0.4219
13745TIP3    H262727   5.291   0.626   4.441  0.4898 -1.0794  0.9513
13746TIP3   OH262728   2.149   4.611   3.659  0.5160  0.3693  0.4132
13746TIP3    H162729   2.079   4.570   3.606 -0.2883  0.0474  1.6858
13746TIP3    H262730   2.162   4.697   3.619  0.3436 -0.0913 -0.6683
13747TIP3   OH262731   1.278   4.792   2.118  0.3159  0.2146  0.0607
13747TIP3    H162732   1.286   4.864   2.180  1.3368 -0.8169  1.1805
13747TIP3    H262733   1.184   4.769   2.121  0.7285 -1.9930  3.9466
13748TIP3   OH262734   2.057   3.384  16.600 -0.3491  0.5858 -0.4093
13748TIP3    H162735   2.023   3.314  16.545  0.2502 -0.3727  0.3960
13748TIP3    H262736   2.024   3.364  16.688  2.1678 -0.3747  0.4089
13749TIP3   OH262737   1.402   2.044  12.024 -0.2537 -0.1188 -0.4127
13749TIP3    H162738   1.405   2.131  11.985  1.0817  0.3366  0.6361
13749TIP3    H262739   1.309   2.022  12.027 -0.4669 -0.6809 -4.8048
13750TIP3   OH262740   5.374   0.799   3.048 -0.1309 -0.2184  0.0521
13750TIP3    H162741   5.324   0.740   3.104 -1.8368 -0.4600 -1.6401
13750TIP3    H262742   5.458   0.754   3.035 -0.2033 -0.7537  1.3324
13751TIP3   OH262743   3.413   0.446   6.304  0.3675 -0.1500 -0.3781
13751TIP3    H162744   3.358   0.368   6.317 -1.3220  1.1445  0.6746
13751TIP3    H262745   3.362   0.502   6.245  0.0502  1.5120  1.3943
13752TIP3   OH262746   5.061   0.307  12.796  0.1379 -0.1275  0.7432
13752TIP3    H162747   5.121   0.302  12.871  1.1022 -0.8128 -0.0512
13752TIP3    H262748   5.021   0.394  12.804  0.1191 -0.2284  2.1127
13753TIP3   OH262749   2.159   6.472   3.291 -0.3577  0.4485 -0.5760
13753TIP3    H162750   2.068   6.470   3.321 -0.4630 -1.4319 -0.8873
13753TIP3    H262751   2.173   6.385   3.253  2.0372  0.1109  0.8801
13754TIP3   OH262752   6.567   2.871  16.079 -0.7658  0.5392 -0.7271
13754TIP3    H162753   6.579   2.844  15.989  0.1304  0.4206 -0.5781
13754TIP3    H262754   6.482   2.835  16.104 -0.0791 -1.2681 -0.8524
13755TIP3   OH262755   4.267   1.015  16.646 -0.8136 -0.2337  0.0863
13755TIP3    H162756   4.242   1.023  16.554 -0.5514  0.9456  0.0987
13755TIP3    H262757   4.344   1.071  16.654  0.6552 -2.2013  0.4905
13756TIP3   OH262758   1.326   6.037   0.734  0.4616  0.4752 -0.4595
13756TIP3    H162759   1.328   6.133   0.733 -0.4838  0.6282  2.4014
13756TIP3    H262760   1.240   6.016   0.772  0.5225 -1.5468 -1.3151
13757TIP3   OH262761   4.829   0.214   2.027  0.3056  0.1763 -0.2022
13757TIP3    H162762   4.733   0.210   2.028  0.2464  1.3846 -0.4946
13757TIP3    H262763   4.849   0.307   2.035  1.4851 -0.1639  1.1985
13758TIP3   OH262764   4.253   4.722  16.074 -0.3352 -0.2387  0.3329
13758TIP3    H162765   4.189   4.756  16.135 -0.6542  0.7759 -0.5341
13758TIP3    H262766   4.219   4.746  15.987  0.1155 -1.6037 -0.2467
13759TIP3   OH262767   1.902   2.682   3.005 -0.9998 -0.3441  0.1090
13759TIP3    H162768   1.938   2.675   2.916 -3.4012  0.1176 -0.9858
13759TIP3    H262769   1.894   2.591   3.034  4.0643 -0.5402  1.8916
13760TIP3   OH262770   4.292   1.804   4.853 -0.2433  0.1936 -0.5088
13760TIP3    H162771   4.221   1.868   4.854 -0.7550 -0.3710 -0.0196
13760TIP3    H262772   4.279   1.752   4.933  0.8281  0.2067 -0.3087
13761TIP3   OH262773   2.293   4.859  15.560  0.5904 -0.1193 -0.2495
13761TIP3    H162774   2.287   4.783  15.617 -0.1296  1.6266  2.1571
13761TIP3    H262775   2.207   4.865  15.519  0.5547 -0.4222 -0.2191
13762TIP3   OH262776   2.971   1.062  12.393  0.2835 -0.2772  0.0100
13762TIP3    H162777   3.046   1.003  12.380 -0.3341 -0.8000 -1.4468
13762TIP3    H262778   2.896   1.003  12.402 -0.2657  0.2556 -0.9159
13763TIP3   OH262779   0.522   3.505   3.475  0.2924  0.0382  0.2871
13763TIP3    H162780   0.447   3.522   3.533  0.3347 -0.0446  0.3664
13763TIP3    H262781   0.483   3.493   3.389 -0.0010 -2.1456  0.6774
13764TIP3   OH262782   6.443   2.752  10.764  0.2996 -0.5171 -0.3205
13764TIP3    H162783   6.501   2.736  10.690  1.7925  0.1450  0.6283
13764TIP3    H262784   6.473   2.837  10.799 -1.4907  0.0164  0.0153
13765TIP3   OH262785   4.857   0.745  17.008  0.1237  0.0131  0.6605
13765TIP3    H162786   4.793   0.778  17.071 -0.3091 -0.8212  0.6772
13765TIP3    H262787   4.814   0.754  16.923  0.0180 -0.4432  0.6602
13766TIP3   OH262788   2.663   1.166   6.642 -0.3223  0.1598 -0.3472
13766TIP3    H162789   2.625   1.252   6.624 -0.6368 -0.2271 -1.6131
13766TIP3    H262790   2.614   1.133   6.717 -1.6505  0.1930 -1.1807
13767TIP3   OH262791   4.137   6.029   1.602  0.2509 -0.0273 -0.3327
13767TIP3    H162792   4.078   6.095   1.638  0.9052  1.2489 -1.4980
13767TIP3    H262793   4.225   6.063   1.621  0.6120 -1.2282  0.2081
13768TIP3   OH262794   4.111   2.596   0.602 -0.2823  0.4049 -0.2825
13768TIP3    H162795   4.142   2.531   0.665  0.3848  1.2529  0.2910
13768TIP3    H262796   4.094   2.546   0.522  0.6077 -0.4021  0.0148
13769TIP3   OH262797   0.894   3.565   2.797  0.8332 -0.4639  0.2465
13769TIP3    H162798   0.943   3.635   2.754 -1.5492  2.2786  1.6516
13769TIP3    H262799   0.867   3.508   2.725  0.9780  1.3437 -1.3295
13770TIP3   OH262800   5.996   6.335  14.092 -0.1935  0.3150  0.3849
13770TIP3    H162801   5.987   6.374  14.005 -1.0813 -2.7275 -1.0228
13770TIP3    H262802   5.908   6.338  14.129 -0.7504 -1.8857 -0.5632
13771TIP3   OH262803   0.552   2.524   4.860 -0.0576 -0.0821 -0.2974
13771TIP3    H162804   0.544   2.587   4.931  2.2599 -0.5633  0.4759
13771TIP3    H262805   0.645   2.527   4.836 -0.0251 -2.6198 -0.7373
13772TIP3   OH262806   6.405   1.282  16.685 -0.2911  0.5447 -0.0258
13772TIP3    H162807   6.465   1.329  16.743 -1.8894  1.7744  0.6974
13772TIP3    H262808   6.348   1.350  16.649 -0.8655 -0.5044 -1.1869
13773TIP3   OH262809   1.483   6.408  15.647 -0.6355 -0.2814 -0.4654
13773TIP3    H162810   1.508   6.429  15.737 -0.3504 -1.2866 -0.3031
13773TIP3    H262811   1.407   6.464  15.630  1.1424  2.2535 -0.7019
13774TIP3   OH262812   2.360   0.535   1.398  0.4967 -0.2655 -0.0183
13774TIP3    H162813   2.299   0.545   1.471  1.0364 -1.5304  0.6340
13774TIP3    H262814   2.446   0.531   1.438  0.9339  0.4399 -0.8521
13775TIP3   OH262815   6.755   6.811  15.086 -0.1107 -0.0658  0.7872
13775TIP3    H162816   6.722   6.893  15.049 -1.4582 -0.6628  0.6248
13775TIP3    H262817   6.839   6.835  15.125  1.3474  0.6433 -2.4418
13776TIP3   OH262818   0.702   1.289  16.001  0.1081 -0.4223 -0.3665
13776TIP3    H162819   0.622   1.300  15.950 -0.0937 -0.2608 -0.0244
13776TIP3    H262820   0.673   1.293  16.092  0.5080 -0.3573 -0.2390
13777TIP3   OH262821   6.392   0.031  12.117  0.3215 -0.4738 -0.6942
13777TIP3    H162822   6.390   0.117  12.159  0.9249 -0.8173  0.0757
13777TIP3    H262823   6.478  -0.005  12.141  0.3031 -1.0674 -1.4673
13778TIP3   OH262824   3.328   2.867  12.923  0.1217 -0.3650 -0.1397
13778TIP3    H162825   3.301   2.880  13.013  0.3380  1.0954 -0.2605
13778TIP3    H262826   3.422   2.884  12.923  0.4776 -2.1610 -0.3225
13779TIP3   OH262827   4.741   2.035   4.505  0.0971  0.6311 -0.5428
13779TIP3    H162828   4.675   2.064   4.442  1.3356 -0.6074 -2.5061
13779TIP3    H262829   4.714   1.946   4.529  0.9648  0.1767 -1.2397
13780TIP3   OH262830   2.377   3.437  16.946 -1.1558  0.2310 -0.3018
13780TIP3    H162831   2.370   3.505  17.013  0.7422  0.9061 -0.7260
13780TIP3    H262832   2.348   3.357  16.989  0.8504  0.4629  1.6724
13781TIP3   OH262833   0.750   4.918  12.283  0.3392 -0.0013  0.3796
13781TIP3    H162834   0.761   4.972  12.361  1.2689 -1.7169  1.5118
13781TIP3    H262835   0.837   4.914  12.244  0.6302 -1.7406  1.1078
13782TIP3   OH262836   0.628   6.511   6.690  0.3661 -0.8558  0.4089
13782TIP3    H162837   0.708   6.467   6.719 -0.9143 -2.7080  1.3329
13782TIP3    H262838   0.599   6.561   6.767 -1.2313 -3.1000  1.3930
13783TIP3   OH262839   6.690   6.031  13.592  0.2828 -0.0110  0.3455
13783TIP3    H162840   6.688   6.036  13.688 -0.3328 -1.6253  0.4479
13783TIP3    H262841   6.605   6.065  13.565  0.5389  0.6456  0.3499
13784TIP3   OH262842   2.282   1.113   4.385 -0.0985 -0.2995  0.1907
13784TIP3    H162843   2.318   1.137   4.300  1.5538  0.6513  1.0823
13784TIP3    H262844   2.199   1.161   4.391 -0.7492 -1.2011 -1.2596
13785TIP3   OH262845   1.652   2.767   5.792 -0.5663 -0.4065  0.1777
13785TIP3    H162846   1.609   2.682   5.803 -0.8175 -0.1170  1.7468
13785TIP3    H262847   1.678   2.792   5.881  2.6199 -0.4220 -0.6478
13786TIP3   OH262848   1.421   1.051   1.293  0.2628  0.2675  0.4352
13786TIP3    H162849   1.495   1.111   1.284  0.2620  0.4681  1.5859
13786TIP3    H262850   1.347   1.098   1.252  0.8440 -0.1488 -1.1755
13787TIP3   OH262851   6.000   4.569  12.676  0.5716  0.0435  0.2087
13787TIP3    H162852   5.967   4.659  12.688 -0.5855 -0.2811 -0.3067
13787TIP3    H262853   5.938   4.515  12.725  0.9529 -0.5118  0.0754
13788TIP3   OH262854   0.548   6.298   0.045 -0.1050  0.1671  0.1429
13788TIP3    H162855   0.578   6.286  -0.045  0.6833  3.0848 -0.1059
13788TIP3    H262856   0.522   6.390   0.049 -0.7217 -0.0487  2.7367
13789TIP3   OH262857   0.604   2.270  15.297  0.0956  0.1781  0.4792
13789TIP3    H162858   0.608   2.267  15.201  0.5927  2.2480  0.3756
13789TIP3    H262859   0.580   2.182  15.323  0.9364 -0.7017 -1.5018
13790TIP3   OH262860   2.608   6.378   6.203 -0.0195  0.9364 -0.0901
13790TIP3    H162861   2.628   6.286   6.221 -1.1179  1.0985  2.4451
13790TIP3    H262862   2.512   6.379   6.192  0.1991  1.5098 -2.3017
13791TIP3   OH262863   6.063   3.982  15.034  0.6388 -0.2026  0.0712
13791TIP3    H162864   5.986   3.925  15.031  1.7371 -1.7650  0.4279
13791TIP3    H262865   6.040   4.056  14.978 -1.2647 -0.4307  0.4829
13792TIP3   OH262866   0.650   5.681   5.434 -0.9454 -0.1505  0.1459
13792TIP3    H162867   0.647   5.727   5.518  0.1403  0.4563 -0.1293
13792TIP3    H262868   0.624   5.591   5.455 -0.4048 -0.0766  1.1892
13793TIP3   OH262869   4.847   2.207  14.341 -0.2483  0.2284  0.7164
13793TIP3    H162870   4.852   2.302  14.329 -1.6475  0.3463  0.8732
13793TIP3    H262871   4.924   2.173  14.297 -1.0498  1.2597 -1.6401
13794TIP3   OH262872   2.957   2.877  15.764 -0.1041 -0.5541 -0.4734
13794TIP3    H162873   2.965   2.792  15.720 -0.1552 -0.6661 -0.2660
13794TIP3    H262874   2.933   2.855  15.854 -1.2617 -0.2828 -0.6982
13795TIP3   OH262875   4.591   4.468   6.728  0.9044  0.0368  0.3341
13795TIP3    H162876   4.514   4.503   6.683  1.6821  1.1298 -0.1786
13795TIP3    H262877   4.589   4.374   6.709 -0.9023 -0.1577  1.2496
13796TIP3   OH262878   5.452   0.892  14.547  0.2601 -0.0827  0.9069
13796TIP3    H162879   5.390   0.943  14.495  0.2321 -0.6910  0.3318
13796TIP3    H262880   5.511   0.957  14.585 -0.7980  0.5234  1.5751
13797TIP3   OH262881   6.527   3.633  11.420 -0.2826 -0.0579  0.2825
13797TIP3    H162882   6.617   3.632  11.388  0.0984  0.2638  1.2824
13797TIP3    H262883   6.531   3.587  11.504 -0.8650  0.7316  0.7654
13798TIP3   OH262884   3.740   5.811   5.589  0.0848  0.0360  0.9698
13798TIP3    H162885   3.747   5.884   5.526 -0.0927 -0.3782  0.4610
13798TIP3    H262886   3.679   5.750   5.547 -0.7323  0.1565  1.9462
13799TIP3   OH262887   0.733   2.567   0.028  0.0040  0.6825  0.0698
13799TIP3    H162888   0.825   2.586   0.045 -0.2717  0.5332  1.8866
13799TIP3    H262889   0.734   2.487  -0.025  0.9241  1.0038 -0.4067
13800TIP3   OH262890   0.346   2.395  12.865  0.0371  0.4015  0.0669
13800TIP3    H162891   0.334   2.300  12.854 -2.4155  0.7713 -1.2731
13800TIP3    H262892   0.362   2.406  12.959  0.8736 -1.3484  0.1859
13801TIP3   OH262893   5.912   0.073  14.396  0.0436  0.2883  0.2023
13801TIP3    H162894   5.858   0.059  14.318 -0.2556 -0.5674  0.5446
13801TIP3    H262895   6.001   0.079  14.363  0.1945 -2.2663 -0.0692
13802TIP3   OH262896   6.806   4.296  12.133  0.3559  0.0988  0.3588
13802TIP3    H162897   6.875   4.355  12.102  1.9620 -1.1120  1.4374
13802TIP3    H262898   6.808   4.306  12.228 -0.5084 -0.4453  0.4425
13803TIP3   OH262899   2.553   6.359   3.698  0.0963  0.0946 -0.2808
13803TIP3    H162900   2.543   6.281   3.752 -0.0901  0.1027 -0.3007
13803TIP3    H262901   2.498   6.341   3.621 -1.0941  0.8326  0.3704
13804TIP3   OH262902   4.614   2.284   3.734 -0.2476  0.0679  0.2617
13804TIP3    H162903   4.688   2.274   3.793 -0.2972  1.4674  0.5944
13804TIP3    H262904   4.652   2.279   3.646 -0.2169 -2.3426  0.3264
13805TIP3   OH262905   6.723   1.140   4.660  0.3782 -0.2072  0.1168
13805TIP3    H162906   6.705   1.233   4.654  2.6228  0.2827 -0.0700
13805TIP3    H262907   6.676   1.101   4.586 -0.9256  0.6757  0.4484
13806TIP3   OH262908   4.857   1.607  14.351  0.2634 -0.2585  0.3555
13806TIP3    H162909   4.865   1.604  14.447  0.2074  1.0916  0.4133
13806TIP3    H262910   4.765   1.624  14.335  0.3202 -0.2260  0.0554
13807TIP3   OH262911   4.384   1.425  14.594  0.4582 -0.1952  0.2487
13807TIP3    H162912   4.445   1.359  14.627 -0.1048 -0.9550 -0.2262
13807TIP3    H262913   4.332   1.380  14.528  0.7186  0.9833 -0.7868
13808TIP3   OH262914   4.056   5.053   3.208  0.0193 -0.7780 -0.9907
13808TIP3    H162915   4.136   5.018   3.247  0.1819  0.2998 -0.3438
13808TIP3    H262916   3.998   5.070   3.282  0.1662  0.8708 -1.2213
13809TIP3   OH262917   3.174   4.375  15.364  0.7037  0.5979  0.6589
13809TIP3    H162918   3.242   4.380  15.297 -0.7140  0.9040 -0.8370
13809TIP3    H262919   3.210   4.424  15.438  2.4932 -0.1088  0.3037
13810TIP3   OH262920   1.653   5.258   2.408  0.8982 -0.2415  0.4746
13810TIP3    H162921   1.744   5.230   2.418  1.1429  0.3286 -0.0819
13810TIP3    H262922   1.660   5.348   2.376  0.1426 -0.5348 -0.5322
13811TIP3   OH262923   1.168   4.072  11.548  0.1554  0.1986  0.4987
13811TIP3    H162924   1.245   4.129  11.548  0.6937 -0.5141 -0.1471
13811TIP3    H262925   1.153   4.053  11.456  0.4811 -1.3682  0.7506
13812TIP3   OH262926   4.847   4.113   0.097  0.5481 -0.2314 -0.3345
13812TIP3    H162927   4.774   4.138   0.040  0.3651  0.5824  0.2430
13812TIP3    H262928   4.896   4.194   0.111  1.4520 -0.7255 -0.5439
13813TIP3   OH262929   4.442   0.232  14.355  0.0428 -0.4809 -0.6940
13813TIP3    H162930   4.456   0.326  14.366 -0.7885 -0.4684  0.5156
13813TIP3    H262931   4.522   0.200  14.315 -0.4567  1.0625 -3.1698
13814TIP3   OH262932   5.606   2.116   5.527  0.7341  0.2915 -0.0614
13814TIP3    H162933   5.571   2.179   5.589 -0.8691 -0.2162 -0.4136
13814TIP3    H262934   5.611   2.164   5.444  4.0861  1.3705  0.6102
13815TIP3   OH262935   4.884   5.272   2.656  0.1185 -0.3476 -0.4255
13815TIP3    H162936   4.849   5.183   2.661 -1.0176  0.1210  0.6189
13815TIP3    H262937   4.955   5.273   2.721 -0.5324 -0.2314  0.3028
13816TIP3   OH262938   0.393   3.699  15.057  0.3432 -0.5063  0.2151
13816TIP3    H162939   0.305   3.667  15.077  0.0808  1.1573  2.0563
13816TIP3    H262940   0.379   3.775  15.000  0.5273 -0.0205  0.8003
13817TIP3   OH262941   1.377   3.387   2.941  0.3043 -0.1220 -0.1428
13817TIP3    H162942   1.294   3.338   2.946  0.7115 -0.7623  0.6716
13817TIP3    H262943   1.420   3.368   3.025  1.6153 -0.4206 -0.8642
13818TIP3   OH262944   3.326   0.177   6.359 -1.1219  0.6162 -0.7673
13818TIP3    H162945   3.333   0.148   6.268 -1.9602 -0.4244 -0.5174
13818TIP3    H262946   3.246   0.228   6.362 -1.5996 -0.1364 -0.4249
13819TIP3   OH262947   0.591   4.832  11.829  0.2565 -0.4015 -0.2373
13819TIP3    H162948   0.675   4.786  11.831  0.9794  0.8820 -0.1879
13819TIP3    H262949   0.571   4.851  11.920  1.5377  2.0982 -0.4092
13820TIP3   OH262950   0.488   0.330   3.284  0.1616  0.0893 -0.5695
13820TIP3    H162951   0.477   0.235   3.277 -0.3679  0.1032 -0.0658
13820TIP3    H262952   0.557   0.352   3.222  1.3626 -0.8340  0.3811
13821TIP3   OH262953   3.016   1.372  11.382  0.2672 -0.1680  0.4468
13821TIP3    H162954   3.064   1.317  11.320  0.0418 -0.3935  0.4688
13821TIP3    H262955   3.005   1.455  11.336 -1.6041 -0.9398 -0.6406
13822TIP3   OH262956   4.176   1.855   4.452 -0.2767  0.0744 -0.5330
13822TIP3    H162957   4.105   1.858   4.516  0.5630  2.3469  0.3753
13822TIP3    H262958   4.152   1.783   4.393 -1.1818 -1.9740  2.1598
13823TIP3   OH262959   0.226   1.356   2.247  0.7271  0.5903 -0.2332
13823TIP3    H162960   0.144   1.358   2.295  1.3506  1.3745  0.8494
13823TIP3    H262961   0.227   1.438   2.197  0.3138  0.0174 -1.1986
13824TIP3   OH262962   5.853   1.607   2.064  0.4208  0.1372 -0.8271
13824TIP3    H162963   5.808   1.560   1.994  0.0276 -0.6574 -0.0635
13824TIP3    H262964   5.808   1.581   2.144  1.7131 -0.0464 -0.1182
13825TIP3   OH262965   0.680   4.537  12.693  0.2983  0.2583 -0.1449
13825TIP3    H162966   0.763   4.582  12.705  2.0395 -2.2309 -1.8605
13825TIP3    H262967   0.626   4.600  12.644  1.9074  1.2084 -0.7821
13826TIP3   OH262968   6.323   2.559   5.839 -0.2856  0.3632  0.2969
13826TIP3    H162969   6.362   2.620   5.777 -0.7180  0.8303  0.4808
13826TIP3    H262970   6.391   2.543   5.904 -0.4638  1.3379  0.7390
13827TIP3   OH262971   4.344   0.296  14.005  0.0982 -0.5330 -0.0644
13827TIP3    H162972   4.354   0.317  13.912  3.8792 -4.1950 -0.7341
13827TIP3    H262973   4.293   0.215  14.006 -1.2503  0.2773  1.2698
13828TIP3   OH262974   3.879   5.557  12.451  0.0433  0.4661 -0.5437
13828TIP3    H162975   3.925   5.633  12.486 -2.2390  1.7169 -0.0168
13828TIP3    H262976   3.816   5.534  12.519  0.2980 -1.5675 -0.9463
13829TIP3   OH262977   4.313   0.416  10.699 -0.0370 -0.2323  0.1326
13829TIP3    H162978   4.343   0.363  10.625  0.2129  3.5737 -2.7987
13829TIP3    H262979   4.224   0.441  10.676 -1.7098 -2.3908  3.4187
13830TIP3   OH262980   0.648   5.308  16.438  0.2639  0.2177  0.1376
13830TIP3    H162981   0.566   5.340  16.400  1.1303 -1.4996 -3.6933
13830TIP3    H262982   0.630   5.216  16.459  0.4543  0.5767  2.0116
13831TIP3   OH262983   2.612   2.879  15.434 -0.2404 -0.4499  0.3455
13831TIP3    H162984   2.581   2.964  15.464  1.4046 -0.0984  1.1165
13831TIP3    H262985   2.705   2.891  15.417 -0.5679 -1.2382 -2.7637
13832TIP3   OH262986   3.498   6.202  16.737  0.3728 -0.0438  0.1473
13832TIP3    H162987   3.534   6.138  16.798  0.1419 -0.6379 -0.3259
13832TIP3    H262988   3.544   6.185  16.655  0.4975  0.5746  0.0832
13833TIP3   OH262989   6.039   3.652   3.850  0.2973  0.0998 -0.1104
13833TIP3    H162990   6.070   3.562   3.851  0.0345  0.0064  1.0892
13833TIP3    H262991   6.083   3.694   3.925  1.1409  1.2310 -1.1950
13834TIP3   OH262992   2.104   2.047   0.378  0.1879  0.3790 -0.6850
13834TIP3    H162993   2.049   2.100   0.319 -2.9628  0.1206  1.7505
13834TIP3    H262994   2.138   2.110   0.441  0.2625  0.1191 -0.4653
13835TIP3   OH262995   1.990   5.455   3.052  0.0124 -0.1138  0.1270
13835TIP3    H162996   2.083   5.480   3.048  0.4687 -1.8035 -0.8542
13835TIP3    H262997   1.946   5.520   2.997  0.5357  0.9426  0.9208
13836TIP3   OH262998   6.359   6.690   4.886 -0.5731  0.1479  0.7806
13836TIP3    H162999   6.417   6.628   4.930 -0.8995 -2.0042 -1.6050
13836TIP3    H263000   6.293   6.635   4.844 -0.3994  1.9785 -2.1666
13837TIP3   OH263001   2.058   2.014   3.299  0.2982 -0.0918  0.0903
13837TIP3    H163002   2.054   1.991   3.206  0.7420 -3.3998  0.7813
13837TIP3    H263003   1.968   2.007   3.329  0.3553 -0.3864  0.1927
13838TIP3   OH263004   2.164   6.285   4.352  0.1787  0.1631 -0.2090
13838TIP3    H163005   2.163   6.189   4.358  1.1901 -0.1104 -2.8720
13838TIP3    H263006   2.077   6.307   4.318 -0.4345  0.3418  1.3894
13839TIP3   OH263007   6.659   2.559  14.377 -0.3121 -0.6370 -0.2017
13839TIP3    H163008   6.642   2.495  14.447 -0.0563 -0.8809 -0.3612
13839TIP3    H263009   6.618   2.520  14.300 -1.6993  0.2193  0.0713
13840TIP3   OH263010   2.100   4.525  11.362  0.0564 -0.1892  0.1620
13840TIP3    H163011   2.137   4.554  11.278 -0.0149  0.0149  0.2015
13840TIP3    H263012   2.023   4.581  11.375  0.5242  0.3249  0.7526
13841TIP3   OH263013   5.129   0.822   2.911 -0.2299 -0.0039  0.1346
13841TIP3    H163014   5.214   0.841   2.952  0.5866  0.3161 -1.6146
13841TIP3    H263015   5.099   0.743   2.955  1.0642 -0.2143  0.7040
13842TIP3   OH263016   2.201   6.025  12.579 -1.0049  0.1876 -0.1273
13842TIP3    H163017   2.123   6.032  12.524 -0.4096 -0.7099 -1.1118
13842TIP3    H263018   2.225   5.933  12.575  0.7886  0.6435 -0.8047
13843TIP3   OH263019   5.909   5.777   1.146 -0.1938 -0.6289  0.5282
13843TIP3    H163020   5.838   5.819   1.098  2.8540  2.9786 -1.4759
13843TIP3    H263021   5.943   5.711   1.085  0.3429  0.1872 -0.0786
13844TIP3   OH263022   3.682   0.759  16.086  0.1384  0.4962 -0.4773
13844TIP3    H163023   3.597   0.801  16.074  0.2210  0.8375  0.1086
13844TIP3    H263024   3.669   0.697  16.157  0.1096 -0.2235 -1.1006
13845TIP3   OH263025   0.420   6.148  14.125  0.0437  0.0421 -0.4751
13845TIP3    H163026   0.429   6.229  14.074  0.9198 -1.0067 -2.0488
13845TIP3    H263027   0.497   6.097  14.102  0.0609 -0.8134  1.3333
13846TIP3   OH263028   0.717   1.356   1.635  0.1203 -0.3282  0.1536
13846TIP3    H163029   0.683   1.325   1.551  0.8699 -1.9583  0.4007
13846TIP3    H263030   0.641   1.353   1.694 -0.0400 -0.8482 -0.0700
13847TIP3   OH263031   5.226   0.971  16.528 -0.1471 -0.2451 -0.3594
13847TIP3    H163032   5.174   0.893  16.505  0.7029 -0.6275 -1.0622
13847TIP3    H263033   5.265   0.950  16.612 -2.0908  0.5525  0.8048
13848TIP3   OH263034   6.456   3.733   4.301 -0.0273  0.0494  0.2950
13848TIP3    H163035   6.508   3.799   4.254 -0.3349 -0.1777 -0.3719
13848TIP3    H263036   6.437   3.773   4.386 -1.1971  1.3088 -0.5232
13849TIP3   OH263037   3.797   2.858  16.677 -0.0918  0.0332 -0.2883
13849TIP3    H163038   3.889   2.850  16.650 -0.1725 -1.6526 -0.2141
13849TIP3    H263039   3.751   2.791  16.626 -1.0021 -0.2134  0.8019
13850TIP3   OH263040   4.764   1.611  16.170 -0.4151 -0.3418 -0.3183
13850TIP3    H163041   4.754   1.692  16.120  1.7175 -0.8214 -1.6972
13850TIP3    H263042   4.733   1.632  16.258 -0.1158  1.9088 -0.6992
13851TIP3   OH263043   4.691   4.663   2.079 -1.0494 -0.0186 -0.0792
13851TIP3    H163044   4.758   4.636   2.016 -1.3990  2.1702 -1.4748
13851TIP3    H263045   4.640   4.584   2.094  0.1246 -1.0294 -1.1532
13852TIP3   OH263046   5.479   0.721  12.032 -0.0702 -0.3202  0.9317
13852TIP3    H163047   5.417   0.728  11.960  0.3228 -0.4546  0.5802
13852TIP3    H263048   5.531   0.801  12.027 -0.2250 -0.1987  1.2368
13853TIP3   OH263049   2.135   3.384   1.478 -0.1392 -0.7678  0.3429
13853TIP3    H163050   2.110   3.344   1.395 -1.1813  0.6521 -0.0661
13853TIP3    H263051   2.097   3.327   1.545  1.7417 -2.6047 -0.0628
13854TIP3   OH263052   5.779   2.327  12.498  0.2561  0.0649 -0.0604
13854TIP3    H163053   5.780   2.344  12.404 -1.7632 -1.3510 -0.4364
13854TIP3    H263054   5.751   2.409  12.538  0.0761  0.3800 -0.8251
13855TIP3   OH263055   3.691   6.588  15.853  0.0852 -0.3970  0.6779
13855TIP3    H163056   3.689   6.526  15.779 -0.6294 -2.4992  2.3698
13855TIP3    H263057   3.654   6.539  15.926  0.5671  1.7016  2.4101
13856TIP3   OH263058   0.313   3.150  15.775  0.3074  0.1969  0.0522
13856TIP3    H163059   0.380   3.136  15.842 -0.1991  0.5883  0.6498
13856TIP3    H263060   0.251   3.078  15.788  0.2593  0.2191 -0.0594
13857TIP3   OH263061   4.292   0.088   2.818  0.4231 -0.3149 -0.3654
13857TIP3    H163062   4.269   0.133   2.738  1.1375 -0.9821 -0.9688
13857TIP3    H263063   4.306   0.157   2.882 -0.1847  0.2211 -0.8057
13858TIP3   OH263064   0.052   5.645   2.716 -0.2466  0.0083  0.1878
13858TIP3    H163065   0.110   5.599   2.777 -0.1314 -1.2268 -0.8270
13858TIP3    H263066  -0.016   5.581   2.695  0.5637 -0.1780 -2.1828
13859TIP3   OH263067   0.324   4.199  12.057  0.5954 -0.2599 -0.3435
13859TIP3    H163068   0.237   4.158  12.054 -0.6466  2.0671  1.0617
13859TIP3    H263069   0.330   4.249  11.976 -0.5416  1.5864  0.6263
13860TIP3   OH263070   5.883   6.216   4.197  0.3416 -0.1920  0.2133
13860TIP3    H163071   5.944   6.283   4.166 -0.4635  0.9066  0.9586
13860TIP3    H263072   5.816   6.211   4.129 -0.3002  0.7080  0.7751
13861TIP3   OH263073   1.756   4.959   1.354  0.1118  0.4028  0.0356
13861TIP3    H163074   1.813   5.036   1.349 -0.5614  0.8940 -0.0984
13861TIP3    H263075   1.700   4.965   1.277  0.2289 -0.3709 -0.1194
13862TIP3   OH263076   6.519   2.840   0.355  0.0728  0.5823  0.2062
13862TIP3    H163077   6.611   2.856   0.377  0.0961  1.6055 -0.5520
13862TIP3    H263078   6.498   2.909   0.292 -0.6876 -0.7641 -1.0629
13863TIP3   OH263079   1.745   1.719  14.709 -0.2576 -0.3504 -0.2881
13863TIP3    H163080   1.690   1.792  14.736 -0.7681 -0.2841 -1.4240
13863TIP3    H263081   1.834   1.747  14.730 -0.3995  0.8238 -1.1183
13864TIP3   OH263082   2.113   5.218  14.258 -1.1030  0.4573  0.2220
13864TIP3    H163083   2.133   5.124  14.248 -1.3740  0.3463  0.6939
13864TIP3    H263084   2.196   5.262  14.241 -0.6828  0.0602  1.1787
13865TIP3   OH263085   6.065   4.368   2.355 -0.0172  0.2380 -0.0084
13865TIP3    H163086   6.017   4.353   2.437 -0.4248 -1.5492 -0.5384
13865TIP3    H263087   6.023   4.445   2.317 -1.1269 -0.0657  0.5357
13866TIP3   OH263088   2.782   6.790  15.918 -0.4000  0.5090 -0.0509
13866TIP3    H163089   2.691   6.782  15.889 -0.2801 -1.5116 -0.0663
13866TIP3    H263090   2.781   6.754  16.007 -0.0281  2.7994  0.9462
13867TIP3   OH263091   2.453   4.291   6.272  0.0203 -1.0718 -0.5241
13867TIP3    H163092   2.430   4.222   6.334  0.2819 -0.5284  0.1984
13867TIP3    H263093   2.386   4.286   6.204 -1.2656 -0.6114  0.6647
13868TIP3   OH263094   6.541   2.041  13.880  0.6894 -0.3048  0.6938
13868TIP3    H163095   6.606   2.037  13.950  1.8805 -0.8407 -0.4315
13868TIP3    H263096   6.489   1.961  13.891  2.3563 -1.5901 -0.4308
13869TIP3   OH263097   5.222   5.156   5.945  0.1311  0.7351 -0.0313
13869TIP3    H163098   5.295   5.185   6.000 -0.4374  0.2813  1.0003
13869TIP3    H263099   5.152   5.138   6.007  0.1643 -2.0416 -0.6635
13870TIP3   OH263100   2.433   5.863  10.692  0.1053  0.8629  0.4738
13870TIP3    H163101   2.396   5.830  10.774 -2.1254  0.8096 -0.4869
13870TIP3    H263102   2.519   5.897  10.717  0.1176 -0.4854  2.5434
13871TIP3   OH263103   0.817   5.155  16.944 -0.2109 -0.0372  0.0606
13871TIP3    H163104   0.880   5.211  16.899 -0.0268 -0.8159 -0.6473
13871TIP3    H263105   0.732   5.181  16.908 -0.2340  0.4664  0.4544
13872TIP3   OH263106   0.317   0.686   2.022 -0.3795 -0.1660  0.0615
13872TIP3    H163107   0.348   0.655   1.937  1.6324 -0.1499  0.7391
13872TIP3    H263108   0.377   0.646   2.086  0.6142  2.7767  1.1842
13873TIP3   OH263109   6.157   2.709  15.004  0.8865 -0.1234 -0.1473
13873TIP3    H163110   6.158   2.730  15.098 -0.0036  0.3678 -0.2390
13873TIP3    H263111   6.106   2.629  14.998 -1.3503  1.2459 -0.4520
13874TIP3   OH263112   5.991   1.039   3.647 -0.5079 -0.1424  0.0086
13874TIP3    H163113   5.986   1.003   3.735 -0.3451 -0.4041 -0.0912
13874TIP3    H263114   6.012   0.965   3.591  1.7867  0.4138  0.0423
13875TIP3   OH263115   2.693   5.356   1.297  0.4210  0.3703  0.0455
13875TIP3    H163116   2.622   5.351   1.233  1.4740  0.3805 -1.1645
13875TIP3    H263117   2.672   5.288   1.361  0.2196 -0.8511 -1.2511
13876TIP3   OH263118   2.120   2.311   2.716 -0.1866  0.5101  0.8868
13876TIP3    H163119   2.042   2.311   2.661 -0.9132  1.0366  1.8730
13876TIP3    H263120   2.099   2.254   2.790  2.0624 -3.1313 -0.9874
13877TIP3   OH263121   4.471   2.505   1.902 -0.6550 -0.0199 -0.1261
13877TIP3    H163122   4.441   2.472   1.987 -3.3891 -0.1696 -1.0489
13877TIP3    H263123   4.397   2.488   1.843  1.5371 -0.9120 -2.8049
13878TIP3   OH263124   6.348   4.147  11.093 -0.3756  0.1197 -0.4659
13878TIP3    H163125   6.317   4.174  11.007  1.9024 -0.7575 -1.6554
13878TIP3    H263126   6.374   4.228  11.136 -1.1289  0.5251 -0.7706
13879TIP3   OH263127   4.958   0.658   0.853  0.0299  0.5933  0.3157
13879TIP3    H163128   4.993   0.737   0.894 -1.9190  3.1479 -2.5268
13879TIP3    H263129   4.929   0.604   0.927  0.1713  3.1254  2.3890
13880TIP3   OH263130   3.165   5.646   0.139  0.2611  0.3775 -0.0114
13880TIP3    H163131   3.174   5.691   0.055 -0.3531  1.7559  0.6230
13880TIP3    H263132   3.214   5.701   0.200  1.9451 -1.3735  0.3260
13881TIP3   OH263133   6.596   0.247  16.097 -0.4537 -0.4268 -0.1099
13881TIP3    H163134   6.678   0.255  16.146 -0.9493 -0.5087  0.7594
13881TIP3    H263135   6.575   0.153  16.101 -0.8141 -0.3415  0.0680
13882TIP3   OH263136   0.015   3.996   6.552  0.4520  0.5571  0.1348
13882TIP3    H163137   0.071   4.065   6.590  0.3083  0.3377  0.7576
13882TIP3    H263138  -0.068   4.004   6.599  0.3244  0.1750 -0.0261
13883TIP3   OH263139   5.120   5.148   1.442  0.4847  0.7505 -0.2006
13883TIP3    H163140   5.203   5.102   1.430  1.0896  1.4987  0.8849
13883TIP3    H263141   5.135   5.235   1.403 -0.5730  0.1666 -2.0501
13884TIP3   OH263142   6.746   4.384   4.890 -0.0146  0.7403  0.3457
13884TIP3    H163143   6.654   4.392   4.864 -0.0625  0.1921  0.3226
13884TIP3    H263144   6.759   4.454   4.955 -0.9534 -0.2900  1.7209
13885TIP3   OH263145   3.818   5.905  12.023 -0.4168 -0.2426  0.3807
13885TIP3    H163146   3.866   5.974  11.979 -1.0631  0.2531  0.4357
13885TIP3    H263147   3.883   5.860  12.077  0.3161 -0.6303 -0.7915
13886TIP3   OH263148   4.994   4.920  14.412 -0.5758  0.4108 -0.0358
13886TIP3    H163149   4.988   4.874  14.496  0.6756 -0.5392 -0.4258
13886TIP3    H263150   4.980   5.012  14.433 -2.2001 -0.0109  0.9221
13887TIP3   OH263151   5.220   2.810  14.618 -0.1800 -0.2920  0.0174
13887TIP3    H163152   5.187   2.776  14.536  0.6168 -1.6921  0.2472
13887TIP3    H263153   5.293   2.753  14.640 -0.8793 -0.4741  2.1044
13888TIP3   OH263154   1.163   3.223   2.485 -0.2896  0.1547 -0.0296
13888TIP3    H163155   1.162   3.301   2.429 -0.0400  0.3987  0.2999
13888TIP3    H263156   1.150   3.150   2.424 -0.1021  0.4209 -0.3966
13889TIP3   OH263157   3.376   2.091  11.380  0.0728 -0.0881 -0.1963
13889TIP3    H163158   3.300   2.083  11.322 -0.2167  0.3025  0.1143
13889TIP3    H263159   3.390   2.003  11.415  1.1124 -0.6331 -1.9068
13890TIP3   OH263160   3.422   1.969   2.813  0.3443  0.4820 -0.3099
13890TIP3    H163161   3.507   1.925   2.806  0.0433 -0.3168  0.8331
13890TIP3    H263162   3.409   1.983   2.906 -0.1602  1.8865 -0.5599
13891TIP3   OH263163   2.518   3.375  13.092  0.1991  0.5923 -0.3831
13891TIP3    H163164   2.498   3.396  13.183  0.2093 -1.2599  0.1025
13891TIP3    H263165   2.454   3.424  13.041 -3.7562 -2.5672  0.9373
13892TIP3   OH263166   1.335   4.269   4.434  0.2360 -0.2285 -0.5851
13892TIP3    H163167   1.284   4.240   4.509 -0.3538  0.2219 -0.7951
13892TIP3    H263168   1.424   4.280   4.467 -0.2082  0.9001  0.3052
13893TIP3   OH263169   2.306   2.538   4.653  0.1302 -0.5309 -0.2151
13893TIP3    H163170   2.275   2.450   4.630 -0.5392 -0.9844  2.1982
13893TIP3    H263171   2.242   2.570   4.717  0.6669  1.5220 -0.6389
13894TIP3   OH263172   5.199   5.101  15.702  0.4024  0.0826  0.1048
13894TIP3    H163173   5.142   5.057  15.764 -2.2231  1.6356 -1.0077
13894TIP3    H263174   5.200   5.044  15.625  2.3491 -1.0601  0.9025
13895TIP3   OH263175   1.006   3.549   3.067 -0.8559 -0.5377  0.3462
13895TIP3    H163176   1.046   3.474   3.111 -0.1144 -0.5776 -0.3575
13895TIP3    H263177   0.953   3.510   2.997 -0.1095 -0.4178 -0.3113
13896TIP3   OH263178   5.092   4.137   6.680 -0.0759  1.3117  0.1768
13896TIP3    H163179   5.099   4.044   6.703  0.7464  1.5110  0.7754
13896TIP3    H263180   5.178   4.173   6.701  0.0518  1.9379 -1.3160
13897TIP3   OH263181   0.574   5.141  15.700 -0.0365  0.0463 -0.2813
13897TIP3    H163182   0.484   5.110  15.712 -0.9525  2.2567 -0.9476
13897TIP3    H263183   0.605   5.158  15.789 -1.5526  2.4314 -0.0989
13898TIP3   OH263184   5.689   0.449   2.369 -0.4312 -0.3079 -0.3141
13898TIP3    H163185   5.755   0.391   2.408  0.2027  0.0267 -0.8680
13898TIP3    H263186   5.724   0.470   2.283 -1.1236  0.1243 -0.4931
13899TIP3   OH263187   0.584   3.533  15.217  0.4819 -0.2376 -0.3562
13899TIP3    H163188   0.530   3.589  15.273  0.3419 -0.9316  0.2181
13899TIP3    H263189   0.550   3.546  15.129  0.6653  0.8256 -0.2756
13900TIP3   OH263190   3.113   4.630   0.579 -0.2591 -0.3014 -0.4323
13900TIP3    H163191   3.180   4.566   0.601  1.2190  0.3849 -2.6454
13900TIP3    H263192   3.065   4.644   0.661  1.1466 -2.1235  0.7717
13901TIP3   OH263193   0.261   2.356  13.498  0.1771  0.1982  0.3862
13901TIP3    H163194   0.250   2.347  13.593 -1.7775 -3.3295  0.0240
13901TIP3    H263195   0.254   2.266  13.465 -0.4912  1.4121 -3.2053
13902TIP3   OH263196   1.080   2.937   4.024 -0.1226 -0.2458  0.7883
13902TIP3    H163197   1.048   2.964   3.938 -1.9556 -0.7034  1.2753
13902TIP3    H263198   1.093   2.842   4.017 -1.9355 -0.5930  1.4349
13903TIP3   OH263199   3.804   6.393  14.260  0.0303 -0.0501 -0.0928
13903TIP3    H163200   3.755   6.361  14.335  2.1791  0.6862  1.7505
13903TIP3    H263201   3.768   6.345  14.185 -3.7467  0.8140  0.9723
13904TIP3   OH263202   6.513   1.752  16.550  0.3817  0.9252 -0.2094
13904TIP3    H163203   6.504   1.832  16.603  2.3149  1.2468 -0.2819
13904TIP3    H263204   6.600   1.760  16.511  0.8707 -1.4801  0.2459
13905TIP3   OH263205   1.486   0.477   2.591  0.4696  0.4046 -0.3379
13905TIP3    H163206   1.543   0.554   2.587 -2.4435  2.7000 -1.1794
13905TIP3    H263207   1.482   0.446   2.501  0.2318  0.3599 -0.3105
13906TIP3   OH263208   1.482   1.716  13.014 -0.3059  0.1396 -0.3469
13906TIP3    H163209   1.501   1.759  12.931  2.3227 -1.9621 -1.0154
13906TIP3    H263210   1.562   1.729  13.067  0.0974 -2.5714 -0.1016
13907TIP3   OH263211   3.981   0.073   4.609  0.1842  0.1379 -0.6666
13907TIP3    H163212   3.918   0.001   4.611  0.0401  0.2509 -0.9767
13907TIP3    H263213   3.978   0.104   4.518  1.0618 -0.1759 -0.8057
13908TIP3   OH263214   0.343   1.046  12.358  0.2292  0.5224  0.1844
13908TIP3    H163215   0.318   1.017  12.445  0.4595 -1.7359 -0.4511
13908TIP3    H263216   0.426   1.001  12.340 -1.0139 -1.0264 -2.1307
13909TIP3   OH263217   4.161   2.032   4.230 -0.8558  0.4038 -0.1598
13909TIP3    H163218   4.190   1.969   4.296  2.1806  1.6040 -0.1900
13909TIP3    H263219   4.204   2.004   4.149 -0.6530  1.6458 -0.5048
13910TIP3   OH263220   5.958   2.624  12.099 -0.2885 -0.0694 -0.0748
13910TIP3    H163221   5.924   2.624  12.010 -0.6170  0.8700  0.0402
13910TIP3    H263222   6.026   2.691  12.099  0.1724 -0.5296  0.2170
13911TIP3   OH263223   2.215   5.827   3.689  0.4018 -0.3588 -0.7440
13911TIP3    H163224   2.195   5.916   3.717  1.5731  0.0825 -1.2560
13911TIP3    H263225   2.290   5.801   3.742 -0.0513 -1.1285 -0.4577
13912TIP3   OH263226   4.415   1.178  17.055 -0.3929 -0.0034  0.4624
13912TIP3    H163227   4.473   1.136  17.119 -0.9746 -0.9019  0.4082
13912TIP3    H263228   4.413   1.270  17.083 -0.3792 -0.3130  1.5397
13913TIP3   OH263229   2.726   3.129  16.732  0.2737 -0.2030 -0.2096
13913TIP3    H163230   2.734   3.054  16.673  1.4909  0.0956 -0.4410
13913TIP3    H263231   2.813   3.140  16.769  0.0692  0.9861 -0.0398
13914TIP3   OH263232   3.573   4.452  16.853 -0.5630  0.1880 -0.1254
13914TIP3    H163233   3.510   4.383  16.834 -0.8684  0.8285 -1.5801
13914TIP3    H263234   3.625   4.418  16.926 -0.1601 -1.9241 -1.3287
13915TIP3   OH263235   5.738   4.387  15.429 -0.6642  0.2620  0.1271
13915TIP3    H163236   5.830   4.401  15.407 -0.1277  2.5393  3.2281
13915TIP3    H263237   5.728   4.292  15.431  1.1285 -0.0350 -1.8795
13916TIP3   OH263238   3.343   1.468  14.210 -0.3099 -0.1364 -0.5012
13916TIP3    H163239   3.429   1.446  14.246 -1.0641  1.1252  2.3773
13916TIP3    H263240   3.341   1.564  14.210 -1.3158 -0.1331 -1.6271
13917TIP3   OH263241   6.239   4.874   5.144 -0.3147  0.0035  0.4214
13917TIP3    H163242   6.284   4.873   5.060  0.0395 -0.8599  0.6148
13917TIP3    H263243   6.153   4.835   5.126  0.5853 -2.3453  0.8846
13918TIP3   OH263244   2.142   0.304   2.099  0.2309  0.8248 -0.3244
13918TIP3    H163245   2.074   0.303   2.031  0.6736 -0.1932 -0.7711
13918TIP3    H263246   2.183   0.390   2.090 -0.9070  1.4112 -0.1272
13919TIP3   OH263247   4.504   6.348   2.339  0.3292 -0.9906  0.0981
13919TIP3    H163248   4.571   6.282   2.356  1.2128  0.0573  0.8154
13919TIP3    H263249   4.551   6.432   2.342 -0.8006 -0.3044 -0.5627
13920TIP3   OH263250   3.667   0.398  12.821  0.7211 -0.8352 -0.5322
13920TIP3    H163251   3.628   0.418  12.736  1.3638  0.4728 -0.5484
13920TIP3    H263252   3.733   0.332  12.802  0.1819 -1.2744 -0.8905
13921TIP3   OH263253   5.799   6.617  14.175  0.1870  0.3404  0.3315
13921TIP3    H163254   5.874   6.602  14.232  0.1464  0.4349  0.4101
13921TIP3    H263255   5.723   6.599  14.230  0.1644 -1.5129 -0.2297
13922TIP3   OH263256   5.169   4.437   5.026 -0.0390 -0.4522 -0.6126
13922TIP3    H163257   5.162   4.532   5.021 -0.7611 -0.5408 -1.6198
13922TIP3    H263258   5.251   4.416   4.981  1.6553 -0.1484  2.0976
13923TIP3   OH263259   4.743   2.323   1.492 -0.0888 -0.3179 -0.3609
13923TIP3    H163260   4.758   2.354   1.582  1.3001  0.6142 -0.8685
13923TIP3    H263261   4.650   2.301   1.489 -0.7686  2.0880  0.6048
13924TIP3   OH263262   2.212   3.557   4.179  0.3645 -0.2779 -0.6694
13924TIP3    H163263   2.242   3.567   4.088  2.1575  0.7086 -0.0133
13924TIP3    H263264   2.167   3.639   4.198  1.7870  0.3905 -0.0561
13925TIP3   OH263265   4.786   1.408  15.935  0.6387  0.6765  0.1962
13925TIP3    H163266   4.799   1.331  15.989 -1.5019 -0.1355 -0.3549
13925TIP3    H263267   4.762   1.477  15.998 -1.6601 -0.2137  0.3895
13926TIP3   OH263268   4.089   3.581  11.866  0.1345  0.1794 -0.3606
13926TIP3    H163269   4.158   3.620  11.920  0.8157 -0.0623 -1.0387
13926TIP3    H263270   4.037   3.656  11.836  0.9704  0.5175 -1.0175
13927TIP3   OH263271   2.353   4.863  14.757 -0.3956  0.3099 -0.3159
13927TIP3    H163272   2.438   4.851  14.715 -0.5224 -0.6081 -0.3234
13927TIP3    H263273   2.371   4.921  14.830  0.2117  0.2480 -0.4091
13928TIP3   OH263274   5.949   3.150  17.071  0.6220  0.1731 -0.1377
13928TIP3    H163275   5.953   3.153  16.976 -0.6959  0.7785 -0.1953
13928TIP3    H263276   5.897   3.072  17.091 -1.1828  1.3295 -0.0374
13929TIP3   OH263277   4.659   0.124  13.446  0.6306 -0.2297  0.6311
13929TIP3    H163278   4.677   0.172  13.527 -0.4768  1.5267 -0.1121
13929TIP3    H263279   4.743   0.119  13.401  1.9001 -3.5086  2.9262
13930TIP3   OH263280   3.134   0.346  14.779 -0.1986 -0.3590  0.3269
13930TIP3    H163281   3.078   0.292  14.835 -2.5856  0.4723 -1.1354
13930TIP3    H263282   3.146   0.427  14.829 -2.9809  0.7016 -0.5273
13931TIP3   OH263283   3.064   2.177  14.656  0.4171  0.3812  0.0549
13931TIP3    H163284   3.112   2.178  14.574  0.5621  1.4874  0.1442
13931TIP3    H263285   3.102   2.248  14.707  0.0162  0.0033  0.9063
13932TIP3   OH263286   0.549   4.329  11.122 -0.0777 -0.3057  0.2060
13932TIP3    H163287   0.543   4.369  11.035  0.8368 -1.5655 -0.4653
13932TIP3    H263288   0.458   4.316  11.149 -0.5088  3.3069  1.0456
13933TIP3   OH263289   4.266   4.991   0.187  1.0337  0.5997 -0.6626
13933TIP3    H163290   4.266   5.087   0.182 -1.6776  0.9568  2.2995
13933TIP3    H263291   4.179   4.966   0.155  0.4542 -0.4911  1.5836
13934TIP3   OH263292   3.912   1.269   5.329  0.1169  0.5790  0.5506
13934TIP3    H163293   3.875   1.298   5.413  0.4313 -1.6524  1.5278
13934TIP3    H263294   3.964   1.192   5.351 -0.1551 -0.3551 -1.7746
13935TIP3   OH263295   3.138   2.958   3.657  0.0499 -0.2597 -0.2192
13935TIP3    H163296   3.138   3.053   3.648 -0.4743  0.2829  3.5699
13935TIP3    H263297   3.231   2.935   3.666  0.1257  0.0368 -0.2265
13936TIP3   OH263298   4.739   2.296  16.476 -0.1702  0.0493 -0.4421
13936TIP3    H163299   4.689   2.376  16.463 -1.4244 -0.7223 -0.5408
13936TIP3    H263300   4.677   2.225  16.456  0.7930 -0.9556  0.0114
13937TIP3   OH263301   3.578   3.195  13.742  0.0417  0.5123  0.2843
13937TIP3    H163302   3.573   3.209  13.647  2.4254  0.9995  0.1679
13937TIP3    H263303   3.491   3.217  13.774 -0.7702  0.5220 -1.7660
13938TIP3   OH263304   4.105   4.095   1.104  0.0840  0.1475  0.9001
13938TIP3    H163305   4.050   4.060   1.034 -1.5441 -1.1171  2.6967
13938TIP3    H263306   4.182   4.038   1.104 -0.2707 -0.3447  0.6169
13939TIP3   OH263307   2.527   5.670   1.551 -0.8872 -0.0429  0.0553
13939TIP3    H163308   2.474   5.621   1.488 -0.9289 -1.7299  1.3202
13939TIP3    H263309   2.544   5.607   1.622 -0.1788  1.5324  1.3515
13940TIP3   OH263310   1.497   2.231   2.674  0.2418  0.1891  0.2616
13940TIP3    H163311   1.411   2.249   2.636 -0.1313  1.1736  1.4726
13940TIP3    H263312   1.556   2.222   2.599 -1.3637 -3.4154 -0.7599
13941TIP3   OH263313   5.755   2.512  16.786 -0.2521  0.1872  0.4994
13941TIP3    H163314   5.763   2.585  16.847  0.8192  1.6172 -1.2832
13941TIP3    H263315   5.841   2.469  16.788 -0.8281 -1.0078  1.4327
13942TIP3   OH263316   4.014   0.355   2.968  0.2203 -0.1482  0.3858
13942TIP3    H163317   3.934   0.318   3.005  0.2421 -1.5949 -0.9210
13942TIP3    H263318   4.070   0.279   2.951  1.8252  0.8185  1.1086
13943TIP3   OH263319   0.284   0.291  13.091  0.4787  0.2313  0.6124
13943TIP3    H163320   0.248   0.376  13.065  0.9681  0.9157  2.0691
13943TIP3    H263321   0.343   0.268  13.019 -1.0535  0.1888 -0.7040
13944TIP3   OH263322   2.158   0.160  14.696  0.0685 -0.2302  0.2235
13944TIP3    H163323   2.187   0.215  14.768  0.8667 -1.9066  1.2334
13944TIP3    H263324   2.203   0.195  14.619  1.7553 -0.3818  1.0978
13945TIP3   OH263325   4.181   5.463   2.057  0.2233 -0.4718  0.0376
13945TIP3    H163326   4.158   5.554   2.037 -0.8352 -0.4287  1.3719
13945TIP3    H263327   4.246   5.440   1.990  0.8974  1.4245 -0.0209
13946TIP3   OH263328   2.520   5.015   4.029 -0.2271  0.1748 -0.1819
13946TIP3    H163329   2.509   4.921   4.043 -1.6739  0.0244 -1.8794
13946TIP3    H263330   2.564   5.022   3.944 -0.3162  1.0205 -0.1660
13947TIP3   OH263331   3.872   2.203   1.976  0.2009 -0.3928 -0.1960
13947TIP3    H163332   3.855   2.196   2.070  0.4749 -1.4018 -0.2101
13947TIP3    H263333   3.887   2.113   1.947 -0.3206 -0.1521 -1.2978
13948TIP3   OH263334   3.422   1.533  15.922 -0.5854  0.1337 -0.1307
13948TIP3    H163335   3.432   1.618  15.965 -1.5006  0.2850 -0.1909
13948TIP3    H263336   3.328   1.526  15.905 -0.7281 -1.5108  1.1178
13949TIP3   OH263337   1.670   6.560  16.626  0.0501 -0.1349  1.0653
13949TIP3    H163338   1.603   6.573  16.559  1.5891  2.4088 -0.1420
13949TIP3    H263339   1.682   6.465  16.631 -1.3893 -0.4829 -0.9496
13950TIP3   OH263340   6.621   0.120   0.829 -0.3144  0.5001  0.0055
13950TIP3    H163341   6.628   0.116   0.733 -2.6491 -1.3975 -0.1637
13950TIP3    H263342   6.567   0.198   0.845 -1.5713 -0.2570 -0.3939
13951TIP3   OH263343   3.821   0.883   3.045  0.9747 -0.1091 -0.8058
13951TIP3    H163344   3.811   0.953   3.109  0.1460 -0.9245 -0.0145
13951TIP3    H263345   3.892   0.828   3.081 -2.0240 -2.7907  1.6317
13952TIP3   OH263346   4.022   1.045   1.259  0.0513 -0.0642  0.0535
13952TIP3    H163347   3.931   1.035   1.290  0.5436 -0.2371  1.5391
13952TIP3    H263348   4.014   1.089   1.175 -1.3981  0.3352  0.3700
13953TIP3   OH263349   5.308   4.393   0.742  0.2540 -0.0404 -0.0592
13953TIP3    H163350   5.283   4.308   0.706  0.1984  0.0835 -0.3222
13953TIP3    H263351   5.225   4.438   0.759  0.1805 -1.0134  2.5525
13954TIP3   OH263352   4.660   3.020   2.665 -0.4351 -0.6975 -0.3555
13954TIP3    H163353   4.598   3.092   2.651  1.2394  0.7172 -0.7678
13954TIP3    H263354   4.663   3.009   2.760 -1.2069 -0.6763 -0.3250
13955TIP3   OH263355   6.340   0.613   2.394  0.0236 -0.1563 -0.1706
13955TIP3    H163356   6.394   0.552   2.444  2.9060  2.5793  0.3016
13955TIP3    H263357   6.402   0.667   2.345 -2.4467  1.2897 -1.9468
13956TIP3   OH263358   4.256   4.614   4.789 -0.2647 -0.5722  0.3329
13956TIP3    H163359   4.220   4.544   4.844 -0.2151  0.4690  1.7596
13956TIP3    H263360   4.309   4.667   4.849  1.2072 -0.3417 -1.0869
13957TIP3   OH263361   3.950   5.171  12.420  0.4099 -0.3998 -0.4792
13957TIP3    H163362   3.923   5.120  12.343 -1.3878  0.8971 -0.7625
13957TIP3    H263363   3.872   5.173  12.475  0.8313  0.9919  0.0953
13958TIP3   OH263364   3.660   0.309   1.553  0.0214  0.1384 -0.8219
13958TIP3    H163365   3.665   0.214   1.565 -0.8152  0.1173 -0.5928
13958TIP3    H263366   3.567   0.330   1.560  0.1203  0.8965 -1.5157
13959TIP3   OH263367   1.584   0.597  14.488  0.1431 -0.9290  0.0997
13959TIP3    H163368   1.491   0.588  14.506 -0.4214  1.8126 -1.0435
13959TIP3    H263369   1.618   0.650  14.560  0.3859 -0.2580 -0.4941
13960TIP3   OH263370   5.446   1.101   4.167  0.5164 -0.2652  0.2484
13960TIP3    H163371   5.396   1.156   4.228 -1.1658 -1.3529 -0.0680
13960TIP3    H263372   5.463   1.157   4.092  1.8415  0.8235  1.3083
13961TIP3   OH263373   1.234   1.957  14.798 -0.0631  0.2959 -0.0868
13961TIP3    H163374   1.291   1.977  14.724  0.9889 -0.0596  0.6121
13961TIP3    H263375   1.203   2.042  14.829  1.7749  0.6787  0.8204
13962TIP3   OH263376   2.041   6.053  14.796 -0.1644 -0.0220 -0.2273
13962TIP3    H163377   1.977   5.982  14.792  0.8545 -1.0962  1.3235
13962TIP3    H263378   1.992   6.127  14.831 -0.9096 -0.3767 -0.4941
13963TIP3   OH263379   0.840   5.187   3.801  0.2171  0.2734 -0.4720
13963TIP3    H163380   0.867   5.128   3.730  0.3910 -0.5042  0.2180
13963TIP3    H263381   0.807   5.265   3.757 -0.4601 -0.5295 -1.4364
13964TIP3   OH263382   0.551   1.778   5.657 -0.3419  0.1948  0.6374
13964TIP3    H163383   0.606   1.739   5.725  0.0271  0.7852  0.6917
13964TIP3    H263384   0.463   1.777   5.694 -0.2706 -0.2064  0.8012
13965TIP3   OH263385   3.527   0.309  10.715  0.0399 -0.0802  0.1231
13965TIP3    H163386   3.574   0.228  10.697 -0.0010 -0.5855  2.0945
13965TIP3    H263387   3.523   0.354  10.630  1.7657 -1.2154 -0.6102
13966TIP3   OH263388   2.845   3.211  14.827  0.7715  0.0231  0.1937
13966TIP3    H163389   2.930   3.170  14.840  0.6384  0.1991  1.8620
13966TIP3    H263390   2.782   3.138  14.828  0.9494 -0.2273 -2.1432
13967TIP3   OH263391   2.678   1.808  15.275  0.6120 -0.1858 -0.4319
13967TIP3    H163392   2.607   1.786  15.216 -0.5710 -1.0932  1.2642
13967TIP3    H263393   2.687   1.733  15.333  0.8180  1.1718  1.4034
13968TIP3   OH263394   1.827   3.914  12.065 -0.2691  0.3388  0.2111
13968TIP3    H163395   1.744   3.884  12.102  0.1762 -1.2041  0.0264
13968TIP3    H263396   1.832   4.006  12.090 -1.9424  0.4295  0.3855
13969TIP3   OH263397   1.940   3.509  17.236 -0.2962  0.2522 -0.4932
13969TIP3    H163398   1.909   3.582  17.183 -0.7487  0.4916  0.0798
13969TIP3    H263399   1.924   3.538  17.326  0.8010  0.0168 -0.2084
13970TIP3   OH263400   6.218   6.469   5.629  0.0914  0.7479  0.2874
13970TIP3    H163401   6.305   6.508   5.635  0.5998 -0.3082 -0.0178
13970TIP3    H263402   6.221   6.393   5.688 -0.9020  1.1846  0.9369
13971TIP3   OH263403   0.164   5.869  16.291 -0.3469 -0.0311  0.1357
13971TIP3    H163404   0.198   5.882  16.379  0.6761 -2.2435  0.1551
13971TIP3    H263405   0.243   5.862  16.236 -0.9708  1.5364 -1.0068
13972TIP3   OH263406   1.920   5.556   1.404  0.0908 -0.1841 -0.3917
13972TIP3    H163407   1.864   5.573   1.480  0.9105 -0.0972  0.2125
13972TIP3    H263408   1.988   5.622   1.410 -0.0928  0.1187 -1.4830
13973TIP3   OH263409   0.771   4.710   0.865  0.4014 -0.3749  0.0368
13973TIP3    H163410   0.772   4.782   0.928 -2.8386 -0.1463  0.0164
13973TIP3    H263411   0.700   4.654   0.894 -2.4600  0.5762 -4.1020
13974TIP3   OH263412   5.476   1.964   0.099 -0.1018  0.1253 -0.6603
13974TIP3    H163413   5.451   1.949   0.190 -0.9266  0.9626 -0.7281
13974TIP3    H263414   5.485   2.059   0.091  0.2511  0.0468 -1.3853
13975TIP3   OH263415   1.068   2.665   3.964 -0.5057 -1.1333  0.0918
13975TIP3    H163416   0.983   2.668   4.008  0.0134 -1.1911  1.1340
13975TIP3    H263417   1.049   2.635   3.875 -2.0696  2.4620 -0.9660
13976TIP3   OH263418   3.066   4.808   5.031 -1.1244  0.6102  0.1007
13976TIP3    H163419   3.134   4.831   4.967 -0.5508  0.3928  0.6283
13976TIP3    H263420   3.085   4.862   5.107 -0.7533 -0.4127  0.7415
13977TIP3   OH263421   0.231   4.840  14.141  0.7029  0.3433 -0.0620
13977TIP3    H163422   0.326   4.836  14.131  0.5075  0.1189 -2.4731
13977TIP3    H263423   0.212   4.780  14.214  2.2736 -1.1561 -0.8116
13978TIP3   OH263424   5.041   4.695  12.372  0.2663  0.3804  0.4640
13978TIP3    H163425   4.971   4.729  12.428  0.5220  1.8333 -0.0764
13978TIP3    H263426   4.996   4.634  12.312 -0.0128 -1.2061  2.1852
13979TIP3   OH263427   0.113   0.523   6.256 -0.0175 -0.2241 -0.4367
13979TIP3    H163428   0.182   0.582   6.286  2.1206 -3.1610  0.8401
13979TIP3    H263429   0.075   0.488   6.336 -3.5120  1.6453 -1.0703
13980TIP3   OH263430   6.734   2.176  16.941  0.3977  0.1115 -0.0397
13980TIP3    H163431   6.803   2.134  16.889 -0.5024  0.6300 -1.7465
13980TIP3    H263432   6.740   2.135  17.027  0.6830 -2.3071 -1.1171
13981TIP3   OH263433   5.345   6.597   2.445  0.0173 -0.2177 -0.0159
13981TIP3    H163434   5.384   6.648   2.374  0.2187 -0.6308 -0.2098
13981TIP3    H263435   5.386   6.510   2.437 -1.7682 -1.0345 -0.9582
13982TIP3   OH263436   5.415   2.432  15.656  0.5076 -0.2930 -0.4109
13982TIP3    H163437   5.449   2.448  15.568 -0.2766 -0.8490 -0.8225
13982TIP3    H263438   5.436   2.341  15.674 -0.9532 -0.7112 -0.7645
13983TIP3   OH263439   6.751   5.057  14.826 -0.2790 -0.0636  1.1459
13983TIP3    H163440   6.814   5.108  14.776 -0.2837  1.3447  2.5167
13983TIP3    H263441   6.666   5.085  14.793 -0.2515 -0.6137  0.5810
13984TIP3   OH263442   4.768   2.663   1.023 -0.1064  0.3487 -0.0344
13984TIP3    H163443   4.765   2.570   0.998 -0.1577 -0.0500  1.3551
13984TIP3    H263444   4.853   2.673   1.066 -0.8484  0.4719  1.4705
13985TIP3   OH263445   4.269   6.157  12.519  0.7157 -0.0940 -0.3464
13985TIP3    H163446   4.192   6.201  12.483  1.0359  2.0762  1.4403
13985TIP3    H263447   4.272   6.072  12.473 -3.1116 -0.6049  0.0492
13986TIP3   OH263448   4.424   1.503  16.592 -0.6069  0.3747 -0.1412
13986TIP3    H163449   4.384   1.473  16.674  1.0092 -0.0404  0.5447
13986TIP3    H263450   4.414   1.598  16.593 -2.6212  0.2044 -0.5960
13987TIP3   OH263451   0.665   5.974   0.391 -0.0430  0.5127  0.1314
13987TIP3    H163452   0.689   5.954   0.482  0.3754 -1.6826 -0.4016
13987TIP3    H263453   0.651   6.069   0.390 -1.0298  0.4806  2.6988
13988TIP3   OH263454   1.543   3.281   4.576 -0.0433 -0.0061 -0.2014
13988TIP3    H163455   1.512   3.194   4.601  1.1286 -0.4476 -0.1796
13988TIP3    H263456   1.568   3.272   4.484 -1.0397  0.6434 -0.5380
13989TIP3   OH263457   5.726   3.404   4.299  0.0382 -0.4370 -0.1615
13989TIP3    H163458   5.656   3.345   4.328  0.6198 -1.1127 -0.1030
13989TIP3    H263459   5.741   3.461   4.374  0.0412 -0.7578  0.0830
13990TIP3   OH263460   5.836   1.754   3.210 -0.7924 -0.1700  0.1689
13990TIP3    H163461   5.893   1.781   3.282 -0.4937 -2.2659  0.7607
13990TIP3    H263462   5.747   1.769   3.243 -0.6457  0.8034  0.1614
13991TIP3   OH263463   5.363   3.333  14.407  0.3076 -0.4834 -0.5940
13991TIP3    H163464   5.322   3.369  14.328 -0.4527  1.1928  0.5089
13991TIP3    H263465   5.290   3.295  14.456  0.5364 -0.2023 -0.0271
13992TIP3   OH263466   4.134   3.346   1.130 -0.3392 -0.7904  0.6475
13992TIP3    H163467   4.100   3.302   1.208 -3.1125 -0.7500 -0.4371
13992TIP3    H263468   4.115   3.286   1.058 -2.8811  1.3589 -0.6623
13993TIP3   OH263469   3.214   1.326  13.473 -0.0054 -0.4605 -0.4276
13993TIP3    H163470   3.214   1.420  13.454 -0.5345 -0.4585 -0.4496
13993TIP3    H263471   3.299   1.295  13.442  1.7803  0.6439  2.8069
13994TIP3   OH263472   6.653   3.133   0.696  0.0800  0.0147  0.0299
13994TIP3    H163473   6.652   3.141   0.792 -0.9202  0.8141 -0.0200
13994TIP3    H263474   6.622   3.044   0.679 -0.5267  0.1347  0.4473
13995TIP3   OH263475   1.641   2.765   4.929  0.2351 -0.1300  0.4837
13995TIP3    H163476   1.661   2.672   4.927  0.1556 -0.1980  1.6616
13995TIP3    H263477   1.706   2.802   4.989  0.0660  0.5198  0.2759
13996TIP3   OH263478   6.115   3.039  11.266 -0.4711 -0.6411 -0.1396
13996TIP3    H163479   6.102   2.955  11.222 -1.8484 -0.2931 -0.4291
13996TIP3    H263480   6.028   3.077  11.272 -0.2421 -0.3309  2.2510
13997TIP3   OH263481   0.198   6.617  16.680  0.0154 -0.0406  0.3245
13997TIP3    H163482   0.216   6.683  16.612  0.4041 -0.0753  0.3882
13997TIP3    H263483   0.106   6.594  16.668  0.4609 -1.2291 -1.2482
13998TIP3   OH263484   6.298   6.652  12.342 -0.0599 -0.4825  0.2292
13998TIP3    H163485   6.383   6.663  12.385 -0.7626  0.5531  1.4341
13998TIP3    H263486   6.276   6.740  12.311 -0.1809 -0.9641 -1.1101
13999TIP3   OH263487   0.831   4.093  11.656  0.0056  0.7913  1.0661
13999TIP3    H163488   0.798   4.013  11.697 -2.4759  1.8647  1.3218
13999TIP3    H263489   0.856   4.066  11.568  0.9479 -0.5921  1.7150
14000TIP3   OH263490   2.243   4.936   0.081  0.0900 -0.1691  0.7595
14000TIP3    H163491   2.302   4.863   0.097  0.4570 -0.2110 -0.6786
14000TIP3    H263492   2.277   4.978   0.002 -1.9920 -0.4059 -0.3245
14001TIP3   OH263493   0.544   3.395   1.860 -0.2455 -0.3669  0.2074
14001TIP3    H163494   0.485   3.362   1.927 -0.3144 -1.9686 -0.5816
14001TIP3    H263495   0.630   3.361   1.885 -0.0281  0.1870  0.2201
14002TIP3   OH263496   1.517   4.899   4.527  0.7161 -0.2936 -1.1139
14002TIP3    H163497   1.573   4.824   4.548  0.8511  0.2805  0.7533
14002TIP3    H263498   1.574   4.957   4.475  2.2735  0.6970  1.5052
14003TIP3   OH263499   4.063   2.444   2.357 -0.0623 -0.1822 -0.1930
14003TIP3    H163500   4.134   2.509   2.361 -1.6708  1.6605  0.4541
14003TIP3    H263501   3.988   2.494   2.326 -1.1447 -2.0107 -0.6045
14004TIP3   OH263502   2.443   4.537  14.854 -0.3257  0.5852  0.6268
14004TIP3    H163503   2.432   4.623  14.812 -1.0440  0.4522  0.5332
14004TIP3    H263504   2.354   4.502  14.861 -0.0117 -0.2788  0.4083
14005TIP3   OH263505   2.585   0.399  14.970 -0.2649  0.2186 -0.3889
14005TIP3    H163506   2.538   0.404  15.052  0.2182 -0.0698 -0.0903
14005TIP3    H263507   2.584   0.306  14.946  1.3316 -0.0292  0.3408
14006TIP3   OH263508   0.607   4.897  12.605  0.2103  0.1377 -0.2069
14006TIP3    H163509   0.644   4.946  12.678 -0.1654  0.5728 -0.3034
14006TIP3    H263510   0.546   4.958  12.563  1.9582  0.6806 -2.1654
14007TIP3   OH263511   6.233   5.627  15.856 -0.6352  0.1595  0.0851
14007TIP3    H163512   6.312   5.662  15.817 -0.7037  0.7006  0.4146
14007TIP3    H263513   6.239   5.652  15.949 -1.1730  0.1874  0.1175
14008TIP3   OH263514   2.278   3.123  12.420  0.0447  0.5698 -0.0043
14008TIP3    H163515   2.236   3.073  12.490  1.6891 -0.2797  0.4116
14008TIP3    H263516   2.258   3.073  12.341  0.8048 -0.1893  0.2756
14009TIP3   OH263517   0.110   6.316   4.424  0.5943 -0.1194 -0.1400
14009TIP3    H163518   0.017   6.317   4.400  0.8026 -0.2189 -0.9466
14009TIP3    H263519   0.110   6.279   4.513 -0.2706  1.2872  0.4871
14010TIP3   OH263520   2.537   6.810   3.298 -0.2589  0.2131 -0.5514
14010TIP3    H163521   2.536   6.769   3.211 -4.1174  0.6646 -0.8728
14010TIP3    H263522   2.476   6.883   3.291  1.2747  1.8803  1.9048
14011TIP3   OH263523   0.506   5.705   1.895  0.5640  0.0341  0.0632
14011TIP3    H163524   0.518   5.784   1.842 -0.1134  0.2904  0.2734
14011TIP3    H263525   0.569   5.642   1.860  1.4983  0.8487  0.2684
14012TIP3   OH263526   1.087   1.507  11.489 -0.6830  0.2467  0.4011
14012TIP3    H163527   1.120   1.416  11.489 -1.9786 -0.2499  1.5316
14012TIP3    H263528   1.127   1.546  11.412  1.0431 -0.8693  0.6592
14013TIP3   OH263529   1.169   4.886  10.461  0.1720 -0.4581 -0.2649
14013TIP3    H163530   1.251   4.914  10.420  0.4533 -0.8594  0.0106
14013TIP3    H263531   1.101   4.935  10.415  0.6417  0.7100  0.2406
14014TIP3   OH263532   6.186   4.468   4.757  0.2860 -0.0070  0.4149
14014TIP3    H163533   6.196   4.429   4.670  1.2855  0.2241  0.4124
14014TIP3    H263534   6.118   4.416   4.799 -1.3665  0.8506 -1.0487
14015TIP3   OH263535   2.550   1.583   2.232 -0.0379  0.2228  0.1167
14015TIP3    H163536   2.640   1.579   2.199 -0.3461 -0.1699 -0.7102
14015TIP3    H263537   2.530   1.493   2.259  0.3324  0.6052  1.7684
14016TIP3   OH263538   6.353   0.714   4.164 -0.3404  0.4695  0.1705
14016TIP3    H163539   6.366   0.636   4.218 -2.8516  0.1247  0.3962
14016TIP3    H263540   6.400   0.783   4.211  0.4699 -0.5482  0.8973
14017TIP3   OH263541   0.115   6.632   5.335 -0.1285  0.6474  0.3018
14017TIP3    H163542   0.127   6.553   5.387  1.1557  0.5692 -0.0606
14017TIP3    H263543   0.088   6.699   5.398 -0.1952  0.1646  0.7868
14018TIP3   OH263544   4.119   0.074   2.192  0.2455  0.1752 -0.3527
14018TIP3    H163545   4.192   0.014   2.173  0.4045  0.5038 -0.8285
14018TIP3    H263546   4.058   0.022   2.243  2.3039  0.8085  3.0372
14019TIP3   OH263547   3.705   6.171   0.506 -0.1117  0.1353 -0.2970
14019TIP3    H163548   3.799   6.161   0.487  0.5777  3.8713  0.3690
14019TIP3    H263549   3.662   6.153   0.423  1.2110 -1.2061 -0.7377
14020TIP3   OH263550   1.092   3.229   5.304 -0.0395 -0.4626  0.0364
14020TIP3    H163551   1.145   3.269   5.372  0.7059  0.4013 -1.0271
14020TIP3    H263552   1.060   3.303   5.251  1.5280 -1.2177 -2.0832
14021TIP3   OH263553   0.986   3.008  13.916 -0.1852 -0.0744 -0.5189
14021TIP3    H163554   0.974   2.964  13.831 -1.1073  1.6373 -1.3318
14021TIP3    H263555   0.896   3.023  13.947  0.1378  0.1337  0.3304
14022TIP3   OH263556   5.028   6.029   2.295  0.0030 -0.9868  0.1760
14022TIP3    H163557   4.946   6.050   2.250 -0.1164  0.4398  1.0056
14022TIP3    H263558   5.093   6.087   2.254  0.5144 -1.7711 -0.1494
14023TIP3   OH263559   0.843   5.757  12.392 -0.7034 -0.6002 -0.5096
14023TIP3    H163560   0.802   5.820  12.333 -1.1287 -0.6447 -0.2673
14023TIP3    H263561   0.935   5.754  12.365 -0.2133  1.5912  0.7013
14024TIP3   OH263562   2.411   6.603  12.485 -0.2646 -0.3440  0.3704
14024TIP3    H163563   2.389   6.533  12.424  0.4109 -0.2413 -0.0024
14024TIP3    H263564   2.449   6.672  12.431  0.7722 -0.4326  0.9482
14025TIP3   OH263565   5.491   6.128   5.627  0.0567 -0.0198  0.5671
14025TIP3    H163566   5.526   6.175   5.702 -0.7020 -0.0366  0.9411
14025TIP3    H263567   5.402   6.103   5.653  0.7632 -2.5663  0.7765
14026TIP3   OH263568   2.386   6.067  11.148 -0.3863  0.2491  0.0185
14026TIP3    H163569   2.418   6.079  11.059  0.0341  0.0101  0.1367
14026TIP3    H263570   2.343   5.981  11.147  0.7969 -0.3647  0.3798
14027TIP3   OH263571   5.022   5.659  16.223 -0.4022  0.3390  0.1337
14027TIP3    H163572   5.005   5.714  16.146 -1.3632 -1.4538 -1.0073
14027TIP3    H263573   5.113   5.676  16.245 -0.0300  0.7495 -1.5509
14028TIP3   OH263574   2.812   2.416  10.163  0.1602 -0.0564 -0.1646
14028TIP3    H163575   2.757   2.366  10.223  1.2371 -0.1196  0.8187
14028TIP3    H263576   2.752   2.476  10.118 -0.4618  1.2551  2.2607
14029TIP3   OH263577   1.212   2.004   1.826  0.6149  0.2954  0.0559
14029TIP3    H163578   1.222   2.079   1.767  1.1083 -0.2627 -0.5923
14029TIP3    H263579   1.200   1.929   1.767 -1.3237  0.0451  0.7147
14030TIP3   OH263580   3.465   4.642   3.862  0.6134  0.2900 -0.5191
14030TIP3    H163581   3.529   4.713   3.863  0.8254  0.1280  1.3616
14030TIP3    H263582   3.390   4.678   3.816  0.8974  1.5966 -0.0058
14031TIP3   OH263583   3.589   4.378   3.113 -0.8044 -0.2653  0.0968
14031TIP3    H163584   3.574   4.300   3.059  1.7490  0.0805 -1.2569
14031TIP3    H263585   3.672   4.360   3.158 -1.1939  0.8587  1.3158
14032TIP3   OH263586   3.963   4.968   2.115  0.3288 -0.5579  0.2579
14032TIP3    H163587   3.874   4.984   2.083  0.4215 -1.3976 -0.4422
14032TIP3    H263588   3.992   5.054   2.147 -0.3614 -0.0521 -0.4300
14033TIP3   OH263589   4.446   3.154   4.181 -0.5002  0.5887 -0.1735
14033TIP3    H163590   4.361   3.120   4.206 -0.7363  1.3364  0.0638
14033TIP3    H263591   4.427   3.219   4.113  0.1298 -1.5145 -2.4989
14034TIP3   OH263592   2.204   1.363   5.807  0.3069 -0.6782  0.1772
14034TIP3    H163593   2.263   1.291   5.784  0.9485 -0.2614  0.4744
14034TIP3    H263594   2.218   1.376   5.901  1.0760  0.5809 -0.0737
14035TIP3   OH263595   0.618   3.962  13.731  0.2436  0.3018  0.0528
14035TIP3    H163596   0.613   4.031  13.796 -1.9588  0.4382 -0.1812
14035TIP3    H263597   0.706   3.970  13.694  0.6521  1.8274  1.2572
14036TIP3   OH263598   0.102   5.210   4.059 -0.6068  0.2410  0.2443
14036TIP3    H163599   0.013   5.236   4.080 -1.5737 -1.1762 -1.7629
14036TIP3    H263600   0.114   5.126   4.103 -0.5089  0.0999 -0.0507
14037TIP3   OH263601   4.600   4.035   4.154  0.8255 -0.2155  0.3225
14037TIP3    H163602   4.566   4.125   4.156 -0.6415 -0.7443  0.6101
14037TIP3    H263603   4.689   4.042   4.188 -0.0517  0.8135  2.6065
14038TIP3   OH263604   0.537   6.091   2.433  0.2118  0.1522 -0.3882
14038TIP3    H163605   0.519   6.014   2.486 -1.3596  1.4649  1.1490
14038TIP3    H263606   0.467   6.152   2.457  1.9257  2.4032 -0.7993
14039TIP3   OH263607   4.782   0.608  14.659 -0.1986 -0.6130  0.1427
14039TIP3    H163608   4.825   0.612  14.745  1.0044 -2.1000 -0.3515
14039TIP3    H263609   4.769   0.515  14.642 -1.1602 -0.3071 -0.9498
14040TIP3   OH263610   6.724   3.988  12.273 -0.6749 -0.2978  0.0976
14040TIP3    H163611   6.778   3.911  12.252 -1.1962 -0.9072  0.9228
14040TIP3    H263612   6.783   4.046  12.321 -0.4907 -0.5478  0.1781
14041TIP3   OH263613   1.691   5.890  15.565 -0.0681 -0.2824  0.6334
14041TIP3    H163614   1.786   5.896  15.555 -0.1890  0.0734 -0.4563
14041TIP3    H263615   1.664   5.976  15.594 -0.0931 -0.2623  0.5530
14042TIP3   OH263616   2.765   4.892  12.448 -0.1172 -0.5605 -0.3643
14042TIP3    H163617   2.687   4.915  12.398 -0.0760 -0.8599 -0.5680
14042TIP3    H263618   2.746   4.922  12.537  0.8191  2.2758 -1.0183
14043TIP3   OH263619   6.146   1.466   0.786  0.1805 -0.8636 -0.1257
14043TIP3    H163620   6.151   1.514   0.869  0.9874  0.5629 -0.9727
14043TIP3    H263621   6.205   1.392   0.798 -1.7515 -2.2673  1.5258
14044TIP3   OH263622   4.674   6.065  16.680 -0.2250 -0.0209  0.0379
14044TIP3    H163623   4.666   6.055  16.585 -0.1972  1.7951 -0.1856
14044TIP3    H263624   4.693   5.977  16.711 -4.4303 -1.5905 -1.1726
14045TIP3   OH263625   0.851   6.503   4.391 -0.2942  0.1002  0.0746
14045TIP3    H163626   0.874   6.543   4.307  1.5721 -1.6087 -0.2971
14045TIP3    H263627   0.755   6.507   4.393 -0.3421  1.0913 -1.6508
14046TIP3   OH263628   3.946   5.779   2.215  0.3040  0.2558  0.1310
14046TIP3    H163629   3.972   5.771   2.307 -0.1954 -0.5255  0.2134
14046TIP3    H263630   4.028   5.800   2.169  0.6648  0.0793  0.6817
14047TIP3   OH263631   4.999   4.348  13.193 -0.2058 -0.1132 -0.1316
14047TIP3    H163632   4.967   4.367  13.282 -0.0773  0.2792 -0.1659
14047TIP3    H263633   5.000   4.252  13.188  1.6552 -0.1995  0.9921
14048TIP3   OH263634   5.912   4.835  13.030 -0.2142 -0.2081  0.2890
14048TIP3    H163635   5.889   4.843  13.122  0.0365 -0.3478  0.3630
14048TIP3    H263636   5.907   4.925  12.996 -0.3372 -0.1618  0.4306
14049TIP3   OH263637   4.811   4.026   2.252  0.0980  0.3352  0.2028
14049TIP3    H163638   4.746   3.989   2.312  1.0354 -1.1695  0.3559
14049TIP3    H263639   4.762   4.045   2.172 -0.5880 -0.5367  0.3936
14050TIP3   OH263640   1.089   4.115   2.656  0.3102  0.2508  0.4337
14050TIP3    H163641   1.106   4.204   2.688 -1.3701  1.4722 -1.8038
14050TIP3    H263642   1.176   4.081   2.634  0.9293  1.6645  0.5603
14051TIP3   OH263643   1.167   4.547   2.449 -0.5288  0.8488  0.1022
14051TIP3    H163644   1.222   4.543   2.371  0.1186 -0.1959  0.5844
14051TIP3    H263645   1.085   4.507   2.424 -0.0844 -0.0995  0.1310
14052TIP3   OH263646   2.459   5.748   3.544  0.2690  0.1699 -0.1794
14052TIP3    H163647   2.538   5.795   3.518 -0.4413  1.1374 -0.6970
14052TIP3    H263648   2.485   5.695   3.619  0.9242  2.0729  1.0028
14053TIP3   OH263649   6.233   6.248   5.805  0.0378  0.4705  0.3114
14053TIP3    H163650   6.327   6.239   5.817  0.4968  0.4809 -2.5576
14053TIP3    H263651   6.195   6.222   5.889  2.4832 -1.8007  0.8375
14054TIP3   OH263652   4.825   1.964   2.807 -0.2889  0.2380 -0.2223
14054TIP3    H163653   4.735   1.932   2.808 -0.4946  0.8196  0.2987
14054TIP3    H263654   4.828   2.031   2.875  0.7830 -0.4384  0.4238
14055TIP3   OH263655   2.466   2.277  16.425 -0.0598  0.7662 -0.4211
14055TIP3    H163656   2.443   2.369  16.439 -1.5190  0.5349 -1.1172
14055TIP3    H263657   2.398   2.227  16.471 -0.4550  0.0555 -1.7233
14056TIP3   OH263658   4.080   0.330  12.198 -0.1769  0.0348 -0.5762
14056TIP3    H163659   4.052   0.378  12.121 -0.3724  0.3752 -0.2947
14056TIP3    H263660   4.148   0.384  12.237 -0.5065  0.1623 -0.1730
14057TIP3   OH263661   4.020   5.207  11.764 -0.6898  0.4597  0.4101
14057TIP3    H163662   3.974   5.256  11.695 -1.9139 -1.0655  0.0791
14057TIP3    H263663   3.951   5.184  11.826 -0.6336 -2.5660 -0.4841
14058TIP3   OH263664   1.842   6.017  16.498  0.9027 -0.5816  0.2597
14058TIP3    H163665   1.854   6.107  16.465 -0.9314 -0.0266  1.0000
14058TIP3    H263666   1.755   5.992  16.466 -0.3666 -0.5435  3.3846
14059TIP3   OH263667   4.533   2.520  16.151  0.0732 -0.2416 -0.2046
14059TIP3    H163668   4.443   2.536  16.178  0.4731 -0.4374  1.3733
14059TIP3    H263669   4.584   2.584  16.202  0.8050  0.0890 -1.3198
14060TIP3   OH263670   1.960   2.981   5.256  0.1519  0.0562  0.5123
14060TIP3    H163671   2.025   2.979   5.327  1.0307 -0.6562 -0.2819
14060TIP3    H263672   1.927   3.070   5.256  2.1601  0.8542  0.0439
14061TIP3   OH263673   0.833   3.971  13.545  0.1741  0.3341  0.0089
14061TIP3    H163674   0.816   3.942  13.455  1.5630  0.1242 -0.2088
14061TIP3    H263675   0.889   3.902  13.582 -0.3166  0.4587  1.0141
14062TIP3   OH263676   3.531   2.340  12.625  0.1901 -0.5840  0.3480
14062TIP3    H163677   3.491   2.368  12.543  0.5332 -1.1077 -0.0053
14062TIP3    H263678   3.625   2.337  12.606  0.2495 -0.9540  0.6833
14063TIP3   OH263679   3.993   1.708   1.986  0.2859 -0.0285 -0.0114
14063TIP3    H163680   3.913   1.667   1.952  1.4591 -1.8647 -0.6915
14063TIP3    H263681   4.036   1.639   2.036  0.1747  1.7062  2.7298
14064TIP3   OH263682   1.566   1.860  12.791 -0.1255 -0.2835  0.1214
14064TIP3    H163683   1.630   1.825  12.729 -0.6648  1.1766 -1.3302
14064TIP3    H263684   1.487   1.872  12.739 -0.2662  2.0749  0.7848
14065TIP3   OH263685   2.254   1.150   3.721  0.3096  0.0231 -0.0315
14065TIP3    H163686   2.163   1.175   3.702 -0.6259 -2.5351  0.7285
14065TIP3    H263687   2.268   1.177   3.811  0.0592 -0.2261  0.0824
14066TIP3   OH263688   5.406   4.504   5.862 -0.2826 -0.0107  0.1390
14066TIP3    H163689   5.372   4.472   5.778  0.6458  0.8323 -0.5729
14066TIP3    H263690   5.463   4.434   5.893  1.3170  0.6655 -1.1519
14067TIP3   OH263691   6.493   0.839   2.327 -0.3839  0.0742  0.1124
14067TIP3    H163692   6.490   0.915   2.385 -0.0286  1.2692 -1.3785
14067TIP3    H263693   6.411   0.842   2.279 -1.0627 -1.4040  1.1072
14068TIP3   OH263694   2.903   2.808  10.871 -0.3450 -0.0777 -0.2647
14068TIP3    H163695   2.884   2.715  10.882  1.3128 -0.2532  1.8757
14068TIP3    H263696   2.964   2.811  10.797  0.3544 -0.8451  0.2598
14069TIP3   OH263697   2.977   4.797   1.550 -0.8760 -0.2976 -0.1111
14069TIP3    H163698   3.042   4.867   1.544  0.8756 -1.9153 -0.9733
14069TIP3    H263699   2.927   4.804   1.468 -1.4554  0.5799  0.2943
14070TIP3   OH263700   2.343   5.628   4.529  0.8716  0.0504 -0.6544
14070TIP3    H163701   2.403   5.664   4.463 -0.2504  1.9261 -0.7127
14070TIP3    H263702   2.310   5.705   4.575  2.0860 -1.2078  2.5801
14071TIP3   OH263703   2.521   5.831  16.284 -0.2976 -0.2775  0.2438
14071TIP3    H163704   2.480   5.901  16.233 -0.7642 -0.7989 -0.0964
14071TIP3    H263705   2.466   5.755  16.270 -0.5886 -0.3786  1.7366
14072TIP3   OH263706   1.073   3.537   1.249  0.1644  0.0835  0.1061
14072TIP3    H163707   1.151   3.518   1.198 -0.0838 -1.3237  0.2087
14072TIP3    H263708   1.105   3.546   1.339  0.4095  1.1647 -0.0716
14073TIP3   OH263709   1.379   3.453  14.849 -0.1606 -0.4542  0.0645
14073TIP3    H163710   1.425   3.376  14.882 -0.0768 -1.4122 -2.0983
14073TIP3    H263711   1.374   3.439  14.755  0.3615  2.4671 -0.5061
14074TIP3   OH263712   5.566   1.613   4.166  0.3223  0.1359  0.3405
14074TIP3    H163713   5.520   1.686   4.124 -1.1754 -1.8756 -1.8315
14074TIP3    H263714   5.542   1.619   4.258 -0.1100  2.0931  0.1446
14075TIP3   OH263715   6.041   1.580  11.246  0.6109  0.0949 -0.4596
14075TIP3    H163716   5.946   1.575  11.235  0.1134  0.2168  2.6382
14075TIP3    H263717   6.076   1.589  11.158 -2.0925 -2.1037 -1.9031
14076TIP3   OH263718   4.331   4.849   3.835 -0.0262 -0.3555  0.1093
14076TIP3    H163719   4.420   4.881   3.846 -0.1583 -0.4318  1.6010
14076TIP3    H263720   4.341   4.764   3.793  0.4583  0.4965 -1.6158
14077TIP3   OH263721   5.889   5.863   3.854 -0.0594  0.1455 -0.3887
14077TIP3    H163722   5.799   5.843   3.880 -0.0670 -0.1348 -0.6240
14077TIP3    H263723   5.933   5.778   3.855  0.7087  0.4936  1.5986
14078TIP3   OH263724   0.380   0.345   2.923 -0.6800 -0.0532  0.1414
14078TIP3    H163725   0.407   0.273   2.980 -0.4549  0.0056  0.1103
14078TIP3    H263726   0.458   0.400   2.915 -0.8120  0.1224  0.0562
14079TIP3   OH263727   2.752   1.846  14.122  0.2446  0.2490 -0.4193
14079TIP3    H163728   2.791   1.760  14.107  0.7824  0.2122  1.0764
14079TIP3    H263729   2.811   1.907  14.077  1.4641  0.0896  0.9068
14080TIP3   OH263730   5.255   2.620   0.116 -0.2140 -0.0310  0.4116
14080TIP3    H163731   5.220   2.691   0.170 -0.2480 -0.1437  0.5386
14080TIP3    H263732   5.231   2.540   0.163  0.9495 -0.0810  0.9510
14081TIP3   OH263733   2.824   4.983  14.729 -0.2383  0.7642 -0.0317
14081TIP3    H163734   2.918   4.996  14.737 -0.1931 -0.1962  1.4539
14081TIP3    H263735   2.804   4.915  14.793 -1.7766  0.1637 -1.0804
14082TIP3   OH263736   2.628   0.021   1.818  0.0562  0.6815 -0.3169
14082TIP3    H163737   2.719   0.003   1.794  0.2186  1.6601 -0.4880
14082TIP3    H263738   2.577  -0.011   1.743 -0.2732 -4.4180  1.6703
14083TIP3   OH263739   5.521   6.595   3.125  0.2864  0.6020  0.3876
14083TIP3    H163740   5.471   6.666   3.086 -0.5938  0.9293  2.0536
14083TIP3    H263741   5.462   6.555   3.188  0.5928 -1.9449 -0.8159
14084TIP3   OH263742   5.867   4.699  16.540  0.0702 -0.3403  0.2589
14084TIP3    H163743   5.961   4.684  16.530  0.4189  1.5288  0.3209
14084TIP3    H263744   5.849   4.677  16.631  0.7490  0.5371  0.6277
14085TIP3   OH263745   2.596   1.736   3.078  0.3590 -0.1713 -0.2616
14085TIP3    H163746   2.592   1.646   3.047  1.4875 -0.3732  0.1243
14085TIP3    H263747   2.641   1.731   3.162  1.2345  0.8356 -0.6407
14086TIP3   OH263748   4.936   1.940   5.506  0.6076  0.3194 -0.2132
14086TIP3    H163749   4.992   1.971   5.435  2.0824  0.5956  1.0091
14086TIP3    H263750   4.984   1.963   5.586 -1.3265  0.6676  0.9103
14087TIP3   OH263751   0.907   4.746  15.909 -0.1080  0.1040  0.3901
14087TIP3    H163752   0.980   4.701  15.952 -0.0150  0.0563  0.1827
14087TIP3    H263753   0.855   4.781  15.981  0.0588  0.0419  0.5416
14088TIP3   OH263754   0.245   4.820   1.105 -0.0950 -0.2770  0.0772
14088TIP3    H163755   0.151   4.808   1.114 -0.1064 -0.0477  0.2679
14088TIP3    H263756   0.255   4.880   1.031 -0.1438  0.4531  0.6477
14089TIP3   OH263757   0.676   4.194  16.411  0.6981 -0.6597  0.1566
14089TIP3    H163758   0.652   4.235  16.328  1.5877  0.4652  0.4242
14089TIP3    H263759   0.601   4.139  16.434  1.6013 -3.3930 -2.8481
14090TIP3   OH263760   0.932   4.063  16.454  0.0007 -0.5311 -0.1755
14090TIP3    H163761   0.867   4.128  16.425 -2.3226 -2.7058 -0.2475
14090TIP3    H263762   0.954   4.090  16.543  1.8219  2.2525 -1.3574
14091TIP3   OH263763   0.437   0.430  13.845 -0.0568 -0.2615  0.0757
14091TIP3    H163764   0.392   0.450  13.762  3.2364  0.6027 -1.6583
14091TIP3    H263765   0.529   0.420  13.821  0.9123 -0.9668  3.5381
14092TIP3   OH263766   5.400   1.672  13.356 -0.2652 -0.1370  0.9397
14092TIP3    H163767   5.493   1.695  13.348 -0.1014 -1.1535 -0.5425
14092TIP3    H263768   5.367   1.678  13.267 -1.6868  0.3582  1.4790
14093TIP3   OH263769   6.629   1.469   0.979 -0.1279 -0.0745 -0.1202
14093TIP3    H163770   6.712   1.461   1.026  0.3248 -0.8170 -1.0129
14093TIP3    H263771   6.564   1.437   1.042  0.5228 -1.5160 -0.1405
14094TIP3   OH263772   6.190   6.565   2.636 -0.0335 -0.5013 -0.4791
14094TIP3    H163773   6.226   6.554   2.723 -0.5576  0.8257 -0.0642
14094TIP3    H263774   6.108   6.613   2.650 -0.1632 -0.3343 -1.6879
14095TIP3   OH263775   5.853   2.132  11.765  0.1333  0.4866  0.2999
14095TIP3    H163776   5.794   2.083  11.822  0.5051 -0.1478  0.1391
14095TIP3    H263777   5.941   2.112  11.796  0.2962  0.9508  0.1531
14096TIP3   OH263778   1.586   3.536  12.003 -0.3302 -0.4942 -0.0163
14096TIP3    H163779   1.537   3.455  12.010 -0.2661 -0.5014  0.4476
14096TIP3    H263780   1.535   3.591  11.944 -0.6477 -0.6757  0.0872
14097TIP3   OH263781   6.201   5.460   3.701 -0.0950 -0.8300  0.3146
14097TIP3    H163782   6.191   5.526   3.633 -0.3138  0.2791  1.3748
14097TIP3    H263783   6.235   5.383   3.656 -0.7555 -0.3084 -1.1233
14098TIP3   OH263784   5.413   2.867  12.177  0.2329 -0.1342  0.5352
14098TIP3    H163785   5.325   2.881  12.212  0.4327  0.1799  0.9211
14098TIP3    H263786   5.406   2.786  12.126 -0.5724  0.5530 -0.4768
14099TIP3   OH263787   5.040   2.760   2.891 -0.1512 -0.0375 -0.4003
14099TIP3    H163788   4.956   2.719   2.912 -0.9783  0.9104 -1.7510
14099TIP3    H263789   5.104   2.710   2.943 -1.5271 -0.7577  0.6738
14100TIP3   OH263790   3.127   1.635  11.434 -0.2334  0.0961  0.1484
14100TIP3    H163791   3.109   1.623  11.527 -1.3859 -0.0990 -0.0863
14100TIP3    H263792   3.108   1.727  11.417 -0.0359  0.1290  0.0976
14101TIP3   OH263793   6.088   3.603  12.419  0.8006 -0.0633 -0.1552
14101TIP3    H163794   6.103   3.561  12.504  1.5392  0.4132 -0.0441
14101TIP3    H263795   6.015   3.663  12.434  0.6759 -0.2610  0.0385
14102TIP3   OH263796   1.206   2.875   2.957  0.5529  0.5816  0.3690
14102TIP3    H163797   1.127   2.832   2.990  0.3202  0.9735  0.3275
14102TIP3    H263798   1.255   2.899   3.035  1.0077 -0.3469  0.3828
14103TIP3   OH263799   1.387   0.351   3.552  0.6674 -0.1293  0.2889
14103TIP3    H163800   1.341   0.273   3.521 -1.5152  0.7424  1.1035
14103TIP3    H263801   1.385   0.344   3.647  2.5794 -0.2044  0.3522
14104TIP3   OH263802   1.175   3.295  14.354  0.6820 -0.2990 -0.0495
14104TIP3    H163803   1.221   3.356  14.297  2.5185 -1.1064  0.4934
14104TIP3    H263804   1.194   3.209  14.317  0.5039 -0.7260  0.8235
14105TIP3   OH263805   3.631   1.440  11.936 -0.2509  0.4029  1.1112
14105TIP3    H163806   3.665   1.464  12.021 -0.1084  2.3851  0.5362
14105TIP3    H263807   3.614   1.523  11.892 -1.6464 -0.5511 -0.2761
14106TIP3   OH263808   0.040   1.773   1.977  0.1551 -0.1738  0.1898
14106TIP3    H163809  -0.031   1.711   1.989 -0.1708  0.1048 -0.2261
14106TIP3    H263810   0.043   1.823   2.058  0.0610 -0.3778  0.3177
14107TIP3   OH263811   0.252   0.468  15.817  0.8716  0.0215  0.5130
14107TIP3    H163812   0.345   0.442  15.817  0.9403  0.2008  1.9351
14107TIP3    H263813   0.227   0.467  15.909 -0.2700  0.9714  0.2330
14108TIP3   OH263814   0.870   5.044   5.861  0.6967 -0.1777  0.1323
14108TIP3    H163815   0.830   5.112   5.916 -0.5066 -0.4587 -0.3716
14108TIP3    H263816   0.927   4.996   5.921  2.1642  1.6826  0.3592
14109TIP3   OH263817   3.849   4.585  12.245  0.3450  0.0712  0.2855
14109TIP3    H163818   3.934   4.553  12.275  0.7578 -0.2864 -1.1508
14109TIP3    H263819   3.858   4.590  12.149 -1.0374  0.6532  0.1609
14110TIP3   OH263820   1.957   0.110  15.829  0.1119  0.1547  0.2498
14110TIP3    H163821   2.023   0.114  15.898  0.7632  2.4920 -0.4171
14110TIP3    H263822   1.984   0.035  15.774  0.6249 -0.5836  1.4690
14111TIP3   OH263823   5.933   2.274   2.924  0.1538  0.1504 -0.9625
14111TIP3    H163824   5.951   2.188   2.887 -1.2823 -0.1289 -1.0689
14111TIP3    H263825   5.984   2.334   2.870  1.1399 -0.6209 -0.9078
14112TIP3   OH263826   5.561   2.358  14.715 -0.0248 -0.5258 -0.2349
14112TIP3    H163827   5.547   2.453  14.724 -0.3297 -0.4340 -1.4895
14112TIP3    H263828   5.509   2.333  14.639  2.6378 -1.0907 -2.0236
14113TIP3   OH263829   4.847   1.260  17.256 -0.1992 -0.1566 -0.2205
14113TIP3    H163830   4.928   1.262  17.308 -1.2199 -1.6652  1.5817
14113TIP3    H263831   4.875   1.228  17.170  1.0510 -1.5025  0.6259
14114TIP3   OH263832   0.557   0.660   4.512  0.4353  0.6375 -0.1299
14114TIP3    H163833   0.468   0.689   4.532  0.1591 -1.5010  2.1773
14114TIP3    H263834   0.560   0.660   4.416 -2.0797  0.6626 -0.2964
14115TIP3   OH263835   2.185   4.890   3.745  0.0432 -0.3611 -0.1366
14115TIP3    H163836   2.267   4.840   3.744  0.1415 -0.2549  0.9111
14115TIP3    H263837   2.182   4.934   3.661 -0.2858 -2.5039 -1.3228
14116TIP3   OH263838   6.192   0.432   5.199  0.5252 -1.1043  0.1393
14116TIP3    H163839   6.141   0.476   5.132  1.6494 -0.1670 -0.1277
14116TIP3    H263840   6.220   0.502   5.258  0.0395 -1.8330  1.2661
14117TIP3   OH263841   5.890   3.840  16.778  0.4444 -0.5134  0.0777
14117TIP3    H163842   5.932   3.926  16.770 -0.8138 -0.0139 -2.7062
14117TIP3    H263843   5.939   3.784  16.718 -0.0300 -1.1748  0.2972
14118TIP3   OH263844   0.532   2.022  12.701 -0.4248 -0.8050  0.1557
14118TIP3    H163845   0.578   2.104  12.717 -1.3570 -0.2125 -0.1180
14118TIP3    H263846   0.460   2.046  12.643 -2.9213 -1.0649  2.8582
14119TIP3   OH263847   2.068   5.392   4.014  0.1556  0.6113 -0.0523
14119TIP3    H163848   1.996   5.374   4.074 -0.0303 -1.4256 -0.8159
14119TIP3    H263849   2.145   5.354   4.057 -0.1918 -2.0294 -1.5608
14120TIP3   OH263850   6.294   5.409   1.912 -0.2798  0.5365 -0.0852
14120TIP3    H163851   6.206   5.404   1.948  0.3412  1.2891  1.6964
14120TIP3    H263852   6.329   5.492   1.946  1.8751 -0.7758  1.2132
14121TIP3   OH263853   5.538   4.275  16.079 -0.9151 -0.3157  0.5915
14121TIP3    H163854   5.576   4.359  16.054 -2.5839  0.1552 -0.5419
14121TIP3    H263855   5.552   4.219  16.002  1.9725 -1.8026  2.0315
14122TIP3   OH263856   2.513   5.885   4.367 -0.6726  0.4708 -0.0991
14122TIP3    H163857   2.604   5.898   4.392 -0.6777 -1.7018  1.3637
14122TIP3    H263858   2.468   5.964   4.396  0.5783  1.1756 -0.0178
14123TIP3   OH263859   4.375   6.671   3.368 -0.0124 -0.2694 -0.3214
14123TIP3    H163860   4.371   6.761   3.399 -0.9394 -0.4887  0.2288
14123TIP3    H263861   4.354   6.676   3.275 -0.0987  0.0707 -0.2839
14124TIP3   OH263862   4.770   4.649  11.543 -0.1892  0.3006 -0.0642
14124TIP3    H163863   4.743   4.606  11.625 -0.6346 -0.6354 -0.6838
14124TIP3    H263864   4.865   4.644  11.543 -0.1951  0.1442  0.3242
14125TIP3   OH263865   4.790   4.428   3.272  0.2376 -0.4174 -0.1122
14125TIP3    H163866   4.766   4.361   3.336  0.2897 -0.8580 -0.5498
14125TIP3    H263867   4.824   4.501   3.325 -0.9333 -0.2526  0.4355
14126TIP3   OH263868   6.370   1.115   1.344  0.2570 -0.5035  0.7055
14126TIP3    H163869   6.402   1.190   1.296 -1.5201 -0.1538 -0.0356
14126TIP3    H263870   6.311   1.152   1.411  0.0174 -1.1794  0.8797
14127TIP3   OH263871   5.501   5.144  15.222 -0.0752 -0.4845 -0.2809
14127TIP3    H163872   5.577   5.185  15.180 -0.3798 -0.6137 -0.9683
14127TIP3    H263873   5.529   5.129  15.312 -0.1986  1.8961  0.2078
14128TIP3   OH263874   5.972   3.493  13.220 -0.3901 -0.1035 -0.3190
14128TIP3    H163875   5.878   3.497  13.202 -0.3280 -0.2398 -0.6896
14128TIP3    H263876   6.000   3.584  13.227 -0.3576 -0.0310 -1.2684
14129TIP3   OH263877   2.299   3.846  12.293  0.2326 -0.1404 -0.3411
14129TIP3    H163878   2.247   3.876  12.218 -0.2809  1.5922  0.6568
14129TIP3    H263879   2.236   3.800  12.349  0.2635 -0.0464 -0.2284
14130TIP3   OH263880   2.121   3.651   4.988  0.0457  0.4159 -0.1269
14130TIP3    H163881   2.201   3.654   4.935  0.4430  0.2643  0.4457
14130TIP3    H263882   2.062   3.713   4.946  0.0991 -0.1931 -1.1343
14131TIP3   OH263883   3.018   3.808   2.207 -0.3172  0.2230  0.7343
14131TIP3    H163884   2.955   3.834   2.273 -0.2292  0.0286  0.8975
14131TIP3    H263885   3.078   3.882   2.200 -1.9553  1.4810 -1.2060
14132TIP3   OH263886   3.092   2.272  12.958 -0.2751  1.0514  0.6846
14132TIP3    H163887   3.048   2.292  13.040  2.3949 -1.0659  2.8132
14132TIP3    H263888   3.169   2.329  12.958  0.0785  0.5814 -0.0813
14133TIP3   OH263889   2.953   2.172  10.784 -0.8851 -0.7353 -0.1409
14133TIP3    H163890   3.027   2.207  10.734 -0.8994 -2.0124 -1.0941
14133TIP3    H263891   2.993   2.136  10.863 -0.5746 -0.8071 -0.3279
14134TIP3   OH263892   1.972   4.042  16.058 -0.1747  0.3627  0.0603
14134TIP3    H163893   1.945   3.965  16.008 -0.6025  1.1458 -0.9459
14134TIP3    H263894   2.065   4.054  16.036 -0.4409  0.8952 -0.8449
14135TIP3   OH263895   6.267   6.001  13.316  0.1789 -0.3135 -0.4956
14135TIP3    H163896   6.198   6.051  13.360 -0.3350  0.2989 -1.9575
14135TIP3    H263897   6.235   5.911  13.317  0.4298 -0.4185  0.8324
14136TIP3   OH263898   0.933   0.669  16.100 -0.3143 -0.5238 -0.0265
14136TIP3    H163899   0.908   0.607  16.168 -0.1278 -0.3114  0.2348
14136TIP3    H263900   0.900   0.754  16.131 -1.0788 -0.5812 -0.6519
14137TIP3   OH263901   4.700   6.113  15.598  0.0308 -0.3884 -0.7610
14137TIP3    H163902   4.621   6.165  15.586  0.6306  0.8806  0.5041
14137TIP3    H263903   4.744   6.116  15.514 -0.4099  0.3710 -0.9734
14138TIP3   OH263904   2.831   3.675  16.141 -0.4600 -0.0774  0.4551
14138TIP3    H163905   2.789   3.724  16.070  0.2054  0.2355  0.2679
14138TIP3    H263906   2.818   3.583  16.117  0.4763  0.0204 -0.5192
14139TIP3   OH263907   4.242   3.774   6.300 -0.4530 -0.1946 -0.3600
14139TIP3    H163908   4.239   3.860   6.258 -0.4645  0.4516  0.9172
14139TIP3    H263909   4.160   3.770   6.350 -0.3161 -0.8325 -0.1871
14140TIP3   OH263910   6.765   2.325   2.196 -0.3233  0.5058  0.5401
14140TIP3    H163911   6.700   2.308   2.128 -0.3854  3.0591 -0.1308
14140TIP3    H263912   6.717   2.316   2.279 -0.6409 -0.9644  0.2342
14141TIP3   OH263913   2.602   2.022   3.348 -0.3066  0.1435 -0.3478
14141TIP3    H163914   2.618   2.116   3.341  0.0003  0.0556 -0.8829
14141TIP3    H263915   2.507   2.013   3.337 -0.5250  0.5021  1.0327
14142TIP3   OH263916   6.057   2.052   4.069 -0.4262  0.4283 -0.2144
14142TIP3    H163917   6.060   1.971   4.018 -0.0634 -0.3939  1.0628
14142TIP3    H263918   6.147   2.085   4.066  0.0520 -0.6014  1.3502
14143TIP3   OH263919   2.488   1.335   2.309 -0.6573  0.8343 -0.0258
14143TIP3    H163920   2.554   1.283   2.354  0.2705  0.2974 -1.9083
14143TIP3    H263921   2.407   1.317   2.356 -0.5886 -3.1463 -1.1176
14144TIP3   OH263922   2.419   0.105  16.777  0.2084  0.0893 -0.7437
14144TIP3    H163923   2.353   0.124  16.710  1.9005  1.2356 -2.1472
14144TIP3    H263924   2.459   0.189  16.797  0.1944 -0.3267  1.3137
14145TIP3   OH263925   6.572   4.500   3.637  0.4428  0.5477  0.8925
14145TIP3    H163926   6.635   4.481   3.707 -0.5611  1.2816  2.0586
14145TIP3    H263927   6.542   4.589   3.656  0.3289  0.8654 -0.6503
14146TIP3   OH263928   4.589   6.722   2.148  0.0792 -1.0583  0.3854
14146TIP3    H163929   4.642   6.653   2.108  0.0419 -1.2134  0.6028
14146TIP3    H263930   4.591   6.703   2.242 -0.4535 -1.1335  0.3841
14147TIP3   OH263931   5.981   0.713  13.317  0.1000 -0.0800 -1.0924
14147TIP3    H163932   6.048   0.665  13.268 -0.5352 -0.6455 -1.4109
14147TIP3    H263933   5.920   0.646  13.348 -0.6215  0.4812 -1.2761
14148TIP3   OH263934   2.258   5.405   5.500 -0.4422 -0.3485  0.0050
14148TIP3    H163935   2.178   5.385   5.548 -0.1005  0.6800  1.0476
14148TIP3    H263936   2.290   5.487   5.539  0.7248 -0.3527 -0.8802
14149TIP3   OH263937   4.415   2.597   0.755  0.2615 -0.0886  0.5713
14149TIP3    H163938   4.430   2.684   0.793 -0.1584  0.6000 -0.7703
14149TIP3    H263939   4.366   2.550   0.821  0.9800  0.5021  1.5493
14150TIP3   OH263940   5.142   0.952   0.749  0.5332 -0.4525  0.8172
14150TIP3    H163941   5.113   0.893   0.680  0.5525 -0.5155  0.8631
14150TIP3    H263942   5.079   0.939   0.820 -0.3492  0.6704  0.2676
14151TIP3   OH263943   5.741   1.318   4.781  0.2490 -0.1113 -0.1264
14151TIP3    H163944   5.771   1.324   4.690 -0.0177 -0.7436 -0.2600
14151TIP3    H263945   5.735   1.409   4.810 -3.1768  0.4371 -1.9060
14152TIP3   OH263946   6.226   2.492  11.308  0.5468 -0.5852  0.9449
14152TIP3    H163947   6.207   2.583  11.329  0.0408 -0.6496  0.7672
14152TIP3    H263948   6.177   2.475  11.227  0.2068 -1.1683  1.2719
14153TIP3   OH263949   5.663   4.160  15.855  0.4627  0.1689  0.0490
14153TIP3    H163950   5.758   4.157  15.846  0.4173  0.5970 -0.6466
14153TIP3    H263951   5.631   4.185  15.768 -0.1176  2.9506  0.9503
14154TIP3   OH263952   0.571   4.069  15.625 -0.5742  0.4492 -0.0530
14154TIP3    H163953   0.620   4.102  15.700 -0.6885  0.0158  0.2103
14154TIP3    H263954   0.614   3.988  15.600 -1.6120 -0.3414  0.6593
14155TIP3   OH263955   3.974   4.179   5.029  0.3293 -0.0867  0.1297
14155TIP3    H163956   3.959   4.124   4.951  2.1035  0.5029 -0.6851
14155TIP3    H263957   3.907   4.247   5.023  1.0115  0.5017 -1.4550
14156TIP3   OH263958   4.356   1.606   3.740  0.1595  0.3715 -0.7681
14156TIP3    H163959   4.409   1.652   3.675  0.1627  0.8997 -0.3972
14156TIP3    H263960   4.413   1.596   3.815 -0.3055  1.0811 -0.3082
14157TIP3   OH263961   5.353   0.387   0.337  0.3790 -0.3869 -0.0495
14157TIP3    H163962   5.401   0.310   0.369  0.8145 -0.2992 -0.4885
14157TIP3    H263963   5.265   0.354   0.318  0.4030 -0.6550  0.2964
14158TIP3   OH263964   0.166   1.308   5.462  0.6664 -0.2373 -0.6266
14158TIP3    H163965   0.219   1.303   5.381  0.5590 -2.2093 -0.6365
14158TIP3    H263966   0.130   1.220   5.471 -0.3067  0.2988  0.9465
14159TIP3   OH263967   1.466   1.288   0.186 -0.7369 -0.4470 -0.5431
14159TIP3    H163968   1.485   1.198   0.212  0.9497  0.2267  0.7728
14159TIP3    H263969   1.398   1.316   0.247 -0.1962 -0.3835  0.0468
14160TIP3   OH263970   2.319   5.990   6.310  0.3441 -0.6559  0.8530
14160TIP3    H163971   2.333   5.895   6.308  0.9579 -0.6966 -3.7428
14160TIP3    H263972   2.394   6.024   6.359  0.1824 -2.4574  2.4753
14161TIP3   OH263973   4.158   0.493  13.738 -0.4366  0.2698 -0.3616
14161TIP3    H163974   4.236   0.444  13.766 -0.5614  0.0048 -0.4742
14161TIP3    H263975   4.087   0.430  13.745 -0.6846  0.5833 -0.0188
14162TIP3   OH263976   6.662   5.148   5.387 -0.5259 -0.0026  0.7973
14162TIP3    H163977   6.747   5.107   5.369 -0.9166 -0.8388  0.8239
14162TIP3    H263978   6.660   5.157   5.483 -0.0654  0.9212  0.7334
14163TIP3   OH263979   5.939   4.983  13.891  0.0878 -0.1471  0.4741
14163TIP3    H163980   5.963   4.891  13.886  0.1480 -0.1451  0.7108
14163TIP3    H263981   5.895   5.001  13.808  3.0424  0.4812 -1.1086
14164TIP3   OH263982   1.790   1.493   1.455 -0.4840 -0.2807 -0.4132
14164TIP3    H163983   1.880   1.525   1.455 -0.7336  0.5489  1.3993
14164TIP3    H263984   1.794   1.411   1.506 -0.9587  0.5185  0.9572
14165TIP3   OH263985   2.951   1.816  17.060 -0.0698 -0.1837  0.0465
14165TIP3    H163986   2.915   1.858  16.982  0.6262 -0.6991 -0.5739
14165TIP3    H263987   2.874   1.790  17.111 -0.5380  0.0408 -0.5283
14166TIP3   OH263988   6.622   3.351   0.503  0.0090  0.2978 -0.4050
14166TIP3    H163989   6.645   3.269   0.546  0.1062 -0.1819 -1.3569
14166TIP3    H263990   6.527   3.348   0.492  0.0319  0.2416 -0.5868
14167TIP3   OH263991   0.251   0.192   0.150  0.7350  0.0455 -0.2276
14167TIP3    H163992   0.163   0.222   0.175  0.9601  0.2171  0.4001
14167TIP3    H263993   0.268   0.118   0.208  0.4404 -0.9285 -1.3410
14168TIP3   OH263994   0.754   5.145   1.429  0.1201 -0.3972 -0.2847
14168TIP3    H163995   0.700   5.119   1.504  1.0442  0.3238  0.6578
14168TIP3    H263996   0.730   5.236   1.412  0.4183 -0.3421 -0.4211
14169TIP3   OH263997   1.844   4.043  16.654  0.6236 -0.0425  0.4117
14169TIP3    H163998   1.765   4.013  16.698  1.5871  1.2593  3.2384
14169TIP3    H263999   1.812   4.097  16.582 -1.0667 -0.0270  1.1278
14170TIP3   OH264000   6.568   0.940   6.411 -0.1832 -0.0846  0.1208
14170TIP3    H164001   6.510   0.902   6.477 -0.3259  1.3041  0.8428
14170TIP3    H264002   6.649   0.891   6.419  0.5319  1.3534  2.8139
14171TIP3   OH264003   0.637   6.207  16.481  0.1148 -0.4767  0.2822
14171TIP3    H164004   0.555   6.206  16.529  0.4207 -1.0300  0.8202
14171TIP3    H264005   0.700   6.168  16.542  0.6744 -0.4725 -0.2851
14172TIP3   OH264006   4.336   4.801   4.976  0.6607  0.1560 -0.6204
14172TIP3    H164007   4.385   4.840   5.048  0.2967 -1.8682  0.7774
14172TIP3    H264008   4.251   4.845   4.978  0.3881 -0.3957  0.6935
14173TIP3   OH264009   3.974   1.173   1.022  0.2142  0.1972 -0.4097
14173TIP3    H164010   3.901   1.233   1.034 -0.8170 -1.4696  2.8165
14173TIP3    H264011   3.941   1.107   0.960  0.2272  1.1932 -1.5088
14174TIP3   OH264012   2.648   1.288  13.762 -1.1050  0.5093 -0.2579
14174TIP3    H164013   2.622   1.242  13.841 -0.5521  0.0695 -0.3262
14174TIP3    H264014   2.678   1.374  13.792  0.3184 -0.1058  0.1672
14175TIP3   OH264015   0.928   3.036   5.923  0.1144  0.0607 -0.3767
14175TIP3    H164016   0.967   2.948   5.930 -1.9250 -0.7890  2.1321
14175TIP3    H264017   0.867   3.030   5.849 -0.1208 -0.7163 -0.1323
14176TIP3   OH264018   1.249   4.077   5.074  0.1821  0.0496 -0.6682
14176TIP3    H164019   1.181   4.144   5.070  0.4481  0.4199  0.5537
14176TIP3    H264020   1.328   4.122   5.043  0.5253  0.5623  0.8515
14177TIP3   OH264021   2.826   3.079  15.979 -0.1054 -0.3704  0.4981
14177TIP3    H164022   2.889   3.151  15.981  1.6615 -1.8552  1.0158
14177TIP3    H264023   2.861   3.015  16.040 -0.8779 -2.2632 -0.9445
14178TIP3   OH264024   5.837   4.235   3.584 -0.2818 -0.6610 -0.3648
14178TIP3    H164025   5.810   4.288   3.508 -1.4001 -0.3135  0.2593
14178TIP3    H264026   5.761   4.235   3.642  1.3988  1.4357  2.0825
14179TIP3   OH264027   5.957   2.613   5.003  0.2493 -0.8491  0.6974
14179TIP3    H164028   5.977   2.581   4.915 -0.2084 -3.6418  1.5038
14179TIP3    H264029   5.975   2.707   4.999 -1.4432 -0.5012 -2.8308
14180TIP3   OH264030   0.407   3.008  15.509  0.5874  0.9513  0.6504
14180TIP3    H164031   0.332   3.068  15.518 -2.9378 -2.9658  0.3591
14180TIP3    H264032   0.434   2.991  15.599 -0.9633  0.1526  1.0046
14181TIP3   OH264033   4.631   5.225   3.557  0.3057  0.3700 -0.4118
14181TIP3    H164034   4.682   5.150   3.588  1.1764  1.2057  0.2273
14181TIP3    H264035   4.694   5.278   3.509  0.8518  2.8370  2.7035
14182TIP3   OH264036   2.432   3.334   4.841 -0.3831 -0.1451 -0.1993
14182TIP3    H164037   2.474   3.258   4.880  1.4118  0.7823 -0.2032
14182TIP3    H264038   2.412   3.308   4.751  1.5425 -0.2058 -0.6584
14183TIP3   OH264039   3.708   2.405   2.880 -0.3389  0.5054 -0.0053
14183TIP3    H164040   3.767   2.479   2.861 -0.2471  0.2619 -0.7034
14183TIP3    H264041   3.632   2.421   2.825  0.3404 -0.7235 -1.3694
14184TIP3   OH264042   6.328   3.829  11.391  0.4900  0.3495  0.1536
14184TIP3    H164043   6.297   3.800  11.477  0.5431 -1.0874 -0.2889
14184TIP3    H264044   6.394   3.764  11.366  0.6409  0.8748 -0.8837
14185TIP3   OH264045   5.614   5.544   2.846  0.2427  0.0857  0.5341
14185TIP3    H164046   5.559   5.548   2.923  1.7746  0.3068  1.6606
14185TIP3    H264047   5.600   5.627   2.801 -2.4010 -0.9271 -0.7529
14186TIP3   OH264048   5.580   2.253  16.814 -0.5816  0.6809 -0.0070
14186TIP3    H164049   5.607   2.340  16.784 -0.6837  0.7466  0.0934
14186TIP3    H264050   5.634   2.235  16.890 -0.5395  0.6442 -0.0456
14187TIP3   OH264051   4.446   1.831   3.132  0.1438  0.5953  0.0236
14187TIP3    H164052   4.389   1.818   3.209  1.8459  0.7650  1.3789
14187TIP3    H264053   4.519   1.772   3.147  1.1563  1.5977 -0.8147
14188TIP3   OH264054   4.975   4.071  15.534 -0.0130 -0.2881  0.5765
14188TIP3    H164055   5.003   4.003  15.596  0.8106  1.2911  2.0461
14188TIP3    H264056   5.041   4.068  15.465  0.3861 -0.5637  0.9593
14189TIP3   OH264057   0.386   3.833  11.625 -0.9138  0.2042 -0.1736
14189TIP3    H164058   0.439   3.909  11.601  2.8250 -1.5912  1.5507
14189TIP3    H264059   0.363   3.848  11.717 -2.8728  0.5970 -0.6892
14190TIP3   OH264060   4.533   6.291   0.915 -0.1455 -0.5812  0.1439
14190TIP3    H164061   4.553   6.217   0.857  0.2538 -1.1598  1.0055
14190TIP3    H264062   4.563   6.263   1.001 -1.4783 -0.0545  0.8024
14191TIP3   OH264063   3.470   1.163   5.989 -0.1464  0.0951 -0.2697
14191TIP3    H164064   3.452   1.146   6.082  0.0011  0.6862 -0.1261
14191TIP3    H264065   3.469   1.077   5.948 -1.0930 -0.0954  0.1252
14192TIP3   OH264066   5.454   6.197   3.755  0.1538  0.4500 -0.3465
14192TIP3    H164067   5.455   6.107   3.787 -0.5794  0.7995  0.7101
14192TIP3    H264068   5.547   6.222   3.753  0.2644  0.2531  1.0931
14193TIP3   OH264069   6.209   1.870   1.920  0.3892  0.5265  0.2957
14193TIP3    H164070   6.250   1.948   1.882 -2.0299  1.7743  0.0223
14193TIP3    H264071   6.218   1.882   2.015  0.7019  0.7472  0.2382
14194TIP3   OH264072   1.660   3.011  16.338  0.5019 -1.0494 -0.0366
14194TIP3    H164073   1.688   3.101  16.317  1.1803 -1.0604  0.7827
14194TIP3    H264074   1.732   2.956  16.309  1.8021 -1.0152  2.8334
14195TIP3   OH264075   1.346   0.580   4.543 -0.6450 -0.0695  0.3773
14195TIP3    H164076   1.291   0.564   4.620  0.0653  0.7069  1.0665
14195TIP3    H264077   1.415   0.639   4.575  0.1716 -0.4531 -0.6448
14196TIP3   OH264078   6.696   1.343   2.072 -0.1616 -0.3984  0.4041
14196TIP3    H164079   6.670   1.434   2.086  2.5105  0.5859 -0.5669
14196TIP3    H264080   6.617   1.301   2.036 -1.6461  1.3216  1.4886
14197TIP3   OH264081   4.959   3.892   1.696 -0.0353  0.2370  0.2129
14197TIP3    H164082   4.939   3.802   1.721  1.4342  0.0479  0.8149
14197TIP3    H264083   5.054   3.899   1.705 -0.2026  2.1057  1.1222
14198TIP3   OH264084   4.076   4.215  12.193 -0.4613  0.2036  0.5571
14198TIP3    H164085   4.133   4.276  12.145  0.1878  0.8266  2.0328
14198TIP3    H264086   4.020   4.272  12.246 -2.4226 -0.4113 -0.7679
14199TIP3   OH264087   0.109   0.036  17.085  0.7545  0.0309  0.1459
14199TIP3    H164088   0.090  -0.050  17.121  4.1094  0.3792  3.4079
14199TIP3    H264089   0.027   0.084  17.093 -0.6762 -2.2463  0.0222
14200TIP3   OH264090   3.418   2.360  12.006  0.3750 -0.1559 -0.2337
14200TIP3    H164091   3.495   2.366  12.063 -0.7993 -1.9014  1.6800
14200TIP3    H264092   3.444   2.404  11.926  2.8772  0.5284  0.8597
14201TIP3   OH264093   5.821   5.566  16.351 -0.8087 -0.2983  0.2710
14201TIP3    H164094   5.809   5.509  16.275  0.1823 -1.7518  1.1505
14201TIP3    H264095   5.754   5.538  16.413 -0.3774 -0.4513  0.6711
14202TIP3   OH264096   2.066   3.572  14.675 -0.4429 -0.2174 -0.0099
14202TIP3    H164097   2.053   3.533  14.589 -1.5008 -0.6747  0.3390
14202TIP3    H264098   1.986   3.622  14.692  0.0635  0.4824  0.3982
14203TIP3   OH264099   6.435   4.146  14.956  0.2268  0.0547  0.1772
14203TIP3    H164100   6.406   4.155  14.865 -1.3406 -1.3333  0.4748
14203TIP3    H264101   6.493   4.220  14.971  0.6507  0.2173 -2.0016
14204TIP3   OH264102   2.476   4.400  16.903 -0.0199 -0.7322  0.0121
14204TIP3    H164103   2.492   4.411  16.810  0.0524  1.3476  0.2379
14204TIP3    H264104   2.381   4.404  16.912  0.0095 -0.2510  0.1056
14205TIP3   OH264105   5.749   2.754  12.925  0.3322 -0.0862  0.3018
14205TIP3    H164106   5.655   2.745  12.940  0.1020 -0.0727 -0.9748
14205TIP3    H264107   5.756   2.785  12.834  1.5295  0.9775  0.7185
14206TIP3   OH264108   2.619   6.561   6.477  0.0444 -0.2693 -0.1382
14206TIP3    H164109   2.583   6.565   6.565 -1.9321 -0.0024 -0.9224
14206TIP3    H264110   2.687   6.493   6.482 -1.2615 -1.5441  1.1542
14207TIP3   OH264111   6.266   4.937  11.509  0.1442 -0.6994  0.2958
14207TIP3    H164112   6.262   4.884  11.588 -0.6175  0.1120  0.8128
14207TIP3    H264113   6.257   5.027  11.539  1.5192 -0.2425 -0.5609
14208TIP3   OH264114   3.321   3.398   4.054  0.4406 -0.3977  0.8347
14208TIP3    H164115   3.250   3.336   4.066  0.0641 -0.6866 -2.2751
14208TIP3    H264116   3.278   3.483   4.041  0.5409 -0.6919 -1.7763
14209TIP3   OH264117   5.027   4.386   3.073  0.2333 -0.5816  0.4684
14209TIP3    H164118   4.976   4.452   3.026  0.0525 -0.3346  1.0069
14209TIP3    H264119   4.978   4.369   3.153  0.5953 -0.9167  0.6261
14210TIP3   OH264120   0.314   5.543   2.255  0.3977 -0.0114 -0.3187
14210TIP3    H164121   0.302   5.583   2.170  2.0247  2.3539  0.4502
14210TIP3    H264122   0.237   5.487   2.267 -0.5410  0.6531 -2.7151
14211TIP3   OH264123   4.740   0.954   3.013 -0.1855 -0.3097  1.0279
14211TIP3    H164124   4.791   0.960   3.094  0.4656 -0.1744  0.6134
14211TIP3    H264125   4.758   1.036   2.967 -0.2831 -0.5335  0.5890
14212TIP3   OH264126   6.443   4.721   3.741 -0.0684  0.2408 -0.0001
14212TIP3    H164127   6.423   4.699   3.832 -1.6809  0.6185 -0.2350
14212TIP3    H264128   6.364   4.763   3.709  1.6480  3.2917 -0.5899
14213TIP3   OH264129   0.528   5.974   3.419  0.0836  0.0616  0.4527
14213TIP3    H164130   0.543   5.916   3.494 -0.2510 -0.9207 -0.2232
14213TIP3    H264131   0.517   5.915   3.344  0.8934  1.0243 -0.4746
14214TIP3   OH264132   5.431   2.883  11.368  0.2834  0.4509  0.6607
14214TIP3    H164133   5.507   2.830  11.347  0.8524  1.3670  0.3318
14214TIP3    H264134   5.418   2.939  11.291 -1.3392 -0.3677  0.2932
14215TIP3   OH264135   2.892   6.427  12.457 -0.3784  0.1546  0.6498
14215TIP3    H164136   2.848   6.357  12.408  1.4646 -0.3058 -0.4216
14215TIP3    H264137   2.979   6.392  12.476  0.6822  2.2350 -0.1214
14216TIP3   OH264138   0.595   4.368  17.056  0.0887  0.8768 -0.3087
14216TIP3    H164139   0.683   4.353  17.089 -0.2642  0.7749  0.6227
14216TIP3    H264140   0.576   4.459  17.078 -0.4010  0.6150  0.3984
14217TIP3   OH264141   1.125   4.151   5.389  0.0595 -0.3576  0.2193
14217TIP3    H164142   1.152   4.074   5.440  0.9678  0.5089  1.0927
14217TIP3    H264143   1.094   4.115   5.306  0.9456 -1.6294  0.4136
14218TIP3   OH264144   2.491   1.082   5.151 -0.0271 -0.4828  0.2444
14218TIP3    H164145   2.535   1.143   5.211 -0.4109 -0.6346  0.6857
14218TIP3    H264146   2.492   1.127   5.066  0.2010 -0.1099  0.4422
14219TIP3   OH264147   2.705   4.261  16.982 -0.0734  0.0673 -0.2068
14219TIP3    H164148   2.621   4.296  16.952  0.1538 -0.9491 -2.2882
14219TIP3    H264149   2.770   4.319  16.944  0.1912  0.7420  1.2439
14220TIP3   OH264150   3.480   3.991  13.728  0.1490 -0.7181 -0.1694
14220TIP3    H164151   3.385   4.000  13.718  0.0828 -0.3467  0.7164
14220TIP3    H264152   3.511   4.080  13.743  0.4365 -1.0231  1.1281
14221TIP3   OH264153   6.592   3.292  12.213 -0.1777 -1.1194  0.1549
14221TIP3    H164154   6.630   3.311  12.299 -1.2433 -1.7162  0.7748
14221TIP3    H264155   6.666   3.296  12.153  0.9894 -2.7720  1.4038
14222TIP3   OH264156   1.457   2.349   0.395 -0.2687 -0.3915 -0.0321
14222TIP3    H164157   1.403   2.283   0.439 -1.4641 -0.0659 -0.9617
14222TIP3    H264158   1.546   2.314   0.401  0.1292  0.8142  4.8668
14223TIP3   OH264159   0.433   6.779  15.749  0.2537  0.6044  0.2416
14223TIP3    H164160   0.501   6.822  15.800  0.0564  2.5776 -1.0400
14223TIP3    H264161   0.385   6.726  15.812  1.7293  0.7381  1.5396
14224TIP3   OH264162   6.511   3.151   5.409 -0.8985  0.0660 -0.0364
14224TIP3    H164163   6.472   3.114   5.488  0.0304  0.0783  0.4400
14224TIP3    H264164   6.563   3.225   5.440  1.7156 -1.5370 -0.2457
14225TIP3   OH264165   1.149   4.476   0.232 -0.5242  0.4460 -0.8603
14225TIP3    H164166   1.189   4.523   0.305  0.5135 -0.4411 -0.8425
14225TIP3    H264167   1.111   4.397   0.272 -0.8425  0.4547 -1.1349
14226TIP3   OH264168   0.632   2.284  12.739  0.1255  0.2216  0.1580
14226TIP3    H164169   0.660   2.366  12.700  1.8525 -0.3120  0.1623
14226TIP3    H264170   0.618   2.305  12.831  1.6544  0.3209  0.3987
14227TIP3   OH264171   4.424   1.476  14.904 -0.1448 -0.5469  0.3936
14227TIP3    H164172   4.434   1.468  14.999 -0.4907  1.8634  0.7156
14227TIP3    H264173   4.357   1.545  14.894  1.6020  0.9791 -1.5543
14228TIP3   OH264174   4.592   3.123  12.697 -0.0350  0.0686 -0.6612
14228TIP3    H164175   4.512   3.159  12.735 -0.9326 -0.5268 -1.9160
14228TIP3    H264176   4.575   3.121  12.603  1.5014  0.0128 -0.9590
14229TIP3   OH264177   2.524   1.526   1.332  0.0195  0.1657 -0.2412
14229TIP3    H164178   2.596   1.512   1.271 -1.3701 -2.0459 -1.5297
14229TIP3    H264179   2.452   1.474   1.296 -0.6367 -2.1342  3.7562
14230TIP3   OH264180   0.435   5.923  13.823 -0.0556 -0.4795 -0.9291
14230TIP3    H164181   0.526   5.895  13.814 -0.0227 -0.2726 -1.2442
14230TIP3    H264182   0.395   5.855  13.877  0.3104 -0.5191 -0.7012
14231TIP3   OH264183   5.410   1.710   3.572  0.1721 -0.6489  0.2600
14231TIP3    H164184   5.397   1.685   3.664  1.1199 -2.3365 -0.0090
14231TIP3    H264185   5.502   1.738   3.569 -0.1310  0.3207  0.0077
14232TIP3   OH264186   1.714   0.119  15.372 -0.0693  0.4170  0.5104
14232TIP3    H164187   1.709   0.186  15.440 -1.7630  2.1536 -1.2194
14232TIP3    H264188   1.787   0.146  15.317  0.5138 -0.3057  0.9101
14233TIP3   OH264189   1.859   1.779   0.209  0.7135 -0.0835  0.4481
14233TIP3    H164190   1.895   1.816   0.290  0.3990 -0.1874  0.6363
14233TIP3    H264191   1.892   1.689   0.207  1.2451  0.1127  0.1343
14234TIP3   OH264192   3.671   2.490  11.414 -0.2346  0.1929  0.7326
14234TIP3    H164193   3.614   2.425  11.457  0.8367 -1.7871 -0.6667
14234TIP3    H264194   3.758   2.449  11.416  0.3171  1.1985 -0.9817
14235TIP3   OH264195   5.715   4.059   3.985 -0.2582  0.0580  0.0645
14235TIP3    H164196   5.725   4.133   4.045  1.3934 -0.4612  0.4682
14235TIP3    H264197   5.687   3.986   4.040  1.3821 -0.4518  0.2629
14236TIP3   OH264198   2.973   6.261   0.009 -0.3494 -0.1549 -0.0890
14236TIP3    H164199   2.906   6.285   0.073 -2.4448  3.5796 -3.2072
14236TIP3    H264200   3.028   6.338   0.002  0.5662 -0.9086 -1.8417
14237TIP3   OH264201   5.096   0.336   5.932  0.3506 -0.2855  0.1572
14237TIP3    H164202   5.090   0.305   6.023  0.4886  1.4190  0.7879
14237TIP3    H264203   5.042   0.275   5.882 -1.2276 -0.2102  1.6788
14238TIP3   OH264204   0.193   1.491  15.502  0.1556  0.2777  0.3961
14238TIP3    H164205   0.144   1.463  15.579  1.3270 -1.4060  0.5739
14238TIP3    H264206   0.204   1.411  15.450  1.3577  0.9189 -0.3880
14239TIP3   OH264207   3.237   4.714   2.519  0.1224 -0.4998  0.0600
14239TIP3    H164208   3.273   4.681   2.602 -0.4352 -0.0741  0.4790
14239TIP3    H264209   3.177   4.646   2.490 -0.1379 -0.3834  0.3205
14240TIP3   OH264210   1.287   6.157  15.059  0.2631  0.5647  0.8419
14240TIP3    H164211   1.330   6.077  15.089 -0.1799  0.2299  0.6003
14240TIP3    H264212   1.356   6.207  15.015 -0.1883 -1.3902 -2.4043
14241TIP3   OH264213   5.321   0.804   3.768  0.3326  0.4343 -0.2806
14241TIP3    H164214   5.286   0.753   3.840 -0.5829  0.3224 -0.7889
14241TIP3    H264215   5.310   0.748   3.691  0.2127  1.0115 -0.6925
14242TIP3   OH264216   3.327   6.545  14.280  0.2087 -0.4320 -0.5134
14242TIP3    H164217   3.316   6.515  14.190 -0.0262 -0.0011 -0.6340
14242TIP3    H264218   3.318   6.466  14.334 -4.0035 -0.1780 -0.5398
14243TIP3   OH264219   4.602   1.649  14.387 -0.5402  0.6725 -0.0610
14243TIP3    H164220   4.545   1.713  14.345 -1.8030 -0.1738  0.3016
14243TIP3    H264221   4.560   1.631  14.471 -1.0261 -1.6621 -0.7275
14244TIP3   OH264222   0.043   1.055  16.033 -0.0623 -0.2044  0.0715
14244TIP3    H164223  -0.021   1.100  16.087 -0.0459 -0.6637  0.4792
14244TIP3    H264224   0.017   1.075  15.943 -0.4380  0.0761  0.2437
14245TIP3   OH264225   1.937   3.323  13.571 -0.6856 -0.4502 -0.4138
14245TIP3    H164226   1.923   3.246  13.516  0.8869  0.1266 -1.7082
14245TIP3    H264227   1.964   3.287  13.656  0.4856 -1.3579 -1.1292
14246TIP3   OH264228   3.451   3.179  15.990 -0.1735 -0.1984 -0.4790
14246TIP3    H164229   3.509   3.222  16.053  0.5996  2.6941 -2.9293
14246TIP3    H264230   3.508   3.155  15.917 -1.2307 -2.3580 -0.6926
14247TIP3   OH264231   5.866   3.721   1.885 -0.1315  0.3780 -0.2671
14247TIP3    H164232   5.891   3.635   1.918 -0.8329  0.7305  1.2772
14247TIP3    H264233   5.816   3.703   1.805  0.3092 -0.5959 -0.3290
14248TIP3   OH264234   4.744   2.912   1.770  0.4023 -0.4846  0.5298
14248TIP3    H164235   4.717   2.981   1.831 -1.1264  0.5895 -1.2470
14248TIP3    H264236   4.696   2.834   1.798 -0.7831  0.1579  0.3451
14249TIP3   OH264237   0.771   3.304   2.642  0.3215  0.3231  0.2740
14249TIP3    H164238   0.748   3.389   2.603  0.9875 -0.4212 -1.8305
14249TIP3    H264239   0.704   3.244   2.609 -0.5627  0.1063  2.3175
14250TIP3   OH264240   4.959   6.321   1.048 -0.0506  0.1639  0.1720
14250TIP3    H164241   5.009   6.392   1.008 -0.8107  1.4158  1.3587
14250TIP3    H264242   4.974   6.246   0.991  2.1493  0.8195 -0.1931
14251TIP3   OH264243   3.375   4.153   1.030  0.0789  0.1655  0.2133
14251TIP3    H164244   3.340   4.239   1.009 -1.3385  0.2911  2.7117
14251TIP3    H264245   3.445   4.170   1.093  0.9822 -0.4319 -0.6053
14252TIP3   OH264246   4.552   1.898   1.684  0.4359  0.4720  0.0842
14252TIP3    H164247   4.488   1.874   1.751  0.2395  0.4356 -0.1156
14252TIP3    H264248   4.500   1.915   1.606  0.6628  0.5398 -0.0532
14253TIP3   OH264249   3.379   3.860   2.892 -0.4182 -0.1597  0.1484
14253TIP3    H164250   3.426   3.866   2.975 -2.0995  1.2906  1.0574
14253TIP3    H264251   3.443   3.887   2.826  0.0785  1.7277  1.3384
14254TIP3   OH264252   3.198   6.055  16.483  0.3936  0.1806  0.4764
14254TIP3    H164253   3.223   6.077  16.393  0.7199  1.1115  0.7739
14254TIP3    H264254   3.124   5.996  16.474  0.2781  0.4404 -0.4046
14255TIP3   OH264255   0.331   3.934   3.817  0.8498 -0.1126  0.6165
14255TIP3    H164256   0.400   3.967   3.875 -0.0472 -0.2761  1.8274
14255TIP3    H264257   0.375   3.914   3.735  1.6350  3.3312  0.0230
14256TIP3   OH264258   1.006   6.309   0.163 -0.3987 -0.0659  0.3931
14256TIP3    H164259   1.098   6.283   0.158 -0.4621 -0.0454 -1.8937
14256TIP3    H264260   0.988   6.349   0.078 -2.4853  0.0786  0.8611
14257TIP3   OH264261   4.206   5.724   3.217 -0.8600 -0.5888 -0.4474
14257TIP3    H164262   4.119   5.697   3.189 -0.8392 -1.2829  0.1242
14257TIP3    H264263   4.263   5.701   3.144 -1.3487  1.2894 -1.4774
14258TIP3   OH264264   3.495   6.440   3.108  0.1307  0.3651 -0.3969
14258TIP3    H164265   3.476   6.469   3.019  0.2269 -0.0323 -0.5464
14258TIP3    H264266   3.559   6.370   3.098 -0.9888 -0.7466 -0.1209
14259TIP3   OH264267   2.986   5.287   1.123 -0.1544 -0.5726  0.4805
14259TIP3    H164268   3.002   5.323   1.210  0.0049  1.2871 -0.2674
14259TIP3    H264269   3.070   5.252   1.095  0.0314 -0.3190  0.7178
14260TIP3   OH264270   6.694   3.693  12.347  0.4586  0.4056 -0.0151
14260TIP3    H164271   6.740   3.609  12.335 -1.7196 -0.7667 -0.7300
14260TIP3    H264272   6.698   3.709  12.441  1.6766 -0.0080  0.0281
14261TIP3   OH264273   3.898   0.177   4.373 -0.2127 -0.8641 -0.4944
14261TIP3    H164274   3.809   0.188   4.407  0.2313 -0.4531  0.5765
14261TIP3    H264275   3.924   0.264   4.345  0.9549 -0.2763  2.0748
14262TIP3   OH264276   5.240   5.844  15.102  0.5058 -0.2052 -0.1346
14262TIP3    H164277   5.321   5.884  15.133  0.5828 -0.2682 -0.2530
14262TIP3    H264278   5.198   5.810  15.181  2.0391 -2.8501 -0.3487
14263TIP3   OH264279   0.524   6.219  16.238 -0.3909 -0.4364 -0.4930
14263TIP3    H164280   0.605   6.252  16.201 -1.8889  2.0012 -1.8356
14263TIP3    H264281   0.543   6.208  16.331  0.8305  2.5179 -0.2934
14264TIP3   OH264282   4.411   0.076   2.376 -0.0809 -0.0063  0.2245
14264TIP3    H164283   4.400  -0.006   2.423 -0.5106 -1.6203 -2.5084
14264TIP3    H264284   4.321   0.106   2.359  0.0060 -0.5576 -1.3265
14265TIP3   OH264285   6.317   5.068  15.845  0.3909 -0.1169  0.7876
14265TIP3    H164286   6.306   5.153  15.889  0.2464 -0.1550  0.8245
14265TIP3    H264287   6.234   5.023  15.858 -0.2022  0.4440 -0.7514
14266TIP3   OH264288   6.670   6.508  10.168  0.2032 -0.7288  0.0243
14266TIP3    H164289   6.624   6.591  10.181  1.5340  0.0238  0.1135
14266TIP3    H264290   6.662   6.463  10.252 -0.1213 -0.4772  0.1313
14267TIP3   OH264291   2.873   1.421  13.300 -0.4007 -1.0597  0.0065
14267TIP3    H164292   2.960   1.398  13.269  0.0468  0.3250  0.1558
14267TIP3    H264293   2.888   1.474  13.378 -1.3096  0.0367 -0.5222
14268TIP3   OH264294   0.974   3.683  13.006  0.2329  0.0380  0.7211
14268TIP3    H164295   0.892   3.690  12.956  0.4212 -1.2388  0.1810
14268TIP3    H264296   1.038   3.652  12.942  0.7856 -0.3898  1.4595
14269TIP3   OH264297   1.968   2.778   6.255  0.0163 -0.3708  0.3074
14269TIP3    H164298   2.033   2.710   6.239 -0.3494 -0.6638  0.0423
14269TIP3    H264299   1.949   2.772   6.349  1.2457  0.5196  0.6395
14270TIP3   OH264300   6.778   0.222   5.403  0.0849 -0.2005 -0.1276
14270TIP3    H164301   6.709   0.180   5.352  0.2342 -1.8578  0.9453
14270TIP3    H264302   6.802   0.156   5.469  3.1966  0.0102 -0.8954
14271TIP3   OH264303   2.299   3.847   4.550 -0.8186 -1.0407 -0.0830
14271TIP3    H164304   2.393   3.826   4.553 -0.8970 -1.6040 -1.1118
14271TIP3    H264305   2.282   3.890   4.634  0.5384 -0.1559 -0.2266
14272TIP3   OH264306   6.001   4.470  13.974  0.2244 -0.3123 -0.1173
14272TIP3    H164307   6.081   4.454  14.025 -0.1520  0.5295  0.7824
14272TIP3    H264308   5.974   4.384  13.944  1.1693 -0.6740  0.0341
14273TIP3   OH264309   3.909   2.069   4.139 -0.3146  0.2686  0.5928
14273TIP3    H164310   3.994   2.078   4.183 -1.0759 -0.6221  2.3186
14273TIP3    H264311   3.932   2.043   4.049  1.2715  2.0028  0.4444
14274TIP3   OH264312   5.040   6.382   1.459  0.2843  0.1761 -0.5352
14274TIP3    H164313   5.028   6.296   1.417  1.2018  0.3660 -1.2165
14274TIP3    H264314   5.028   6.445   1.388 -0.9334  0.6642  0.0760
14275TIP3   OH264315   3.729   2.614  15.657  0.4120  0.8625 -0.2891
14275TIP3    H164316   3.652   2.589  15.707  0.1695  1.5647 -0.3059
14275TIP3    H264317   3.790   2.649  15.722 -0.2652  2.6583 -0.5706
14276TIP3   OH264318   2.674   5.524   5.115  0.2328  0.2524 -0.4949
14276TIP3    H164319   2.693   5.454   5.053  1.3137 -0.0677  0.1656
14276TIP3    H264320   2.579   5.523   5.126  0.3674 -2.6602  1.2510
14277TIP3   OH264321   1.444   4.241  11.055  0.5698 -0.0674  0.3222
14277TIP3    H164322   1.519   4.192  11.090  1.2727  0.6317 -0.1784
14277TIP3    H264323   1.393   4.175  11.008  1.2035 -0.4427  0.1398
14278TIP3   OH264324   0.507   5.453   3.157  0.0419  0.2035  0.0731
14278TIP3    H164325   0.568   5.399   3.107 -0.6599 -0.5530  0.0105
14278TIP3    H264326   0.444   5.484   3.092 -0.9476 -0.8903  0.4754
14279TIP3   OH264327   2.658   1.319  14.467  0.3203  0.0591  0.3720
14279TIP3    H164328   2.655   1.339  14.561 -0.2149  0.7100  0.2285
14279TIP3    H264329   2.586   1.370  14.430  0.8419  0.2075 -0.4688
14280TIP3   OH264330   5.944   1.680  15.749 -0.5694 -0.3058  0.3100
14280TIP3    H164331   5.876   1.710  15.810  1.0691 -0.2393  2.1963
14280TIP3    H264332   6.026   1.705  15.790  0.6462  0.7790 -2.5232
14281TIP3   OH264333   5.578   5.597   2.024  0.8087  0.0078  0.5164
14281TIP3    H164334   5.545   5.508   2.018  0.4308 -0.0242  2.4026
14281TIP3    H264335   5.673   5.588   2.022  0.7755 -0.4846  1.1309
14282TIP3   OH264336   6.550   5.648  11.019  0.2585  0.5675  0.1581
14282TIP3    H164337   6.613   5.608  11.078 -1.0156 -2.2026 -0.1657
14282TIP3    H264338   6.477   5.585  11.017 -0.6814  1.6058 -2.6446
14283TIP3   OH264339   1.451   5.591  15.161 -0.4083 -0.3947  0.6756
14283TIP3    H164340   1.546   5.603  15.163  0.0531 -2.6112 -1.5454
14283TIP3    H264341   1.431   5.579  15.068 -2.9096  0.1387  1.0762
14284TIP3   OH264342   5.627   5.139  10.536  0.0591  0.0617 -0.4225
14284TIP3    H164343   5.683   5.069  10.503  0.8217  0.6826 -0.4483
14284TIP3    H264344   5.538   5.110  10.515  0.0950 -2.2711  2.0017
14285TIP3   OH264345   2.098   3.383   5.608  0.8302 -0.2405 -0.1790
14285TIP3    H164346   2.080   3.321   5.538 -0.0381  0.1955 -0.3565
14285TIP3    H264347   2.190   3.408   5.594  0.5863  0.0698 -1.3546
14286TIP3   OH264348   0.338   4.708  11.832 -0.6475 -0.4458  0.0005
14286TIP3    H164349   0.407   4.767  11.802  1.6105 -2.1929  1.4593
14286TIP3    H264350   0.298   4.753  11.906 -1.1911  0.6164 -0.9083
14287TIP3   OH264351   1.786   5.828   4.954  0.0273  0.1410 -0.1945
14287TIP3    H164352   1.873   5.797   4.930  0.5192  0.0278  1.5665
14287TIP3    H264353   1.773   5.906   4.900  2.1014  1.3255  0.8707
14288TIP3   OH264354   2.692   0.185  11.420  0.0752  0.4512  0.1055
14288TIP3    H164355   2.642   0.151  11.345 -1.9562  1.4746  0.9472
14288TIP3    H264356   2.640   0.162  11.496  1.4562  0.6159  1.1319
14289TIP3   OH264357   5.626   3.635  13.652 -0.8508 -0.0186  0.3315
14289TIP3    H164358   5.713   3.643  13.613 -1.6125 -2.3606 -2.2235
14289TIP3    H264359   5.642   3.631  13.746  1.4655  2.5830  0.1770
14290TIP3   OH264360   2.282   0.169   0.689 -0.3480 -0.7831 -0.3555
14290TIP3    H164361   2.203   0.114   0.688 -0.1744 -1.0322 -1.6370
14290TIP3    H264362   2.352   0.109   0.718 -0.1809 -1.2358 -1.6371
14291TIP3   OH264363   4.991   1.215  15.441  0.4815  0.2859 -0.4056
14291TIP3    H164364   5.084   1.191  15.443  0.8667  1.7369  2.2493
14291TIP3    H264365   4.958   1.192  15.527 -1.4813  0.5111 -1.0468
14292TIP3   OH264366   1.746   3.560   3.811 -0.3116 -0.2079 -0.1359
14292TIP3    H164367   1.692   3.490   3.848  0.6185 -0.6504  0.4354
14292TIP3    H264368   1.811   3.514   3.758  0.8419  0.1356  0.9296
14293TIP3   OH264369   4.034   1.942   0.130  0.2311 -0.1676 -0.0822
14293TIP3    H164370   4.036   1.916   0.222  1.6694  0.5227  0.1146
14293TIP3    H264371   4.051   1.861   0.082  2.6731 -0.0255  0.4324
14294TIP3   OH264372   1.290   3.078  15.655 -0.0904 -0.2867  0.3327
14294TIP3    H164373   1.240   3.031  15.588 -0.4084  0.6585 -0.1052
14294TIP3    H264374   1.377   3.088  15.617 -0.5040  1.0063 -0.3273
14295TIP3   OH264375   5.732   6.616  12.371  0.3789 -0.6241  0.1430
14295TIP3    H164376   5.641   6.592  12.351  0.2004 -0.7948  1.1124
14295TIP3    H264377   5.775   6.533  12.389  0.7331 -0.5410 -0.3162
14296TIP3   OH264378   0.365   0.183  16.565  0.4636 -0.4515  0.4685
14296TIP3    H164379   0.377   0.136  16.648  0.4744 -0.4505  0.4673
14296TIP3    H264380   0.319   0.264  16.590  1.0778 -0.1246  0.5711
14297TIP3   OH264381   2.742   2.657  11.984  0.0618 -0.0269 -0.4933
14297TIP3    H164382   2.787   2.733  11.946  0.2483 -0.1717 -0.5590
14297TIP3    H264383   2.704   2.612  11.909 -0.3684  0.2069 -0.4209
14298TIP3   OH264384   1.886   6.706  14.187  0.4496  0.6233 -0.2306
14298TIP3    H164385   1.942   6.651  14.241  2.3813  1.3248 -1.4447
14298TIP3    H264386   1.897   6.672  14.098  0.2900  1.8489 -0.7372
14299TIP3   OH264387   3.726   5.597   5.221 -0.1782  0.0630 -0.3461
14299TIP3    H164388   3.799   5.540   5.197 -1.4522 -1.8953  0.2401
14299TIP3    H264389   3.680   5.613   5.138 -0.8492 -1.2949 -0.2539
14300TIP3   OH264390   1.396   6.436  12.781  0.8055 -0.3166 -0.0691
14300TIP3    H164391   1.485   6.460  12.806  0.1478  1.5656  0.6442
14300TIP3    H264392   1.362   6.514  12.737 -0.3688 -1.1501 -0.6982
14301TIP3   OH264393   4.153   0.218   4.205 -0.8308 -0.8325 -0.5278
14301TIP3    H164394   4.184   0.261   4.284 -2.8511  0.6947 -0.4665
14301TIP3    H264395   4.112   0.137   4.236  0.3827 -1.3905 -0.3128
14302TIP3   OH264396   5.192   0.104  16.641  0.0794  0.4511 -0.2654
14302TIP3    H164397   5.098   0.118  16.639 -0.0480 -0.3930 -1.1087
14302TIP3    H264398   5.229   0.188  16.613 -0.4973  0.3150 -1.5204
14303TIP3   OH264399   0.697   0.391  11.502 -0.0944 -0.0583  0.3267
14303TIP3    H164400   0.767   0.456  11.494 -0.3275 -0.0299 -2.3043
14303TIP3    H264401   0.672   0.371  11.412  0.0206 -3.8864  0.9857
14304TIP3   OH264402   3.285   0.990  16.437 -0.4686  0.1659 -0.3216
14304TIP3    H164403   3.363   0.969  16.386 -0.8472  1.2224 -1.3846
14304TIP3    H264404   3.270   0.913  16.491  0.6357 -0.5142 -0.9473
14305TIP3   OH264405   1.185   2.324   5.640  0.0819  0.6393 -0.1031
14305TIP3    H164406   1.128   2.360   5.708  1.5477  2.1821  0.3616
14305TIP3    H264407   1.182   2.229   5.655 -0.4599  0.8755  1.4373
14306TIP3   OH264408   1.593   0.336  14.718  0.2003  0.2965  0.4703
14306TIP3    H164409   1.508   0.371  14.745 -0.8797 -2.4402  0.9231
14306TIP3    H264410   1.578   0.301  14.630  0.3303 -1.6623  1.1740
14307TIP3   OH264411   5.051   6.574  16.770 -0.5392  0.1645  0.0165
14307TIP3    H164412   5.140   6.539  16.769  0.1010  1.7258  0.1896
14307TIP3    H264413   5.004   6.521  16.705  0.3694 -0.9998  0.2729
14308TIP3   OH264414   5.296   0.103  12.670  0.1089  0.2974 -0.3252
14308TIP3    H164415   5.213   0.119  12.714  0.7589 -0.4299  1.2298
14308TIP3    H264416   5.313   0.010  12.683  0.9752  0.3453 -1.0029
14309TIP3   OH264417   4.359   4.597  13.803  0.7399  0.2323 -0.4294
14309TIP3    H164418   4.312   4.540  13.864 -2.1002  1.3821 -1.3905
14309TIP3    H264419   4.347   4.555  13.717  1.0433  0.8414 -0.7752
14310TIP3   OH264420   3.223   6.556   2.213 -0.1997 -0.1918 -0.1240
14310TIP3    H164421   3.190   6.555   2.303  0.9677 -0.8551  0.3155
14310TIP3    H264422   3.195   6.472   2.176  1.1796 -0.8653  0.3311
14311TIP3   OH264423   4.246   6.535  12.041 -0.0099  0.1458 -0.1926
14311TIP3    H164424   4.258   6.594  12.115  1.6836 -0.6927  0.2670
14311TIP3    H264425   4.214   6.591  11.970 -3.7034  0.6575  1.6229
14312TIP3   OH264426   3.033   0.013   2.651  0.4109  0.2100 -0.1595
14312TIP3    H164427   3.027   0.006   2.747 -0.6749 -1.6019 -0.2937
14312TIP3    H264428   2.961   0.072   2.627 -0.1297 -0.3238  0.0939
14313TIP3   OH264429   4.918   0.562  12.900 -0.0700  0.2012  0.0170
14313TIP3    H164430   4.825   0.585  12.892  0.4009  2.0217 -0.7458
14313TIP3    H264431   4.963   0.646  12.910  1.3438 -0.7533  2.4621
14314TIP3   OH264432   6.121   0.232   4.482 -0.0079  0.5899  0.2514
14314TIP3    H164433   6.038   0.267   4.448 -0.2621 -1.0729 -0.9712
14314TIP3    H264434   6.098   0.146   4.516  1.3419 -0.2399 -0.8504
14315TIP3   OH264435   1.146   2.001  12.080  0.7302  0.4010  0.3287
14315TIP3    H164436   1.102   1.935  12.133 -0.0964  0.3717 -0.3777
14315TIP3    H264437   1.106   2.084  12.106 -1.8875  0.1165 -2.3065
14316TIP3   OH264438   6.738   4.155  13.007  0.6175  0.7829  0.0286
14316TIP3    H164439   6.650   4.134  13.039  0.8034  1.5526  1.1157
14316TIP3    H264440   6.742   4.118  12.919 -1.0540  1.3559 -0.3163
14317TIP3   OH264441   5.771   4.585   4.916 -0.2037  0.5686  0.2107
14317TIP3    H164442   5.799   4.667   4.957 -0.1355  0.5108  0.2774
14317TIP3    H264443   5.694   4.610   4.864 -0.4958  0.5776  0.6413
14318TIP3   OH264444   4.179   3.982  15.107 -0.1014  0.1877  0.3609
14318TIP3    H164445   4.218   3.975  15.193  0.3618 -0.9467  0.0763
14318TIP3    H264446   4.169   3.891  15.077 -1.4330  0.5025 -0.2525
14319TIP3   OH264447   4.138   4.164  15.669  0.6228 -0.4699  0.1684
14319TIP3    H164448   4.057   4.138  15.714 -1.0312  0.5385 -2.0001
14319TIP3    H264449   4.189   4.209  15.736 -2.1075  1.8005  0.9578
14320TIP3   OH264450   5.018   4.432  15.982 -0.0344 -0.7203  0.0240
14320TIP3    H164451   5.044   4.497  15.917 -1.7104  0.1489  0.1747
14320TIP3    H264452   4.979   4.362  15.930  0.6768 -1.0766 -0.0465
14321TIP3   OH264453   0.753   4.978   4.464 -0.1392 -0.2761 -0.1973
14321TIP3    H164454   0.817   4.907   4.467 -0.4693 -0.5538  0.3848
14321TIP3    H264455   0.744   5.006   4.555  0.4913  0.9786 -0.4925
14322TIP3   OH264456   1.348   6.319   3.912  0.2277  0.3387 -0.6224
14322TIP3    H164457   1.342   6.370   3.993 -0.2901 -0.6452 -0.0213
14322TIP3    H264458   1.438   6.288   3.910  0.0189 -0.3537  0.0488
14323TIP3   OH264459   2.866   0.521  13.660  0.6168 -0.1810 -0.1095
14323TIP3    H164460   2.835   0.477  13.581  0.4208 -0.7142  0.2567
14323TIP3    H264461   2.931   0.461  13.697  1.9388  0.8208 -0.7454
14324TIP3   OH264462   2.858   6.011   0.270  0.1328 -0.1940  0.5713
14324TIP3    H164463   2.863   5.917   0.257 -0.4409 -0.2809  0.9411
14324TIP3    H264464   2.764   6.031   0.268  0.0802  0.0348  2.5977
14325TIP3   OH264465   3.370   1.588   6.313 -0.6349 -0.3655 -0.4718
14325TIP3    H164466   3.381   1.502   6.355 -1.8793 -0.8484 -1.0730
14325TIP3    H264467   3.459   1.622   6.304 -0.2886  0.0489  3.0344
14326TIP3   OH264468   6.553   5.910  11.164 -0.0455  0.1884 -0.5864
14326TIP3    H164469   6.546   5.832  11.109 -0.7759 -0.1870  0.0314
14326TIP3    H264470   6.597   5.974  11.108  1.2359 -0.8825 -0.8605
14327TIP3   OH264471   0.983   3.106   1.373 -0.1664 -0.0377 -0.1199
14327TIP3    H164472   1.052   3.108   1.306  0.4664  1.9927  0.5306
14327TIP3    H264473   0.955   3.197   1.381 -0.5214 -0.2847  2.0645
14328TIP3   OH264474   4.529   4.363  11.901 -0.5695  0.1224  0.0575
14328TIP3    H164475   4.602   4.306  11.878 -0.6237  0.8161 -2.0250
14328TIP3    H264476   4.529   4.365  11.997  1.5363 -0.6330  0.1158
14329TIP3   OH264477   3.079   5.935   2.209 -0.1058 -0.1378 -0.0597
14329TIP3    H164478   3.004   5.928   2.267  0.2231  0.5610  0.4705
14329TIP3    H264479   3.119   5.848   2.209  0.5989  0.1450  1.7541
14330TIP3   OH264480   4.670   0.253  10.952 -0.0751  0.0556 -0.6779
14330TIP3    H164481   4.731   0.322  10.975 -2.1131  1.9033 -0.5503
14330TIP3    H264482   4.632   0.281  10.869 -0.3062 -1.3768 -1.0847
14331TIP3   OH264483   1.635   3.922  16.007  0.1323 -0.2443  0.5638
14331TIP3    H164484   1.709   3.921  15.945  1.5666 -1.3098  2.1948
14331TIP3    H264485   1.558   3.907  15.953  1.1101  0.7269 -1.1892
14332TIP3   OH264486   0.357   0.159   2.265 -0.3105  0.2305 -0.2062
14332TIP3    H164487   0.303   0.233   2.291 -0.2444 -0.0039  0.6423
14332TIP3    H264488   0.447   0.192   2.268 -0.3997  0.7275 -1.9823
14333TIP3   OH264489   3.255   3.178   4.521  0.5945  0.1436  0.0160
14333TIP3    H164490   3.313   3.253   4.535  0.2185  0.3189  0.6823
14333TIP3    H264491   3.181   3.213   4.471 -0.4726  0.6656  1.8588
14334TIP3   OH264492   3.805   3.223   5.415  0.2355  0.7922 -0.4601
14334TIP3    H164493   3.731   3.284   5.415  0.5412  1.2580  1.8452
14334TIP3    H264494   3.771   3.145   5.372 -0.1908  2.4802 -3.4494
14335TIP3   OH264495   3.590   1.341   6.232  0.2711  0.1452 -0.0183
14335TIP3    H164496   3.611   1.248   6.242 -2.1455 -0.4206  0.3132
14335TIP3    H264497   3.497   1.347   6.253  0.9111  3.0699  2.6311
14336TIP3   OH264498   4.739   5.289  11.969  0.0173 -0.1801 -0.7165
14336TIP3    H164499   4.810   5.265  11.909 -0.7451 -0.9162 -1.3389
14336TIP3    H264500   4.721   5.381  11.950  1.1855  0.2007 -0.1424
14337TIP3   OH264501   6.458   6.194   5.127 -0.1058  0.6338  0.0415
14337TIP3    H164502   6.437   6.112   5.082 -0.0688  0.1062  0.9548
14337TIP3    H264503   6.552   6.191   5.143 -0.1693  0.6547  0.4478
14338TIP3   OH264504   3.406   6.436  15.027  0.1230  0.0564 -0.0068
14338TIP3    H164505   3.319   6.442  14.988  0.6174 -0.5140 -1.2485
14338TIP3    H264506   3.453   6.513  14.993 -0.0411  0.6728  1.1003
14339TIP3   OH264507   0.762   4.834   3.763  0.1119 -0.3085 -0.3522
14339TIP3    H164508   0.673   4.845   3.729  0.8089 -0.9575 -2.5880
14339TIP3    H264509   0.803   4.920   3.753 -0.3115  0.0606  0.9281
14340TIP3   OH264510   6.052   5.715  16.298 -0.3757 -0.2878 -0.7540
14340TIP3    H164511   6.133   5.664  16.305 -0.3170 -0.3017 -1.4259
14340TIP3    H264512   5.982   5.650  16.294 -0.2696 -0.3491 -2.0243
14341TIP3   OH264513   6.083   2.405   2.744 -0.2745 -0.1011 -0.1437
14341TIP3    H164514   6.135   2.475   2.785 -0.8014 -0.2187  0.7537
14341TIP3    H264515   6.148   2.343   2.710  0.2596  1.4438 -2.1704
14342TIP3   OH264516   1.675   3.861  16.452 -0.0521 -0.1354  0.4585
14342TIP3    H164517   1.596   3.869  16.505 -0.0920  0.1604  0.3533
14342TIP3    H264518   1.694   3.950  16.423 -1.9915 -0.6852 -2.9288
14343TIP3   OH264519   1.938   5.450  15.090  0.0632  0.4943 -0.1401
14343TIP3    H164520   1.912   5.543  15.087 -1.8930 -0.0120 -0.8462
14343TIP3    H264521   1.859   5.405  15.122  0.6275 -1.0349 -0.8211
14344TIP3   OH264522   0.070   5.312   5.223  0.4786  0.0282  0.4355
14344TIP3    H164523   0.083   5.224   5.257 -1.0568  0.3195  1.8896
14344TIP3    H264524   0.076   5.369   5.300 -4.5147  0.5859  0.7643
14345TIP3   OH264525   1.868   2.531  14.975 -0.3008 -0.9257 -0.2471
14345TIP3    H164526   1.836   2.513  15.063  1.4638  0.1618  0.6756
14345TIP3    H264527   1.956   2.493  14.973 -0.3004 -0.8966 -1.5366
14346TIP3   OH264528   3.905   0.757  14.596 -0.0358 -0.1638  0.7588
14346TIP3    H164529   3.832   0.816  14.578  0.2182  0.5081  1.8649
14346TIP3    H264530   3.978   0.815  14.617  1.1570 -0.7749 -1.3891
14347TIP3   OH264531   1.892   1.918   0.750  0.1801 -0.3620  0.2008
14347TIP3    H164532   1.900   1.983   0.820 -0.1816  0.6768 -0.6979
14347TIP3    H264533   1.874   1.835   0.796  0.1919  0.2450  1.3354
14348TIP3   OH264534   6.213   5.644   3.451 -0.0884  0.1189 -0.0988
14348TIP3    H164535   6.155   5.677   3.382 -1.2395 -1.2481  0.1831
14348TIP3    H264536   6.301   5.646   3.412 -0.4540  1.1968 -0.9074
14349TIP3   OH264537   4.553   6.279   3.682  0.5712 -0.2216  0.0911
14349TIP3    H164538   4.529   6.331   3.758  1.0372  1.8996 -1.1204
14349TIP3    H264539   4.532   6.335   3.607 -0.2496 -2.3858 -1.3885
14350TIP3   OH264540   4.933   2.950  12.556  0.3706 -0.1115  0.0175
14350TIP3    H164541   5.013   2.996  12.581  0.7200 -1.3075  1.2016
14350TIP3    H264542   4.961   2.891  12.485  0.6254 -0.7287  0.6165
14351TIP3   OH264543   3.656   6.193   3.064  0.4412  0.2904  0.2648
14351TIP3    H164544   3.622   6.137   2.994 -2.4682 -0.7946  2.3667
14351TIP3    H264545   3.699   6.132   3.125 -2.3533  0.2347  2.3446
14352TIP3   OH264546   6.176   3.082  12.158 -0.1005 -0.2111  0.1621
14352TIP3    H164547   6.113   3.153  12.158  1.8202  1.5819  0.0650
14352TIP3    H264548   6.253   3.118  12.202  2.3437 -0.8398 -3.1981
14353TIP3   OH264549   1.323   3.638   2.285  0.0580  0.5170 -0.3142
14353TIP3    H164550   1.353   3.726   2.310  2.0944 -0.5051  1.1625
14353TIP3    H264551   1.392   3.605   2.227  0.0004 -0.5712  0.2150
14354TIP3   OH264552   1.475   3.048  12.994 -0.0516  0.4483  0.0670
14354TIP3    H164553   1.551   3.098  12.963 -1.9084  3.5024  0.0942
14354TIP3    H264554   1.457   2.987  12.922  0.2300  2.2524 -1.6231
14355TIP3   OH264555   4.913   3.944   5.560 -0.1590  0.1939 -0.0660
14355TIP3    H164556   4.831   3.950   5.610  0.0547  1.5931  0.1481
14355TIP3    H264557   4.956   3.865   5.595 -0.7520  0.2414  0.8213
14356TIP3   OH264558   4.921   2.976   4.226 -0.5540  0.4332  0.2880
14356TIP3    H164559   4.860   2.985   4.299  0.3866 -1.1479  1.3505
14356TIP3    H264560   4.992   2.922   4.261 -0.5307 -1.2191 -2.0601
14357TIP3   OH264561   5.005   1.041   1.907 -0.4248  0.3961  0.8511
14357TIP3    H164562   5.026   1.020   1.998 -1.1039 -0.3173  0.8550
14357TIP3    H264563   5.033   0.964   1.857 -1.6524  0.0241  0.6896
14358TIP3   OH264564   3.125   3.008   5.823 -0.2165  0.0617 -0.1490
14358TIP3    H164565   3.079   3.053   5.752 -0.7122 -1.5655 -0.9386
14358TIP3    H264566   3.117   2.915   5.800  2.3943 -0.3525  0.3725
14359TIP3   OH264567   6.096   0.031   5.994 -0.1536 -0.3259  0.2564
14359TIP3    H164568   6.164   0.011   5.931  0.5697 -0.8565  1.1888
14359TIP3    H264569   6.042   0.098   5.951  1.4031  0.6862 -0.1996
14360TIP3   OH264570   5.180   4.063  16.398 -0.4416  0.4825 -0.3141
14360TIP3    H164571   5.168   3.970  16.380  0.3692 -0.0240  1.4658
14360TIP3    H264572   5.137   4.108  16.325  0.2428 -1.2719 -1.8761
14361TIP3   OH264573   5.212   3.849   2.363 -0.1008  0.2365  0.3411
14361TIP3    H164574   5.187   3.810   2.447  0.5838 -0.3059  0.3004
14361TIP3    H264575   5.183   3.785   2.298  1.0560 -0.2339  0.2749
14362TIP3   OH264576   0.964   4.952  12.133 -0.5690  0.0297  0.9084
14362TIP3    H164577   0.950   4.958  12.038  0.0546 -0.8409  0.7501
14362TIP3    H264578   1.007   5.034  12.156  1.8596 -0.8916 -0.0627
14363TIP3   OH264579   1.446   4.885  14.541  0.4441  0.1434 -0.1077
14363TIP3    H164580   1.375   4.947  14.523  0.9285  0.3321 -1.4783
14363TIP3    H264581   1.526   4.936  14.531  0.8421 -0.6257 -1.0473
14364TIP3   OH264582   4.908   2.060   0.351  0.4036 -0.7407  0.4955
14364TIP3    H164583   4.969   2.120   0.393 -1.0002  0.2161  1.2661
14364TIP3    H264584   4.907   1.983   0.408  1.4616 -1.1068  0.0435
14365TIP3   OH264585   2.668   5.548   4.459 -0.0538  0.2048 -0.2432
14365TIP3    H164586   2.709   5.574   4.377  1.3374  1.8417  0.8962
14365TIP3    H264587   2.719   5.592   4.527 -2.3899  0.5903  1.4153
14366TIP3   OH264588   1.525   2.249   6.116  0.1508  0.6472 -0.2447
14366TIP3    H164589   1.519   2.327   6.171  1.8938  0.4958  0.2165
14366TIP3    H264590   1.452   2.193   6.145 -0.3174  1.5393  0.3211
14367TIP3   OH264591   6.304   2.618  13.560  0.6365  0.0272  0.6919
14367TIP3    H164592   6.325   2.633  13.653 -0.1384  0.6490  0.7759
14367TIP3    H264593   6.213   2.590  13.560 -0.1022  2.2410 -0.0346
14368TIP3   OH264594   0.465   5.998  13.406  0.2101  0.4155  0.1424
14368TIP3    H164595   0.470   6.062  13.336  0.3586 -0.2452 -0.4640
14368TIP3    H264596   0.529   5.931  13.382  0.6835  0.4697  1.2099
14369TIP3   OH264597   0.669   0.734  11.810 -0.4285 -0.1321  0.4039
14369TIP3    H164598   0.590   0.682  11.796  0.3128 -1.0384 -0.6322
14369TIP3    H264599   0.740   0.678  11.777  1.1058 -0.8444  4.3065
14370TIP3   OH264600   3.390   3.664   3.775  0.1523 -0.2259 -0.0137
14370TIP3    H164601   3.374   3.730   3.843 -0.1657 -2.8498  2.6630
14370TIP3    H264602   3.316   3.672   3.715  0.5526  2.3187 -0.2957
14371TIP3   OH264603   1.844   1.286   0.018  0.1787  0.0105 -0.0974
14371TIP3    H164604   1.761   1.331   0.004  0.0397 -0.2675 -0.1760
14371TIP3    H264605   1.910   1.345  -0.020  0.1748  0.8742  1.1841
14372TIP3   OH264606   0.986   4.994   1.371  0.0629  0.0629  0.1110
14372TIP3    H164607   0.905   5.042   1.385 -0.6766 -0.6466 -1.4715
14372TIP3    H264608   0.967   4.905   1.400 -0.3358 -0.5301 -1.8011
14373TIP3   OH264609   5.730   3.423  12.082 -0.7714  0.6434 -0.1961
14373TIP3    H164610   5.813   3.471  12.085 -0.8280  0.7062  0.4360
14373TIP3    H264611   5.719   3.399  11.989 -0.5831  1.5658 -0.4635
14374TIP3   OH264612   0.574   0.595   0.193 -0.4948  0.0428  0.0243
14374TIP3    H164613   0.612   0.507   0.186 -1.1075 -0.3317  1.1253
14374TIP3    H264614   0.560   0.622   0.102  0.1942 -0.7779 -0.3415
14375TIP3   OH264615   3.999   1.281   4.620  0.4239 -0.3677 -0.7758
14375TIP3    H164616   4.022   1.265   4.528 -1.1910 -1.7946 -1.0005
14375TIP3    H264617   4.075   1.250   4.670  1.1984  0.1503 -1.6187
14376TIP3   OH264618   1.485   6.535  15.902 -0.3444 -0.5242  0.2885
14376TIP3    H164619   1.416   6.601  15.915  0.1315 -0.4047  2.5120
14376TIP3    H264620   1.449   6.455  15.942 -0.1649 -1.1415 -0.7537
14377TIP3   OH264621   6.412   2.706  12.593 -0.1290  0.2066  0.0818
14377TIP3    H164622   6.488   2.728  12.540  0.7881 -0.9304  0.8740
14377TIP3    H264623   6.431   2.745  12.679 -0.4749 -0.0209  0.2643
14378TIP3   OH264624   5.655   4.900   0.264 -0.3249 -0.4968  0.1056
14378TIP3    H164625   5.679   4.812   0.236  0.4105 -0.3397  0.2200
14378TIP3    H264626   5.671   4.899   0.359  1.3241  0.2458 -0.1181
14379TIP3   OH264627   0.643   6.154  14.513  0.3145  0.1245 -0.1356
14379TIP3    H164628   0.681   6.202  14.586  0.2810  0.3406 -0.2606
14379TIP3    H264629   0.709   6.088  14.491  0.1075 -0.2695  0.4168
14380TIP3   OH264630   3.043   5.208  16.326  0.0254  0.3475  0.2990
14380TIP3    H164631   3.012   5.293  16.297 -2.7111 -0.2602  1.1367
14380TIP3    H264632   3.053   5.157  16.246 -1.7914  0.4204  0.0031
14381TIP3   OH264633   4.240   1.383   2.697  0.4828  0.3243  0.8043
14381TIP3    H164634   4.184   1.309   2.671  0.1600  0.8891 -0.1471
14381TIP3    H264635   4.179   1.447   2.733  0.4622  1.0348 -0.4409
14382TIP3   OH264636   6.534   4.343  12.013 -0.3693 -0.8381  0.2155
14382TIP3    H164637   6.537   4.298  11.929 -1.0684 -1.4762  0.5216
14382TIP3    H264638   6.617   4.322  12.055  0.2508 -0.0130 -0.5534
14383TIP3   OH264639   6.472   2.619   3.850 -0.0764  0.3207 -0.0563
14383TIP3    H164640   6.400   2.675   3.821 -0.9578  0.3501  1.9959
14383TIP3    H264641   6.446   2.531   3.822 -1.1854  0.2616  1.0851
14384TIP3   OH264642   2.732   0.886   5.500 -0.1061 -0.0665 -0.3218
14384TIP3    H164643   2.694   0.839   5.425 -1.1375 -0.4891  0.4266
14384TIP3    H264644   2.700   0.837   5.577 -0.3879  1.2840  0.4502
14385TIP3   OH264645   2.856   5.218  14.066  0.0981  0.5798  0.2453
14385TIP3    H164646   2.803   5.243  14.142  0.9163  0.1005  1.0002
14385TIP3    H264647   2.920   5.289  14.057  0.3663  0.3567  0.3698
14386TIP3   OH264648   0.208   6.813  12.552 -0.4937  0.7672  0.0440
14386TIP3    H164649   0.172   6.889  12.598 -0.3757  1.0121 -0.2625
14386TIP3    H264650   0.303   6.828  12.553 -0.4539  0.5094  0.1833
14387TIP3   OH264651   6.779   5.643  17.166  0.3054  0.5180  0.5389
14387TIP3    H164652   6.836   5.648  17.089 -1.0653 -0.7701 -0.6297
14387TIP3    H264653   6.694   5.673  17.134 -0.2540  0.0903  1.5921
14388TIP3   OH264654   4.211   4.910   3.357 -0.0121  0.1395 -0.5007
14388TIP3    H164655   4.297   4.941   3.385  1.1621 -1.8245 -1.7103
14388TIP3    H264656   4.173   4.870   3.435  1.2829 -1.2247 -0.5253
14389TIP3   OH264657   0.621   4.883   0.141 -0.5218  0.6161  0.0294
14389TIP3    H164658   0.617   4.978   0.141 -2.2314  0.6345 -2.0778
14389TIP3    H264659   0.551   4.856   0.082 -0.7520 -2.0073  1.3505
14390TIP3   OH264660   4.577   0.954  15.998  0.7975 -0.4267  0.8629
14390TIP3    H164661   4.485   0.980  16.001  1.2270  1.4320 -0.3969
14390TIP3    H264662   4.575   0.860  16.014 -1.3615 -0.5111  0.5015
14391TIP3   OH264663   0.002   3.496  17.163 -0.1534 -0.3637 -0.6092
14391TIP3    H164664   0.030   3.586  17.143  1.0746 -0.9176 -1.5163
14391TIP3    H264665   0.082   3.453  17.195 -1.1333 -0.6545  1.6432
14392TIP3   OH264666   3.480   1.625  12.426  0.4312 -0.6567 -0.2118
14392TIP3    H164667   3.407   1.640  12.365  1.0928  0.0980 -0.8488
14392TIP3    H264668   3.450   1.662  12.509  0.6489  1.0368 -0.8509
14393TIP3   OH264669   0.516   5.406  12.500  0.1753 -0.4566  0.0434
14393TIP3    H164670   0.510   5.313  12.523 -3.1395  0.1386  2.2218
14393TIP3    H264671   0.450   5.418  12.431  1.4762  0.1259 -1.1592
14394TIP3   OH264672   3.164   3.560   4.513 -0.4487 -0.3475  0.1582
14394TIP3    H164673   3.072   3.557   4.536 -0.9292  3.1443 -0.7495
14394TIP3    H264674   3.198   3.636   4.561  1.2809  0.0422 -1.5671
14395TIP3   OH264675   0.288   5.761  12.876 -0.0383  0.2410  0.2479
14395TIP3    H164676   0.381   5.740  12.875  0.0492  0.4055  2.0819
14395TIP3    H264677   0.271   5.801  12.790  1.4937 -0.0951 -0.2321
14396TIP3   OH264678   1.318   0.474  13.334  0.3630 -0.2872  0.0594
14396TIP3    H164679   1.379   0.418  13.381  0.2906 -0.0440  0.4419
14396TIP3    H264680   1.302   0.428  13.251  0.4624 -0.7263  0.2845
14397TIP3   OH264681   6.647   1.236   0.815  0.5134  0.2912  0.2842
14397TIP3    H164682   6.622   1.300   0.881 -0.8194  0.3968 -0.2780
14397TIP3    H264683   6.614   1.153   0.848  2.9282 -0.3114  1.3923
14398TIP3   OH264684   6.448   6.235   6.169  0.0060  0.4688 -0.0820
14398TIP3    H164685   6.357   6.263   6.170  0.3453  1.9304 -2.3976
14398TIP3    H264686   6.466   6.216   6.077  1.8583 -0.4832  0.4288
14399TIP3   OH264687   1.150   4.067  13.372 -0.5822 -0.1154 -0.3498
14399TIP3    H164688   1.138   4.064  13.277  0.4851 -0.1979 -0.4990
14399TIP3    H264689   1.137   3.977  13.401 -1.4889  0.0142 -0.3300
14400TIP3   OH264690   5.273   5.747  16.960 -0.5839 -0.2543 -0.1713
14400TIP3    H164691   5.205   5.718  16.899 -1.5581  0.5113  0.5336
14400TIP3    H264692   5.270   5.683  17.031 -2.4805  1.2397  1.2015
14401TIP3   OH264693   6.013   5.526  12.941  0.3762  0.0328  0.1572
14401TIP3    H164694   5.968   5.529  13.025  1.2176  0.8648  0.5970
14401TIP3    H264695   5.960   5.581  12.883 -0.1741 -0.5000  0.1403
14402TIP3   OH264696   3.837   1.311   5.071  0.7120 -0.1256  0.1161
14402TIP3    H164697   3.778   1.381   5.099  1.0736 -0.2450  1.2471
14402TIP3    H264698   3.878   1.281   5.153 -0.4388 -2.5938 -0.1411
14403TIP3   OH264699   2.830   5.303   2.254 -0.6409 -0.1821  1.4207
14403TIP3    H164700   2.917   5.264   2.265  0.8173  2.3908 -0.0847
14403TIP3    H264701   2.814   5.350   2.336  0.5638  1.3759  0.8039
14404TIP3   OH264702   3.460   4.149  16.964  0.3133 -0.0613  0.3096
14404TIP3    H164703   3.555   4.159  16.965  0.3059  0.1941 -0.7920
14404TIP3    H264704   3.446   4.065  16.920  0.0390 -0.4225  1.0630
14405TIP3   OH264705   5.898   0.154  13.076 -0.3379 -0.5004  0.6782
14405TIP3    H164706   5.897   0.247  13.054 -2.5975 -0.3452  1.1888
14405TIP3    H264707   5.827   0.143  13.139  0.6390 -2.3776  1.5347
14406TIP3   OH264708   3.824   2.833  15.261  0.5062  0.3595 -0.0571
14406TIP3    H164709   3.843   2.794  15.347 -0.6076  3.4342  1.7329
14406TIP3    H264710   3.905   2.875  15.235  0.8284 -0.5280 -0.5388
14407TIP3   OH264711   1.912   0.185   6.597  0.0475  0.2549 -0.2242
14407TIP3    H164712   1.859   0.247   6.648  0.5976  0.3918  0.1883
14407TIP3    H264713   1.925   0.111   6.656  1.8298  0.9868  0.3657
14408TIP3   OH264714   2.157   6.289  11.764 -0.1183 -0.3217 -0.2457
14408TIP3    H164715   2.108   6.207  11.758  0.4311 -0.5972 -1.1265
14408TIP3    H264716   2.216   6.275  11.839 -1.5520  0.1293  1.0140
14409TIP3   OH264717   1.142   6.255  15.823 -0.1922  0.3674  0.7955
14409TIP3    H164718   1.117   6.221  15.737  0.3851  1.1318  0.3159
14409TIP3    H264719   1.059   6.263  15.870 -0.4288 -0.8627  0.6237
14410TIP3   OH264720   3.461   2.257  13.362 -0.0088  0.5117  0.1653
14410TIP3    H164721   3.419   2.343  13.357 -1.9122 -0.3920 -0.1474
14410TIP3    H264722   3.392   2.198  13.393  0.8093 -1.2016 -1.1120
14411TIP3   OH264723   6.020   1.019  12.509 -0.4616  0.1651  0.4093
14411TIP3    H164724   6.003   1.011  12.415  1.1514  0.1295  0.0816
14411TIP3    H264725   6.114   1.039  12.514 -0.6002  0.5073  2.0024
14412TIP3   OH264726   4.878   3.877   6.155 -0.4017 -0.2223  0.2331
14412TIP3    H164727   4.898   3.833   6.072 -0.8376 -1.0344  0.5494
14412TIP3    H264728   4.932   3.956   6.154 -2.1573  1.0743 -1.9452
14413TIP3   OH264729   5.688   4.563   2.355  0.6691  0.2163 -0.6313
14413TIP3    H164730   5.722   4.652   2.346  1.1364 -0.0356 -1.5176
14413TIP3    H264731   5.595   4.574   2.373  0.3672  0.8820 -2.4045
14414TIP3   OH264732   6.260   1.575  13.654 -0.4135 -0.1619  0.0196
14414TIP3    H164733   6.330   1.552  13.592  0.3496 -1.7877  1.4213
14414TIP3    H264734   6.295   1.551  13.740 -1.7122  1.4352  1.0520
14415TIP3   OH264735   2.020   6.704   3.652  0.0637  0.3590 -0.4943
14415TIP3    H164736   1.985   6.691   3.564 -2.0680 -0.2823  0.3848
14415TIP3    H264737   2.111   6.729   3.638 -0.2800  0.5147 -2.8769
14416TIP3   OH264738   5.816   1.153  15.761  0.0302 -0.0470  0.2347
14416TIP3    H164739   5.747   1.097  15.724 -0.2438  1.7382 -2.2612
14416TIP3    H264740   5.815   1.134  15.855 -3.6646 -0.3847  0.2905
14417TIP3   OH264741   3.812   0.912   5.753  0.0145  0.3302  0.0296
14417TIP3    H164742   3.780   0.831   5.713  0.1250  0.5210 -0.4565
14417TIP3    H264743   3.833   0.888   5.843 -0.3189 -0.0883 -0.0033
14418TIP3   OH264744   6.439   2.238  14.911 -0.1093 -0.4154  0.0214
14418TIP3    H164745   6.467   2.157  14.868  0.7045 -0.7458  1.1197
14418TIP3    H264746   6.344   2.228  14.921  0.0592 -1.5677  0.7551
14419TIP3   OH264747   2.558   3.633  14.894  0.7488 -0.0774  0.6843
14419TIP3    H164748   2.620   3.565  14.868 -0.5954 -1.6852  1.4960
14419TIP3    H264749   2.514   3.597  14.971  0.0119  1.7483  1.1659
14420TIP3   OH264750   0.048   4.910  16.056  0.6315  0.7001  0.1234
14420TIP3    H164751   0.073   4.830  16.102 -0.1851  0.7352  0.6547
14420TIP3    H264752   0.125   4.966  16.062  1.6966 -0.5034 -1.3757
14421TIP3   OH264753   6.131   5.899  12.083  0.2029  0.8744 -0.1512
14421TIP3    H164754   6.152   5.809  12.058 -0.4454  0.9522 -1.0099
14421TIP3    H264755   6.184   5.954  12.025 -0.4183  1.0474 -0.5710
14422TIP3   OH264756   4.595   4.652  17.067 -0.0272 -0.6479 -0.9113
14422TIP3    H164757   4.666   4.713  17.086  0.0559 -1.4716  1.9987
14422TIP3    H264758   4.635   4.584  17.014  0.8461 -0.0732 -1.0060
14423TIP3   OH264759   3.543   2.763   2.765  0.1064  0.6427 -0.2264
14423TIP3    H164760   3.528   2.669   2.751  1.8597 -0.2690  2.8639
14423TIP3    H264761   3.459   2.796   2.798  0.0776 -0.4467  0.8865
14424TIP3   OH264762   4.610   5.990  12.139 -0.2825  0.2116 -0.5869
14424TIP3    H164763   4.653   5.997  12.225 -2.4288  0.0178  0.5804
14424TIP3    H264764   4.614   5.897  12.119 -0.3028  0.1672 -0.3936
14425TIP3   OH264765   2.635   6.454  12.536  0.1460  1.0527  0.6274
14425TIP3    H164766   2.567   6.510  12.498 -0.6132  0.1601  0.6603
14425TIP3    H264767   2.715   6.480  12.489 -0.5964  0.6029 -0.9616
14426TIP3   OH264768   6.491   3.587  15.700 -0.2454  0.5596 -0.0464
14426TIP3    H164769   6.424   3.635  15.651 -0.3003  0.9748  0.4183
14426TIP3    H264770   6.448   3.507  15.728 -0.5913  0.8723  0.3409
14427TIP3   OH264771   1.275   1.043   6.017  0.8695  0.0563  0.5051
14427TIP3    H164772   1.240   0.977   6.077  0.2760 -0.8521 -0.8127
14427TIP3    H264773   1.206   1.109   6.012  0.3311 -0.5486 -0.2243
14428TIP3   OH264774   6.186   6.323  15.780 -0.3050 -0.1083 -0.2301
14428TIP3    H164775   6.094   6.308  15.759 -0.8044  1.1757  0.9265
14428TIP3    H264776   6.233   6.261  15.724 -1.8180 -0.3096 -1.3614
14429TIP3   OH264777   4.400   3.995  16.846  0.0176  0.3129  0.2876
14429TIP3    H164778   4.434   4.073  16.890  3.1969 -0.8916  0.1814
14429TIP3    H264779   4.443   3.995  16.760 -0.1750 -1.3659  0.1613
14430TIP3   OH264780   4.531   5.663  11.238 -0.2848  0.0705  0.4806
14430TIP3    H164781   4.529   5.605  11.313  0.3664 -0.2129  0.2868
14430TIP3    H264782   4.471   5.735  11.261 -0.8843 -0.5319  0.8285
14431TIP3   OH264783   3.435   0.509  16.802 -0.0482 -0.2519 -0.2382
14431TIP3    H164784   3.381   0.472  16.732  0.6853 -0.4408 -0.7118
14431TIP3    H264785   3.517   0.460  16.798 -0.1826 -0.6265  1.1037
14432TIP3   OH264786   6.762   4.139   3.432 -0.4166  0.5718  0.2380
14432TIP3    H164787   6.847   4.165   3.467  0.4756 -0.2669 -1.1964
14432TIP3    H264788   6.720   4.222   3.406  0.0982  0.9586  0.6202
14433TIP3   OH264789   6.063   2.928   2.332 -0.0576  0.3808 -0.0025
14433TIP3    H164790   6.099   2.848   2.372  1.2260  0.4993 -0.8686
14433TIP3    H264791   6.127   2.996   2.350  0.4757  0.4851 -2.0376
14434TIP3   OH264792   0.405   4.649  14.461  0.2038 -0.7925 -0.1512
14434TIP3    H164793   0.464   4.699  14.405  0.1483  0.5940  0.9451
14434TIP3    H264794   0.318   4.682  14.439  0.1929 -0.1227  0.7960
14435TIP3   OH264795   0.964   4.847  10.682 -0.3377 -0.6588 -0.1594
14435TIP3    H164796   0.964   4.942  10.670  2.0217 -0.6523 -0.5722
14435TIP3    H264797   0.989   4.812  10.597 -0.9144 -1.6592  0.0640
14436TIP3   OH264798   1.280   0.876   5.124 -0.6651 -0.6443 -0.1764
14436TIP3    H164799   1.288   0.860   5.030 -1.0335  3.1091 -0.9863
14436TIP3    H264800   1.190   0.907   5.136 -0.2189  0.2521  1.1561
14437TIP3   OH264801   1.277   5.481   5.271 -0.1281 -0.1065  0.1817
14437TIP3    H164802   1.256   5.524   5.354  1.1312 -2.5887  1.9316
14437TIP3    H264803   1.372   5.479   5.269  0.0712  3.2617 -3.3133
14438TIP3   OH264804   3.142   1.371   5.354 -0.2447  0.0915 -0.0358
14438TIP3    H164805   3.103   1.288   5.384 -0.6429  0.2698 -0.0459
14438TIP3    H264806   3.204   1.346   5.287 -1.2327 -0.1101 -0.8969
14439TIP3   OH264807   6.756   1.299  16.617  0.2998  0.1885 -0.2564
14439TIP3    H164808   6.832   1.279  16.672  0.8333  1.5458 -0.4633
14439TIP3    H264809   6.742   1.219  16.566  1.2724 -0.2575  0.1483
14440TIP3   OH264810   0.041   5.922   2.681  0.0465 -0.6367  0.2487
14440TIP3    H164811   0.052   5.830   2.703  1.9146 -0.1400  1.7144
14440TIP3    H264812   0.077   5.930   2.592 -3.3040 -1.8425 -1.3762
14441TIP3   OH264813   1.390   4.051   4.036  1.1634  0.3405 -0.3233
14441TIP3    H164814   1.303   4.087   4.022  0.9969 -0.6978 -2.2249
14441TIP3    H264815   1.377   3.978   4.097  0.2146 -1.4684 -2.5560
14442TIP3   OH264816   3.201   2.359   0.727  0.5726  0.2926  0.0295
14442TIP3    H164817   3.211   2.304   0.804  1.2353  1.2734  0.6649
14442TIP3    H264818   3.121   2.327   0.684  2.1704 -2.7087 -0.9341
14443TIP3   OH264819   6.318   6.293   3.462  0.4307 -0.1346 -0.2356
14443TIP3    H164820   6.346   6.281   3.372 -0.8714 -0.3440 -0.6244
14443TIP3    H264821   6.316   6.204   3.499 -0.9601 -0.2783 -0.6053
14444TIP3   OH264822   0.114   4.587  14.963  1.0472  0.7835 -0.3243
14444TIP3    H164823   0.044   4.552  14.909  1.0762 -1.1447  0.8109
14444TIP3    H264824   0.136   4.671  14.923  0.5904 -0.2252 -2.8498
14445TIP3   OH264825   4.418   0.833   4.912  0.0860 -0.2279  0.0067
14445TIP3    H164826   4.507   0.827   4.878  0.3039  0.0074  0.5203
14445TIP3    H264827   4.401   0.927   4.919 -0.9577 -0.2082 -1.9928
14446TIP3   OH264828   0.132   0.463  12.562  0.6738 -0.1411  0.3512
14446TIP3    H164829   0.159   0.482  12.472 -2.7002  0.2919 -0.7157
14446TIP3    H264830   0.158   0.541  12.612  1.6326  0.0803 -0.4788
14447TIP3   OH264831   2.539   1.828  17.140  0.0309 -0.5342 -0.1030
14447TIP3    H164832   2.611   1.850  17.081  0.1030 -3.7294 -1.3946
14447TIP3    H264833   2.563   1.867  17.224  1.4814  1.4556 -1.3873
14448TIP3   OH264834   0.198   1.326  16.465 -0.1473 -0.2743  0.3787
14448TIP3    H164835   0.227   1.410  16.431 -0.6403 -0.6620 -1.0800
14448TIP3    H264836   0.180   1.342  16.557  2.5862  0.4913  0.8755
14449TIP3   OH264837   4.783   6.238  14.844 -0.5180  0.5243 -0.0453
14449TIP3    H164838   4.774   6.227  14.750 -0.3570 -0.7581  0.0622
14449TIP3    H264839   4.870   6.277  14.856 -0.6255  0.8814 -0.4297
14450TIP3   OH264840   1.111   6.429   6.064 -0.2957 -0.1294 -0.2138
14450TIP3    H164841   1.152   6.352   6.103  0.1737 -0.7058 -1.7507
14450TIP3    H264842   1.040   6.393   6.011 -2.0651  0.7569  1.4228
14451TIP3   OH264843   6.540   5.094  15.252 -0.3029 -0.4293  0.0770
14451TIP3    H164844   6.614   5.067  15.198  0.5301 -1.4799  1.6800
14451TIP3    H264845   6.472   5.118  15.189  1.0645 -0.3285 -1.4266
14452TIP3   OH264846   2.739   0.364  12.381  0.1095 -0.0897 -0.3012
14452TIP3    H164847   2.762   0.291  12.323 -1.8739 -1.4696  0.5447
14452TIP3    H264848   2.757   0.332  12.469 -2.4745 -0.3036  0.2119
14453TIP3   OH264849   0.140   0.785  16.050 -0.1056 -0.6056  0.2465
14453TIP3    H164850   0.227   0.821  16.038 -0.2727 -0.2244  0.1670
14453TIP3    H264851   0.081   0.860  16.044 -0.3455 -0.6626  1.5414
14454TIP3   OH264852   5.754   0.246   3.918 -0.1743  0.1854  0.0733
14454TIP3    H164853   5.679   0.190   3.939 -1.8816  2.2693  0.0317
14454TIP3    H264854   5.738   0.274   3.828  0.7277  0.5793  0.0248
14455TIP3   OH264855   3.662   5.460  14.075 -0.2421  0.4510  0.0470
14455TIP3    H164856   3.719   5.391  14.039 -0.3685 -0.4869  1.5693
14455TIP3    H264857   3.574   5.435  14.050 -0.3014 -0.0408  0.7231
14456TIP3   OH264858   1.199   5.475   5.004 -0.0573 -1.0967  0.0865
14456TIP3    H164859   1.215   5.447   5.094  1.8129  1.2975  0.6134
14456TIP3    H264860   1.263   5.426   4.952  3.0120  1.6178  0.9575
14457TIP3   OH264861   3.149   0.845  13.093  0.1436 -0.2824 -0.0988
14457TIP3    H164862   3.120   0.934  13.072  1.4181  1.3020  3.7951
14457TIP3    H264863   3.095   0.819  13.167  0.9473 -2.0592 -0.0806
14458TIP3   OH264864   4.743   5.809   2.175  0.0121  0.3087  0.6753
14458TIP3    H164865   4.787   5.724   2.173 -0.3923  0.1113 -0.7510
14458TIP3    H264866   4.813   5.873   2.189  0.2931 -0.2637  1.9500
14459TIP3   OH264867   1.611   6.437  12.180  0.2063  0.1222 -0.1749
14459TIP3    H164868   1.614   6.341  12.171 -0.3258  0.1385 -0.6439
14459TIP3    H264869   1.700   6.465  12.161  0.5633 -0.3384  0.7847
14460TIP3   OH264870   1.181   2.392   4.542  0.2661 -0.2157  0.0604
14460TIP3    H164871   1.113   2.453   4.515 -0.0969 -1.1132 -1.1086
14460TIP3    H264872   1.136   2.326   4.594  0.2807 -0.7003 -0.5436
14461TIP3   OH264873   2.959   1.166   0.098  0.6597 -0.2024 -0.3251
14461TIP3    H164874   2.996   1.225   0.031 -0.5083  0.0457 -0.7768
14461TIP3    H264875   2.963   1.079   0.058 -0.9899  0.0753 -1.1883
14462TIP3   OH264876   1.047   4.480  14.193  0.2833  0.5689 -0.1896
14462TIP3    H164877   1.000   4.397  14.200  1.6935 -0.1588  1.8412
14462TIP3    H264878   1.113   4.465  14.125 -1.7445  1.3217 -2.4450
14463TIP3   OH264879   3.653   3.429  11.167 -0.3143 -0.4181  0.4547
14463TIP3    H164880   3.721   3.384  11.118 -1.0830 -0.3950 -0.6872
14463TIP3    H264881   3.632   3.505  11.113 -0.9390 -0.2027  0.9959
14464TIP3   OH264882   3.572   4.274   5.564 -0.0474  0.1929 -0.1232
14464TIP3    H164883   3.506   4.342   5.550  0.7553  0.6388 -1.9291
14464TIP3    H264884   3.624   4.306   5.637 -0.3846  0.9520 -0.2102
14465TIP3   OH264885   2.782   2.227  16.457 -0.4627  0.2118  0.0562
14465TIP3    H164886   2.807   2.274  16.537  1.3588 -0.6480  0.0416
14465TIP3    H264887   2.732   2.152  16.488 -0.4641  0.3262  0.3316
14466TIP3   OH264888   0.702   3.956  11.404  0.5008  0.3773 -0.4364
14466TIP3    H164889   0.767   3.970  11.336 -1.8809  0.6172 -2.8360
14466TIP3    H264890   0.690   3.861  11.408  0.3964  0.3846 -0.5889
14467TIP3   OH264891   1.315   1.754   1.919  0.4194  0.0640 -0.3702
14467TIP3    H164892   1.397   1.762   1.967 -1.5041  1.0512  3.1008
14467TIP3    H264893   1.294   1.843   1.893  0.2818 -0.1407 -0.9752
14468TIP3   OH264894   1.179   0.452   0.639  0.2931 -0.7627  0.5531
14468TIP3    H164895   1.248   0.385   0.636 -0.0776 -1.1109 -0.5061
14468TIP3    H264896   1.172   0.484   0.549 -0.8823 -0.6895  0.6544
14469TIP3   OH264897   6.581   6.042  12.624 -0.1092  0.4177 -0.4908
14469TIP3    H164898   6.500   6.092  12.617  1.1795  2.8170  0.5993
14469TIP3    H264899   6.650   6.105  12.607  1.6363 -0.9699  1.0225
14470TIP3   OH264900   1.061   5.127   6.161 -0.3246 -0.4804  0.5059
14470TIP3    H164901   1.081   5.059   6.097  0.5711  0.0147  0.2304
14470TIP3    H264902   0.983   5.170   6.126  0.5912  0.2831 -0.7051
14471TIP3   OH264903   2.473   1.898  11.572  0.3504 -0.7386  0.0089
14471TIP3    H164904   2.412   1.970  11.558  1.6254  0.5878  0.9790
14471TIP3    H264905   2.455   1.869  11.662  1.2174 -0.2315  0.3609
14472TIP3   OH264906   3.299   6.631   2.676 -0.6012  0.1407  0.0526
14472TIP3    H164907   3.206   6.636   2.698 -0.6802  1.7046 -0.5472
14472TIP3    H264908   3.315   6.706   2.620  0.3080 -1.9602 -2.7090
14473TIP3   OH264909   1.251   6.117  14.539 -0.2020 -0.7030 -0.0938
14473TIP3    H164910   1.256   6.213  14.547 -2.0240 -0.6053  0.1406
14473TIP3    H264911   1.296   6.098  14.456 -0.5891  0.4455 -0.5886
14474TIP3   OH264912   6.585   0.579  12.322  0.1908 -0.1539 -0.0215
14474TIP3    H164913   6.660   0.609  12.373 -0.1071 -0.3160  0.5207
14474TIP3    H264914   6.608   0.491  12.294  0.3874 -0.0360 -0.2246
14475TIP3   OH264915   3.417   1.686  11.073 -0.2807  0.2606 -0.6145
14475TIP3    H164916   3.412   1.690  10.977  0.0924  0.1704 -0.6414
14475TIP3    H264917   3.328   1.665  11.101 -0.2011 -0.6544 -1.0048
14476TIP3   OH264918   1.617   0.127  13.576  0.4807 -0.1250 -0.3058
14476TIP3    H164919   1.576   0.165  13.499 -0.3758 -1.3712 -0.5118
14476TIP3    H264920   1.710   0.127  13.557  0.4692  1.4286 -0.4595
14477TIP3   OH264921   5.977   1.106  14.718 -0.3998  0.2971 -0.6029
14477TIP3    H164922   5.917   1.121  14.645 -0.1568 -0.3843 -0.9432
14477TIP3    H264923   5.921   1.074  14.789 -0.4503 -0.3056 -0.9101
14478TIP3   OH264924   2.457   6.121   3.834 -0.4662  0.2568  0.0290
14478TIP3    H164925   2.362   6.122   3.823 -0.3582 -0.2948 -1.0493
14478TIP3    H264926   2.479   6.030   3.851 -0.3460  0.6870  2.7977
14479TIP3   OH264927   5.529   4.735   5.980 -0.1484  0.0676  0.0344
14479TIP3    H164928   5.461   4.671   5.960  0.2591  0.1193 -1.6481
14479TIP3    H264929   5.609   4.683   5.989 -0.3514  0.0149  1.9428
14480TIP3   OH264930   1.868   2.101  11.985  0.0821 -0.1299 -0.2586
14480TIP3    H164931   1.893   2.025  12.038 -1.3479 -1.0444 -0.8335
14480TIP3    H264932   1.830   2.063  11.905  1.8206  1.1933 -1.8192
14481TIP3   OH264933   1.418   4.103  13.452 -0.1426  0.1122  0.3945
14481TIP3    H164934   1.328   4.073  13.439 -0.9579  2.5866 -0.1581
14481TIP3    H264935   1.454   4.043  13.518 -1.2690 -2.5994 -1.2422
14482TIP3   OH264936   0.547   5.055   3.816 -0.0357 -0.6377  0.4838
14482TIP3    H164937   0.614   5.079   3.880 -0.7313  1.1894  0.5902
14482TIP3    H264938   0.464   5.075   3.860 -0.5641 -0.4245 -0.5844
14483TIP3   OH264939   3.344   2.278   4.754 -0.9819 -0.0133  0.0474
14483TIP3    H164940   3.425   2.238   4.723 -0.0815  1.7011  0.0815
14483TIP3    H264941   3.282   2.205   4.759  0.1051 -1.1107 -1.4511
14484TIP3   OH264942   3.281   4.113   4.148 -0.2383 -0.2029  0.9176
14484TIP3    H164943   3.241   4.166   4.079 -0.3195  0.6233  1.5694
14484TIP3    H264944   3.375   4.119   4.132 -0.2985 -1.0096  0.1889
14485TIP3   OH264945   3.654   1.712  10.666 -0.6286 -0.4905  0.0477
14485TIP3    H164946   3.576   1.690  10.615 -2.3779 -1.7079  2.9979
14485TIP3    H264947   3.638   1.800  10.698 -1.2353 -1.0521  1.3406
14486TIP3   OH264948   4.013   5.793   2.470  0.3646 -0.3057 -0.6029
14486TIP3    H164949   4.018   5.851   2.547  1.8901  0.0137 -0.9189
14486TIP3    H264950   3.923   5.762   2.470 -0.6322  2.2866 -0.5554
14487TIP3   OH264951   6.047   2.262   4.597 -0.2029  0.0359 -0.2649
14487TIP3    H164952   5.993   2.332   4.561 -0.9490 -0.3716  0.0224
14487TIP3    H264953   6.136   2.296   4.596 -0.7773  1.7711  1.7045
14488TIP3   OH264954   1.005   0.561  13.265 -0.7222  0.0443 -0.1702
14488TIP3    H164955   0.964   0.476  13.279 -1.1852 -0.0535 -1.9622
14488TIP3    H264956   1.096   0.540  13.242 -1.1453 -0.0850 -1.8732
14489TIP3   OH264957   4.782   3.282   5.658  0.4588 -0.0733  0.1285
14489TIP3    H164958   4.780   3.299   5.564  1.3334 -0.2305  0.0804
14489TIP3    H264959   4.872   3.300   5.684 -0.2933  2.3923  1.3864
14490TIP3   OH264960   5.316   5.843  16.618 -0.4778  0.4175  0.3913
14490TIP3    H164961   5.309   5.835  16.713  0.7875 -2.3165  0.3497
14490TIP3    H264962   5.386   5.907  16.604  0.4360 -0.3453  1.3675
14491TIP3   OH264963   1.956   0.617   6.260 -0.1425 -0.5575 -0.0631
14491TIP3    H164964   1.905   0.597   6.338 -0.3559 -0.8226 -0.2727
14491TIP3    H264965   1.905   0.684   6.214 -2.4386 -3.6362 -2.3883
14492TIP3   OH264966   6.809   1.829   2.474  0.0956 -0.1230  0.2322
14492TIP3    H164967   6.716   1.819   2.491  0.5377 -1.4346  2.2021
14492TIP3    H264968   6.851   1.760   2.526  2.1917  0.6176 -0.3533
14493TIP3   OH264969   4.705   4.507  13.900 -0.1775 -0.4980 -0.3515
14493TIP3    H164970   4.645   4.569  13.940  0.0885 -0.8223  0.5850
14493TIP3    H264971   4.693   4.426  13.951  2.0790 -0.1535  0.8495
14494TIP3   OH264972   0.587   6.566  12.255 -0.0623 -0.8196 -0.1570
14494TIP3    H164973   0.639   6.503  12.205 -0.2018 -0.1955 -1.1229
14494TIP3    H264974   0.546   6.621  12.188 -1.2178 -0.7130  0.6145
14495TIP3   OH264975   2.711   2.497   5.578  0.0017  0.6435 -0.5652
14495TIP3    H164976   2.682   2.583   5.547 -0.9532 -0.2035 -2.1833
14495TIP3    H264977   2.661   2.481   5.657  0.0548  1.4971 -0.3547
14496TIP3   OH264978   1.674   0.525   3.475 -0.0853 -0.2160 -0.6553
14496TIP3    H164979   1.649   0.437   3.503 -0.8404  0.6031  1.3942
14496TIP3    H264980   1.645   0.582   3.545  0.8715  1.6398 -1.6909
14497TIP3   OH264981   6.483   5.777   5.481 -0.2645 -0.9317 -0.2295
14497TIP3    H164982   6.491   5.851   5.542  0.2415  0.1200 -1.5123
14497TIP3    H264983   6.573   5.753   5.461 -0.4090 -0.8632 -1.0030
14498TIP3   OH264984   6.704   3.696  10.782  0.1015  0.2311  0.2464
14498TIP3    H164985   6.610   3.683  10.774  0.0227  0.6706  0.4274
14498TIP3    H264986   6.740   3.608  10.792 -0.3529  0.1112  0.8455
14499TIP3   OH264987   3.052   3.599   5.704  0.4371 -0.0617 -0.6629
14499TIP3    H164988   3.127   3.646   5.741  1.2564 -1.0669 -0.9932
14499TIP3    H264989   3.029   3.535   5.771 -0.4746  0.5906 -0.3431
14500TIP3   OH264990   3.487   1.694   1.148  0.5048  0.3033 -0.2114
14500TIP3    H164991   3.423   1.675   1.216 -0.6637  0.9670 -1.0868
14500TIP3    H264992   3.570   1.703   1.194  0.2354 -1.8184  0.8107
14501TIP3   OH264993   3.975   3.816  12.734 -0.2607 -0.3418  0.0307
14501TIP3    H164994   4.036   3.784  12.801  1.9899  2.0495 -0.6869
14501TIP3    H264995   3.928   3.888  12.776 -0.5546 -0.3630 -0.2554
14502TIP3   OH264996   0.863   2.002   2.764  0.0071 -0.0733 -0.4271
14502TIP3    H164997   0.816   1.945   2.703  2.0980 -2.3235 -0.1230
14502TIP3    H264998   0.949   2.014   2.724  0.8196 -0.1288  1.2248
14503TIP3   OH264999   0.245   2.758   2.093  0.3042 -0.5204 -0.0197
14503TIP3    H165000   0.199   2.674   2.093 -0.2484 -0.2432  1.5054
14503TIP3    H265001   0.238   2.790   2.183  2.5366  0.0706  0.0049
14504TIP3   OH265002   2.827   6.161  12.916 -0.4391 -0.2314 -0.0820
14504TIP3    H165003   2.916   6.126  12.912 -0.7420 -1.1571  0.8815
14504TIP3    H265004   2.779   6.113  12.848 -0.2181  0.2689 -0.6018
14505TIP3   OH265005   3.860   3.766  12.369 -0.2913  0.3605  0.1904
14505TIP3    H165006   3.788   3.807  12.416 -0.5127 -1.6309  1.7101
14505TIP3    H265007   3.827   3.680  12.342  1.2767 -0.3434  0.3499
14506TIP3   OH265008   4.037   1.992  13.966 -0.7861 -0.3673 -0.0863
14506TIP3    H165009   4.051   2.021  13.876 -1.2990  1.1372  0.2879
14506TIP3    H265010   4.100   2.043  14.018  0.0283 -1.7573  0.3542
14507TIP3   OH265011   3.393   5.190  13.370  0.5398  0.3195  0.1655
14507TIP3    H165012   3.475   5.235  13.350  0.5479  0.3374  0.2401
14507TIP3    H265013   3.417   5.125  13.437  0.2414  1.2162  1.1718
14508TIP3   OH265014   4.273   3.872   3.976 -0.0060 -0.8676  0.0749
14508TIP3    H165015   4.222   3.805   3.932  0.3809 -0.1740 -1.5035
14508TIP3    H265016   4.216   3.949   3.977  0.5312 -0.4403 -0.6282
14509TIP3   OH265017   1.000   3.542  15.441  0.2698 -0.2179 -0.1846
14509TIP3    H165018   0.944   3.577  15.372 -0.5528 -0.5110  0.3183
14509TIP3    H265019   0.973   3.451  15.450  1.1215 -0.4805 -0.2163
14510TIP3   OH265020   6.512   3.225  15.406 -0.0943  0.4287 -0.2548
14510TIP3    H165021   6.533   3.131  15.409  1.8097  0.8172  0.4789
14510TIP3    H265022   6.572   3.261  15.341 -0.6028  1.1936 -0.3175
14511TIP3   OH265023   5.220   4.406   6.069 -0.2046 -0.6005  0.1389
14511TIP3    H165024   5.201   4.415   6.162 -2.8701  1.6301 -0.4847
14511TIP3    H265025   5.314   4.424   6.062  0.0140 -0.6091  2.3402
14512TIP3   OH265026   2.734   1.379   0.090 -0.1809 -1.4674  0.1683
14512TIP3    H165027   2.763   1.449   0.031  0.6994  1.9837  4.1983
14512TIP3    H265028   2.797   1.308   0.077  1.8583  0.4086 -0.8721
14513TIP3   OH265029   6.498   6.019  15.388 -0.4437  0.3894  0.3695
14513TIP3    H165030   6.505   6.054  15.300 -0.9720  0.5466  0.3859
14513TIP3    H265031   6.554   6.076  15.441 -0.3899  0.5026  0.1921
14514TIP3   OH265032   0.020   4.629   5.433 -0.2343  0.3682 -0.0185
14514TIP3    H165033  -0.033   4.549   5.431  0.5038 -0.1127 -1.7293
14514TIP3    H265034  -0.044   4.699   5.437 -0.9168 -0.2819  0.7872
14515TIP3   OH265035   0.198   3.792  13.063  0.2661  0.3020  0.0266
14515TIP3    H165036   0.244   3.709  13.068  0.6264  0.5512  1.4326
14515TIP3    H265037   0.106   3.768  13.052  0.4585 -0.2566 -0.3812
14516TIP3   OH265038   3.303   2.220  16.948 -0.4033 -0.3370  0.2528
14516TIP3    H165039   3.263   2.155  16.890 -1.3378  0.2248  0.2435
14516TIP3    H265040   3.254   2.213  17.030 -0.2328  0.0541  0.3914
14517TIP3   OH265041   2.279   5.087   4.995 -0.7383 -0.7807 -0.0364
14517TIP3    H165042   2.189   5.105   5.021 -0.2521 -1.1875  2.0886
14517TIP3    H265043   2.283   5.115   4.903 -2.6379  0.5204  0.2127
14518TIP3   OH265044   4.019   3.914   1.798  0.0512  0.0156 -0.5976
14518TIP3    H165045   4.051   3.935   1.711  0.9934 -0.8787 -0.4771
14518TIP3    H265046   4.097   3.912   1.853 -0.3326 -1.0917 -0.0702
14519TIP3   OH265047   5.741   0.901   4.750  0.5796 -0.1084 -0.2559
14519TIP3    H165048   5.833   0.878   4.764 -0.0657 -2.3175  0.6472
14519TIP3    H265049   5.714   0.848   4.675 -0.0162  0.4184 -0.4168
14520TIP3   OH265050   3.970   1.492  12.888  0.5782 -0.1370  0.4292
14520TIP3    H165051   4.030   1.445  12.830  1.3109 -0.0013  1.0489
14520TIP3    H265052   3.900   1.523  12.831  1.2468 -0.0612 -0.3712
14521TIP3   OH265053   3.098   2.286   4.497 -0.1442  0.3223  0.6133
14521TIP3    H165054   3.187   2.261   4.521 -1.4015 -4.0814  1.4577
14521TIP3    H265055   3.042   2.238   4.558 -3.2052  1.9256 -0.6913
14522TIP3   OH265056   1.637   0.645   0.624  0.6564 -0.1610 -0.0599
14522TIP3    H165057   1.659   0.557   0.652  2.8033  0.5483  0.6775
14522TIP3    H265058   1.675   0.702   0.691 -0.5803  1.3422 -0.5764
14523TIP3   OH265059   4.115   2.827   5.018 -0.1648  0.4905 -0.0796
14523TIP3    H165060   4.068   2.744   5.025  0.4574  0.0479 -0.9500
14523TIP3    H265061   4.185   2.810   4.955  0.4983  1.4375  0.3688
14524TIP3   OH265062   3.373   5.678   3.492  0.0841  0.3351 -0.6525
14524TIP3    H165063   3.406   5.633   3.414 -1.5068 -1.2631 -0.4509
14524TIP3    H265064   3.445   5.735   3.518  0.3152  1.6699 -3.8321
14525TIP3   OH265065   6.773   4.923  11.348 -0.1551  0.2896 -0.3519
14525TIP3    H165066   6.860   4.890  11.371 -0.2053  0.1302 -0.3872
14525TIP3    H265067   6.734   4.853  11.296 -1.4840 -1.0366  2.2174
14526TIP3   OH265068   6.193   6.134   0.510  0.5356 -0.6857 -0.5967
14526TIP3    H165069   6.189   6.042   0.483  0.7689 -0.8827  0.0216
14526TIP3    H265070   6.149   6.182   0.440 -0.1624 -1.3420 -0.6155
14527TIP3   OH265071   3.783   5.355  14.694  0.3931 -0.3974  0.2642
14527TIP3    H165072   3.738   5.318  14.770 -0.6630 -0.5234 -0.3943
14527TIP3    H265073   3.783   5.285  14.629 -0.6383  0.3476 -0.6016
14528TIP3   OH265074   4.869   2.547   5.898 -0.2170  0.2925 -0.1755
14528TIP3    H165075   4.885   2.596   5.979 -0.2792 -0.0505  0.0424
14528TIP3    H265076   4.861   2.615   5.831  0.3500  0.5562  0.0185
14529TIP3   OH265077   3.760   4.333  17.002  0.0362 -0.7304  0.4936
14529TIP3    H165078   3.844   4.318  16.959 -0.9037 -1.3194 -1.2167
14529TIP3    H265079   3.759   4.271  17.075  0.3183 -2.0672 -0.6011
14530TIP3   OH265080   6.541   5.788   4.085 -0.1979  0.0208  0.0164
14530TIP3    H165081   6.605   5.843   4.041 -1.1858  1.8156  0.7074
14530TIP3    H265082   6.476   5.769   4.017 -0.3986  0.6404  0.0217
14531TIP3   OH265083   4.422   4.319  12.425  0.0671  0.5280 -0.0045
14531TIP3    H165084   4.343   4.364  12.455 -0.4388 -0.0264 -0.4656
14531TIP3    H265085   4.399   4.226  12.430  0.3989  0.3908 -0.9286
14532TIP3   OH265086   1.060   1.081   2.739  0.4081 -1.1660  0.2127
14532TIP3    H165087   0.976   1.094   2.784 -0.0100  1.5442 -1.1345
14532TIP3    H265088   1.125   1.080   2.809 -0.5004 -0.2982  1.1035
14533TIP3   OH265089   2.378   1.216  16.673 -0.0042 -0.1838  0.3252
14533TIP3    H165090   2.358   1.273  16.747 -1.3523 -0.1688 -0.0252
14533TIP3    H265091   2.352   1.129  16.703  3.3011 -0.9569  1.3711
14534TIP3   OH265092   2.141   5.931   0.266  0.3020  0.0782 -0.5059
14534TIP3    H165093   2.076   6.000   0.253  1.5662  1.3281 -0.4456
14534TIP3    H265094   2.185   5.923   0.181 -0.1950 -1.0577 -0.6680
14535TIP3   OH265095   0.014   4.967   3.910  0.0818 -0.0649  0.0185
14535TIP3    H165096   0.096   4.950   3.956  0.0457 -2.6110 -0.7251
14535TIP3    H265097  -0.054   4.957   3.976  0.2982  3.0169  0.8742
14536TIP3   OH265098   0.443   6.160  12.644 -0.0374  0.6899  0.8094
14536TIP3    H165099   0.510   6.094  12.624  1.6767  2.5322  0.1400
14536TIP3    H265100   0.411   6.188  12.558  1.2618  2.6383  0.9040
14537TIP3   OH265101   0.578   1.672   0.845 -0.2943 -0.0833 -0.1106
14537TIP3    H165102   0.576   1.700   0.754  1.5499  1.0759  0.1622
14537TIP3    H265103   0.579   1.754   0.895  0.6378 -0.6695  0.8753
14538TIP3   OH265104   3.784   0.657   5.633  0.0837 -0.2495  0.1665
14538TIP3    H165105   3.800   0.629   5.723  0.1719  1.2911  0.6479
14538TIP3    H265106   3.872   0.677   5.599  0.3125 -2.8149 -0.9949
14539TIP3   OH265107   6.799   2.839   4.212  0.1279 -0.0564 -0.3120
14539TIP3    H165108   6.852   2.767   4.176  0.1828  0.6072 -1.6224
14539TIP3    H265109   6.721   2.841   4.157  0.3259  1.1523 -0.5710
14540TIP3   OH265110   4.628   3.308  15.221 -0.7734 -0.4803 -0.2062
14540TIP3    H165111   4.699   3.372  15.221 -2.3603  1.4615 -2.3001
14540TIP3    H265112   4.579   3.327  15.301 -0.2455 -0.2671  0.0721
14541TIP3   OH265113   4.845   0.428  11.739  0.1222 -0.0438 -0.4614
14541TIP3    H165114   4.882   0.352  11.785 -0.1033 -0.5087 -1.0369
14541TIP3    H265115   4.780   0.463  11.799 -0.9877 -1.3308 -0.8542
14542TIP3   OH265116   2.229   3.944  13.334 -0.0171 -0.2548  0.2935
14542TIP3    H165117   2.144   3.977  13.308 -0.5337  0.3097  2.4385
14542TIP3    H265118   2.239   3.861  13.287 -1.1963  0.2515 -0.8997
14543TIP3   OH265119   5.680   3.253   0.799 -0.1177 -0.5069  0.0401
14543TIP3    H165120   5.602   3.200   0.788  0.1171 -0.8184 -0.1538
14543TIP3    H265121   5.724   3.250   0.714 -0.7381  1.0414 -0.3750
14544TIP3   OH265122   0.108   2.980  11.724  0.2977  0.0949 -0.9363
14544TIP3    H165123   0.177   2.922  11.756 -0.9494 -1.2556 -0.5885
14544TIP3    H265124   0.052   2.996  11.801 -0.9650 -0.5954 -1.6871
14545TIP3   OH265125   5.983   6.764  13.930  0.1870 -0.0905 -0.5827
14545TIP3    H165126   5.932   6.704  13.876  1.6651 -0.4007 -1.6969
14545TIP3    H265127   6.036   6.706  13.985  2.2322  0.0976 -2.2379
14546TIP3   OH265128   5.868   1.847  10.473 -0.3131  0.1383  0.0840
14546TIP3    H165129   5.776   1.840  10.500  0.0843  1.4178  1.9391
14546TIP3    H265130   5.864   1.892  10.389 -1.3478  1.5482  0.8463
14547TIP3   OH265131   6.115   3.561  16.472  0.4500  0.1411 -0.4367
14547TIP3    H165132   6.135   3.637  16.528 -0.2020  0.8751 -1.1850
14547TIP3    H265133   6.193   3.505  16.480  0.7670  0.6769  0.4499
14548TIP3   OH265134   4.491   4.573   1.364 -0.0358 -0.4314  0.0477
14548TIP3    H165135   4.465   4.635   1.433  2.5868 -0.2900  1.0086
14548TIP3    H265136   4.470   4.487   1.401  1.8713 -0.3950  1.3550
14549TIP3   OH265137   5.770   5.373  17.212 -0.0379  0.4420  0.4404
14549TIP3    H165138   5.725   5.328  17.284  1.0456  2.1037  2.2624
14549TIP3    H265139   5.840   5.422  17.255  0.6299  1.5455 -1.7742
14550TIP3   OH265140   6.074   2.018   3.204  0.2023  0.8103 -0.2382
14550TIP3    H165141   6.168   2.003   3.190 -0.1523  0.4176 -2.4970
14550TIP3    H265142   6.031   1.954   3.148 -1.4180  1.9786 -0.3952
14551TIP3   OH265143   1.387   0.161  14.124  0.1344 -0.0162 -0.7019
14551TIP3    H165144   1.475   0.139  14.151  0.3233  0.6116 -0.7876
14551TIP3    H265145   1.385   0.140  14.030 -0.6383 -2.5551 -0.1904
14552TIP3   OH265146   5.000   1.017  11.428  0.0297 -0.0220 -0.7019
14552TIP3    H165147   4.918   0.989  11.468 -0.7725  1.4206 -1.3026
14552TIP3    H265148   5.023   1.098  11.473  1.4823 -0.7281 -0.0944
14553TIP3   OH265149   3.527   3.309  10.823 -0.2399 -0.6095 -0.0664
14553TIP3    H165150   3.517   3.274  10.912  1.4922 -0.9618  0.0368
14553TIP3    H265151   3.517   3.403  10.832  0.1119 -0.6260  0.5583
14554TIP3   OH265152   2.249   3.519   5.305  0.8660  0.4566 -0.6605
14554TIP3    H165153   2.280   3.491   5.391 -0.2419  0.9874 -0.0633
14554TIP3    H265154   2.223   3.438   5.261 -3.8231  0.3362  1.6252
14555TIP3   OH265155   2.310   2.652  15.677 -0.1250  0.1671  0.0878
14555TIP3    H165156   2.377   2.586  15.661  0.0949  0.4687 -0.2549
14555TIP3    H265157   2.359   2.734  15.687 -0.1764 -0.0508  2.8982
14556TIP3   OH265158   4.559   3.293   1.079 -0.1645  0.2733 -0.3806
14556TIP3    H165159   4.637   3.269   1.030 -0.0389 -1.4548  0.5538
14556TIP3    H265160   4.568   3.246   1.162 -2.8308 -1.1528 -0.7678
14557TIP3   OH265161   6.306   2.819   1.689 -0.7155 -0.0036  0.5186
14557TIP3    H165162   6.306   2.914   1.683 -2.0394 -0.0817 -1.7682
14557TIP3    H265163   6.256   2.790   1.613  1.7074 -2.6400 -0.2100
14558TIP3   OH265164   3.701   3.610  14.307 -0.0686  0.1262  0.2337
14558TIP3    H165165   3.739   3.533  14.349  0.4667 -1.1507 -2.3978
14558TIP3    H265166   3.607   3.593  14.307 -0.0771  0.1472  0.8844
14559TIP3   OH265167   6.247   5.913   0.104 -0.2053 -0.7853  1.2155
14559TIP3    H165168   6.260   5.988   0.046  0.0003 -0.1646  2.0477
14559TIP3    H265169   6.242   5.838   0.044 -1.7958  0.0225  0.2727
14560TIP3   OH265170   3.406   4.343  15.652 -0.0286  0.3517 -0.2578
14560TIP3    H165171   3.342   4.272  15.657 -0.2010  0.3893 -1.5640
14560TIP3    H265172   3.491   4.299  15.650 -0.1219  0.1978 -0.7917
14561TIP3   OH265173   0.729   1.051   5.431 -0.6263 -0.1489  0.4418
14561TIP3    H165174   0.718   1.119   5.497 -2.2919  0.0203  0.0248
14561TIP3    H265175   0.761   1.098   5.353  0.6067 -0.2389  0.8698
14562TIP3   OH265176   4.720   4.306   5.943  0.1789  0.3707  0.2225
14562TIP3    H165177   4.728   4.300   5.848 -0.8748 -0.1484  0.1554
14562TIP3    H265178   4.802   4.271   5.976  0.2469 -0.1525 -0.4849
14563TIP3   OH265179   5.758   1.427  12.296 -0.1204  0.0578 -0.2485
14563TIP3    H165180   5.732   1.445  12.206 -2.6394 -2.5565 -0.2125
14563TIP3    H265181   5.827   1.490  12.315 -0.7429  1.8731 -3.3825
14564TIP3   OH265182   4.268   4.947  16.707 -0.2605  0.0464  0.4960
14564TIP3    H165183   4.276   5.002  16.630 -0.9344 -2.1599 -1.2412
14564TIP3    H265184   4.239   5.006  16.776  0.6679  2.1453 -0.8329
14565TIP3   OH265185   4.460   4.545   1.663  0.1969 -0.5685  0.1769
14565TIP3    H165186   4.553   4.544   1.686 -0.2982 -1.2565  2.4363
14565TIP3    H265187   4.446   4.463   1.616  1.0886  0.4965 -2.0948
14566TIP3   OH265188   4.118   4.043  16.254  0.3194  0.8621  0.2009
14566TIP3    H165189   4.090   3.969  16.308  0.4904  2.0749  2.0459
14566TIP3    H265190   4.203   4.016  16.220 -0.8412 -0.8917 -1.4955
14567TIP3   OH265191   4.074   4.122  13.963 -0.1518 -0.1153  0.4353
14567TIP3    H165192   4.025   4.040  13.969 -0.7777  0.3202  1.3750
14567TIP3    H265193   4.022   4.186  14.012  0.0593  0.9866 -0.7002
14568TIP3   OH265194   6.392   0.080  14.485 -0.5434  0.2594 -0.2496
14568TIP3    H165195   6.416   0.074  14.577 -3.7718 -1.1768  0.6256
14568TIP3    H265196   6.322   0.145  14.482 -1.1598 -0.4222 -1.5124
14569TIP3   OH265197   6.692   2.671   2.373 -0.2822  0.0974 -0.6377
14569TIP3    H165198   6.717   2.591   2.418  0.3055 -0.1573 -1.3829
14569TIP3    H265199   6.704   2.740   2.437 -0.7394 -0.3974 -0.0037
14570TIP3   OH265200   5.842   4.543  12.294  0.5760 -0.1857 -0.0109
14570TIP3    H165201   5.752   4.559  12.324 -0.1665  0.6116 -2.4383
14570TIP3    H265202   5.853   4.449  12.303 -0.7455 -0.3901 -0.2249
14571TIP3   OH265203   5.997   4.278  13.678 -0.2090  0.4571 -0.1093
14571TIP3    H165204   6.025   4.248  13.764 -0.8209  3.6477  1.3804
14571TIP3    H265205   5.905   4.253  13.673 -1.5196  3.9505  2.3066
14572TIP3   OH265206   3.551   3.251   3.806  0.1128 -1.0073 -0.2005
14572TIP3    H165207   3.480   3.264   3.743  0.8659 -0.7649 -1.0352
14572TIP3    H265208   3.528   3.306   3.881 -0.8522 -1.3750 -0.2097
14573TIP3   OH265209   1.110   1.520   1.343  0.1868 -0.3280  0.2399
14573TIP3    H165210   1.055   1.461   1.395 -0.2286  0.2211  0.4293
14573TIP3    H265211   1.184   1.540   1.401 -0.8088  1.1437  1.0756
14574TIP3   OH265212   2.497   0.445   6.447 -0.3336 -0.2029 -0.3911
14574TIP3    H165213   2.409   0.427   6.413  0.3715 -2.1811 -1.3164
14574TIP3    H265214   2.555   0.392   6.393  1.2550 -0.4582  1.4525
14575TIP3   OH265215   5.688   0.432  14.656  0.3191  0.3831  0.3908
14575TIP3    H165216   5.639   0.430  14.738 -0.4977 -0.9042 -0.1092
14575TIP3    H265217   5.632   0.479  14.595  0.2110 -0.0661  0.1391
14576TIP3   OH265218   2.068   3.575  13.614  0.2188 -0.1281 -0.1937
14576TIP3    H165219   2.002   3.618  13.559  0.4025  0.5099  0.0759
14576TIP3    H265220   2.068   3.484  13.585  0.0713  0.1290 -1.0203
14577TIP3   OH265221   1.900   6.622   4.895  0.2719  0.2814  0.0348
14577TIP3    H165222   1.944   6.691   4.945 -1.5711  2.2341 -0.8660
14577TIP3    H265223   1.832   6.668   4.846 -2.4144 -2.3963  0.9099
14578TIP3   OH265224   3.978   2.156  17.182 -0.1216 -0.1676 -0.1704
14578TIP3    H165225   4.051   2.118  17.135  0.2267 -0.5876  0.6848
14578TIP3    H265226   3.904   2.099  17.162 -0.2389  0.2944 -1.0865
14579TIP3   OH265227   2.691   3.742   2.532 -0.1581  0.3345 -0.5985
14579TIP3    H165228   2.746   3.794   2.474  0.0757  0.2359 -0.4658
14579TIP3    H265229   2.695   3.787   2.617  1.8903 -1.1235  0.1516
14580TIP3   OH265230   1.311   1.055  15.615 -0.1420  0.5423 -0.4796
14580TIP3    H165231   1.386   1.022  15.565  0.8624 -0.4188  1.5315
14580TIP3    H265232   1.254   0.979  15.624 -0.1202  0.5886  0.1177
14581TIP3   OH265233   4.961   0.963   6.166  0.0730 -0.2120  0.1729
14581TIP3    H165234   4.978   1.036   6.226 -0.2061 -1.1312  1.4118
14581TIP3    H265235   5.042   0.952   6.118 -0.5231  2.2830 -1.6235
14582TIP3   OH265236   1.978   4.407   5.462  0.0043  0.3491 -0.0451
14582TIP3    H165237   2.049   4.455   5.419  0.1841  0.9794  0.9238
14582TIP3    H265238   2.023   4.343   5.517 -0.2150 -0.1128 -0.3961
14583TIP3   OH265239   3.093   6.312  13.814  0.0548 -0.3241 -0.1545
14583TIP3    H165240   3.139   6.280  13.736 -1.2780  0.0545 -1.1366
14583TIP3    H265241   3.127   6.401  13.827  0.6914 -0.5936  0.0452
14584TIP3   OH265242   4.427   1.761   0.040  0.7317  0.2123 -1.0737
14584TIP3    H165243   4.521   1.757   0.025  0.7911 -0.9064 -0.5045
14584TIP3    H265244   4.388   1.751  -0.047  1.1284  2.9902 -1.6462
14585TIP3   OH265245   2.178   1.891  12.638 -0.8617 -0.3089 -0.1236
14585TIP3    H165246   2.180   1.980  12.603  1.2356 -0.2847 -0.0849
14585TIP3    H265247   2.192   1.902  12.732 -0.8491 -0.6710 -0.0834
14586TIP3   OH265248   0.107   0.422  15.318 -0.2020  0.3637 -0.0090
14586TIP3    H165249   0.054   0.491  15.358  0.1488  1.9905 -2.1778
14586TIP3    H265250   0.086   0.426  15.225  0.5714 -1.8493 -0.3332
14587TIP3   OH265251   6.359   4.353   5.877 -0.2680  0.1683  0.1993
14587TIP3    H165252   6.348   4.374   5.969 -2.5311 -0.0431  0.0342
14587TIP3    H265253   6.334   4.260   5.870  2.7027 -0.7129 -0.2192
14588TIP3   OH265254   4.523   4.993  10.652 -0.8149 -0.5686  0.7209
14588TIP3    H165255   4.494   4.905  10.678  0.8744 -1.6907 -0.9401
14588TIP3    H265256   4.619   4.989  10.655 -0.6168  0.4125 -1.6916
14589TIP3   OH265257   0.703   2.228  14.580  0.2417 -0.4704 -0.0721
14589TIP3    H165258   0.741   2.186  14.503 -0.7350  0.0140 -0.8451
14589TIP3    H265259   0.763   2.206  14.651  0.5272 -1.9319 -0.7272
14590TIP3   OH265260   1.284   3.480   2.030 -0.1355  0.1052 -0.3866
14590TIP3    H165261   1.339   3.466   1.954  2.3677 -0.6933  1.4529
14590TIP3    H265262   1.312   3.564   2.066  1.2126 -1.0867  1.5327
14591TIP3   OH265263   6.782   1.300  15.366  0.7550 -0.2781 -0.3907
14591TIP3    H165264   6.801   1.233  15.301  0.4394 -0.5012 -0.2548
14591TIP3    H265265   6.780   1.382  15.317  0.6073 -0.4347 -0.6459
14592TIP3   OH265266   0.967   5.644  11.709 -0.2994  0.1568 -0.6354
14592TIP3    H165267   1.049   5.672  11.669 -1.4819  1.3940 -2.3580
14592TIP3    H265268   0.937   5.571  11.655 -1.1344  0.8168 -1.1010
14593TIP3   OH265269   3.721   1.001   0.631  0.4551 -0.4099  0.6523
14593TIP3    H165270   3.689   1.086   0.661 -0.7526 -0.3738 -0.6257
14593TIP3    H265271   3.653   0.939   0.660  0.3085 -0.6435 -0.1768
14594TIP3   OH265272   1.642   5.923  16.941  0.4791  0.0032  0.1765
14594TIP3    H165273   1.677   5.942  17.029  0.0052 -3.8364  1.3822
14594TIP3    H265274   1.717   5.890  16.892 -0.0288 -1.9826  0.6400
14595TIP3   OH265275   3.158   1.181   1.726  0.2960 -0.0510  0.7343
14595TIP3    H165276   3.127   1.271   1.724  0.5882  0.0559  1.0070
14595TIP3    H265277   3.227   1.180   1.791  0.7144 -0.3384  0.2963
14596TIP3   OH265278   4.715   5.945   0.026 -0.0192  0.0374  0.1010
14596TIP3    H165279   4.708   5.998  -0.054 -0.5886  1.9429  1.3551
14596TIP3    H265280   4.752   6.004   0.091  0.6602 -1.5491  1.2262
14597TIP3   OH265281   2.407   4.769   4.556 -0.2193  0.3618 -0.2739
14597TIP3    H165282   2.418   4.824   4.478 -1.2862 -1.6596 -1.9700
14597TIP3    H265283   2.314   4.775   4.577 -0.5007 -1.2633 -0.9255
14598TIP3   OH265284   4.765   5.396   3.819  0.1164  1.2206  0.0672
14598TIP3    H165285   4.732   5.379   3.731  2.9481  0.8020 -0.9941
14598TIP3    H265286   4.850   5.437   3.806  0.8369  0.7395  2.6211
14599TIP3   OH265287   3.784   0.330   2.650 -0.6612  0.3893 -1.0020
14599TIP3    H165288   3.720   0.374   2.595 -2.8430 -2.0836 -0.6242
14599TIP3    H265289   3.748   0.335   2.738 -0.6275 -1.4534 -0.8490
14600TIP3   OH265290   3.112   3.587   4.237 -0.0577 -0.1907 -0.4193
14600TIP3    H165291   3.156   3.577   4.321  3.2600 -2.6620 -2.2268
14600TIP3    H265292   3.172   3.639   4.184 -1.8621  0.9276 -1.4762
14601TIP3   OH265293   5.225   0.690  16.383 -0.5351 -0.2666 -0.2400
14601TIP3    H165294   5.208   0.690  16.477 -0.0700 -0.1977 -0.1505
14601TIP3    H265295   5.143   0.661  16.343 -0.7464 -0.2559  0.1847
14602TIP3   OH265296   5.991   6.707  15.851 -0.1387 -0.2723 -0.3384
14602TIP3    H165297   5.954   6.791  15.826  3.0146  1.5282  0.5292
14602TIP3    H265298   5.954   6.689  15.938 -0.1824  0.6757 -0.1518
14603TIP3   OH265299   5.328   1.626   3.321 -0.2119 -0.4634  0.2513
14603TIP3    H165300   5.344   1.680   3.399 -2.3823  1.9585 -0.8111
14603TIP3    H265301   5.253   1.572   3.344  0.0146 -0.7645  0.2867
14604TIP3   OH265302   2.264   0.273  11.139  0.5727 -0.1138 -0.1509
14604TIP3    H165303   2.268   0.186  11.179 -0.4956 -1.1834 -2.2132
14604TIP3    H265304   2.195   0.318  11.187 -0.1395 -1.0770 -0.2436
14605TIP3   OH265305   5.544   5.670   0.742 -0.5936 -0.2526  0.1705
14605TIP3    H165306   5.467   5.703   0.789  1.0558  1.0940  2.0597
14605TIP3    H265307   5.596   5.747   0.724  0.6805 -1.2236 -0.4158
14606TIP3   OH265308   2.499   1.596   4.266  0.7135  0.4839 -0.0338
14606TIP3    H165309   2.592   1.607   4.287  0.6627  0.7613  0.0515
14606TIP3    H265310   2.494   1.510   4.224  1.2026  0.9532 -1.1040
14607TIP3   OH265311   0.005   4.681   1.808 -0.0186  0.4801 -0.4387
14607TIP3    H165312   0.007   4.646   1.719  0.7105  0.0906 -0.2775
14607TIP3    H265313  -0.052   4.757   1.803 -1.2124 -0.4195 -0.9135
14608TIP3   OH265314   6.290   5.932  15.942 -0.0763  0.6342 -0.2483
14608TIP3    H165315   6.369   5.901  15.897  1.1104  1.0903  1.4137
14608TIP3    H265316   6.295   6.027  15.935  0.1534  0.7103  0.8575
14609TIP3   OH265317   0.175   5.904  11.087 -0.2094  0.1003  0.0102
14609TIP3    H165318   0.233   5.844  11.040 -1.5218 -1.2250  0.0165
14609TIP3    H265319   0.122   5.945  11.019 -0.1673  0.3082  0.1036
14610TIP3   OH265320   1.081   5.229  15.350 -0.3318 -0.1905 -0.1806
14610TIP3    H165321   1.083   5.157  15.287 -0.8112 -0.2234 -0.1653
14610TIP3    H265322   1.147   5.291  15.318 -0.3745 -0.3376 -0.5578
14611TIP3   OH265323   0.312   1.934   0.556  0.0649 -0.7020  0.1969
14611TIP3    H165324   0.316   2.028   0.536 -0.4971 -0.6652  0.2668
14611TIP3    H265325   0.294   1.892   0.472 -1.1674 -0.6314  0.4126
14612TIP3   OH265326   1.213   4.293  16.050 -0.3259 -0.0069 -0.1404
14612TIP3    H165327   1.282   4.255  15.996 -0.1239 -0.3420  0.3460
14612TIP3    H265328   1.222   4.249  16.135 -0.3143  0.8672  0.3270
14613TIP3   OH265329   1.632   1.392   6.872 -0.0559  0.4291 -0.0282
14613TIP3    H165330   1.651   1.474   6.919  0.2675 -0.3585  1.2662
14613TIP3    H265331   1.684   1.398   6.792 -1.0838  2.0772 -0.6195
14614TIP3   OH265332   6.395   4.438  14.073  0.1511  0.2727 -0.4655
14614TIP3    H165333   6.431   4.526  14.072  1.2276 -0.1126  1.0958
14614TIP3    H265334   6.329   4.440  14.142  0.4112 -0.2332 -0.2011
14615TIP3   OH265335   1.016   6.045  15.169 -0.5537 -0.9843  0.3699
14615TIP3    H165336   1.102   6.026  15.208 -0.1141  0.9619  0.4403
14615TIP3    H265337   0.961   6.068  15.244  0.4440  3.3377  0.0067
14616TIP3   OH265338   5.459   6.277   1.056  0.1969  0.3164  0.4350
14616TIP3    H165339   5.497   6.214   1.117 -0.1534  0.4621  0.8032
14616TIP3    H265340   5.517   6.352   1.058  0.1049  0.3785  0.6953
14617TIP3   OH265341   1.792   6.696  14.798  0.5603 -0.3825  0.1965
14617TIP3    H165342   1.831   6.782  14.811 -1.0209  0.6201 -1.2294
14617TIP3    H265343   1.702   6.714  14.772  0.5271 -2.4339 -1.3894
14618TIP3   OH265344   6.368   1.227   0.054 -0.3206  0.4479 -0.2158
14618TIP3    H165345   6.336   1.303   0.103 -0.7266  1.0883 -1.4415
14618TIP3    H265346   6.290   1.173   0.041  0.4209 -1.8060  3.2824
14619TIP3   OH265347   4.962   2.649   6.131  0.2981 -0.1278  0.2465
14619TIP3    H165348   4.878   2.695   6.131 -0.7919 -2.0253  0.5264
14619TIP3    H265349   4.997   2.665   6.219 -1.1956 -1.6849  1.1954
14620TIP3   OH265350   0.842   4.437  15.142 -0.4632 -0.2944 -0.1838
14620TIP3    H165351   0.797   4.380  15.080 -0.6306  1.0542 -1.3394
14620TIP3    H265352   0.922   4.388  15.165 -1.3653 -1.6852  0.1165
14621TIP3   OH265353   5.539   4.351  15.655  0.2951 -0.0494 -0.0308
14621TIP3    H165354   5.576   4.439  15.646  2.9486 -0.9885  0.6990
14621TIP3    H265355   5.450   4.366  15.687  1.4026  2.3690  2.3655
14622TIP3   OH265356   4.992   3.347  16.487  0.3300  0.3461  0.5569
14622TIP3    H165357   5.045   3.415  16.530 -0.5161  0.3253  1.6933
14622TIP3    H265358   4.925   3.325  16.552  0.4203 -1.3945  0.1036
14623TIP3   OH265359   5.549   0.465  11.180 -0.0100  0.6971  0.1818
14623TIP3    H165360   5.460   0.445  11.151  0.5011  0.0572 -1.0099
14623TIP3    H265361   5.561   0.558  11.158 -0.2882  0.7181  0.1129
14624TIP3   OH265362   0.344   1.311   2.603  0.5342 -0.3395  0.0383
14624TIP3    H165363   0.319   1.392   2.648 -1.5671 -1.3299  0.7458
14624TIP3    H265364   0.408   1.270   2.661  0.3500  0.0108  0.4952
14625TIP3   OH265365   5.282   0.704   3.274 -0.3774 -0.3097  0.3170
14625TIP3    H165366   5.304   0.794   3.295 -0.2710 -0.5167  1.1295
14625TIP3    H265367   5.200   0.688   3.321 -0.0017 -0.8679  0.7921
14626TIP3   OH265368   6.646   4.266  11.347  0.9917  0.0424  0.2823
14626TIP3    H165369   6.583   4.336  11.329  0.9036  0.4383  1.9393
14626TIP3    H265370   6.593   4.189  11.366  1.0520 -0.0423  0.1110
14627TIP3   OH265371   5.389   1.743  15.032 -0.0373 -0.2135 -0.2550
14627TIP3    H165372   5.428   1.664  14.995  0.8495  0.0392  0.1073
14627TIP3    H265373   5.294   1.727  15.029  0.1343 -1.3092 -0.1298
14628TIP3   OH265374   1.798   0.809  17.174  0.1130  0.5164  0.3583
14628TIP3    H165375   1.797   0.874  17.244 -0.7902 -0.0686  0.9026
14628TIP3    H265376   1.810   0.726  17.218 -1.7920 -0.0115 -0.0109
14629TIP3   OH265377   1.208   1.803   2.799 -0.3421  0.1209  0.0391
14629TIP3    H165378   1.180   1.748   2.726  1.6073 -0.2138 -0.5117
14629TIP3    H265379   1.157   1.771   2.874 -2.7070  0.7590 -1.1843
14630TIP3   OH265380   3.622   0.995  13.447 -0.1292  0.1255  0.3867
14630TIP3    H165381   3.559   0.953  13.389  0.6606 -0.7729  0.1591
14630TIP3    H265382   3.706   0.956  13.424  0.7334  2.1597 -0.1590
14631TIP3   OH265383   5.761   0.192   4.944 -0.3660  0.0088  0.0253
14631TIP3    H165384   5.801   0.196   4.857  2.1968 -1.3651  1.0261
14631TIP3    H265385   5.831   0.160   5.001 -1.7645  1.4260  2.7422
14632TIP3   OH265386   6.685   3.840  14.418  0.3080 -0.1793  0.3052
14632TIP3    H165387   6.649   3.882  14.496  0.9445 -0.6090  0.8409
14632TIP3    H265388   6.699   3.912  14.357 -4.1350 -0.2076 -1.1383
14633TIP3   OH265389   4.952   1.883  12.669 -0.4390  0.1644  0.1472
14633TIP3    H165390   4.880   1.821  12.664 -0.1064 -0.3087  0.9982
14633TIP3    H265391   4.916   1.956  12.720 -0.8047  0.6563 -0.7869
14634TIP3   OH265392   1.838   4.233  13.791  0.8587  0.1931 -0.4770
14634TIP3    H165393   1.893   4.307  13.813  1.6010 -0.5618  0.2979
14634TIP3    H265394   1.785   4.218  13.870  1.4250 -0.7031 -0.2480
14635TIP3   OH265395   4.446   5.834  14.362 -0.3750  0.3983  0.2383
14635TIP3    H165396   4.529   5.810  14.320 -0.8601 -0.7081 -0.1250
14635TIP3    H265397   4.405   5.896  14.301 -0.9124 -0.9215 -0.7929
14636TIP3   OH265398   4.588   3.197   2.872 -0.1002 -0.3653 -0.1405
14636TIP3    H165399   4.648   3.219   2.944  0.2864 -1.0871 -0.2297
14636TIP3    H265400   4.524   3.269   2.871  0.5718  0.2515  0.1670
14637TIP3   OH265401   2.028   0.748   4.406 -0.0873 -0.4009  0.6696
14637TIP3    H165402   2.071   0.795   4.478 -1.1830 -0.8529  1.6616
14637TIP3    H265403   2.079   0.770   4.328 -0.5902  2.5262  1.0600
14638TIP3   OH265404   5.840   4.792   3.688  0.0320  0.1573  0.1371
14638TIP3    H165405   5.819   4.701   3.667 -1.2442  0.1735  1.2332
14638TIP3    H265406   5.858   4.792   3.782 -0.2161  1.0709  0.1987
14639TIP3   OH265407   1.434   0.231   3.851  0.3712 -0.0360  0.3660
14639TIP3    H165408   1.475   0.148   3.828 -0.0463 -0.1868  0.1597
14639TIP3    H265409   1.469   0.252   3.937  1.4795  0.2306 -0.1378
14640TIP3   OH265410   5.309   0.724  17.043 -1.3330 -0.1690 -0.3533
14640TIP3    H165411   5.385   0.738  17.098 -1.0522 -0.8337 -0.5620
14640TIP3    H265412   5.250   0.670  17.097 -1.3124 -0.3215 -0.4828
14641TIP3   OH265413   0.458   5.111   5.815 -0.1357 -0.1903  0.4411
14641TIP3    H165414   0.378   5.162   5.830  0.4320  0.9101 -0.1434
14641TIP3    H265415   0.512   5.127   5.893  0.6154  1.2640 -0.3335
14642TIP3   OH265416   1.145   6.285   2.412 -0.5363 -0.3873 -0.0534
14642TIP3    H165417   1.122   6.205   2.366  0.1394  0.8052 -2.6238
14642TIP3    H265418   1.227   6.265   2.457 -0.8613 -1.3863  0.1076
14643TIP3   OH265419   5.246   4.656  17.009 -0.0202  0.1416 -0.0740
14643TIP3    H165420   5.191   4.665  17.086  1.1601  0.5591  0.7402
14643TIP3    H265421   5.203   4.587  16.957 -2.4711  1.8555 -0.5195
14644TIP3   OH265422   4.593   1.331   4.879 -0.8886 -0.0673 -0.1601
14644TIP3    H165423   4.637   1.332   4.964  0.1876 -1.0658 -0.6602
14644TIP3    H265424   4.500   1.324   4.899 -0.5863 -1.2870  0.9520
14645TIP3   OH265425   4.157   5.822   3.735  0.0554 -0.0865  0.4776
14645TIP3    H165426   4.176   5.900   3.682 -0.3415  0.1332  0.6530
14645TIP3    H265427   4.225   5.822   3.802  0.0529  0.1162  0.4825
14646TIP3   OH265428   1.153   1.946  13.906  0.5383 -0.0524  0.2155
14646TIP3    H165429   1.085   1.893  13.947  0.5364 -0.9108 -0.8399
14646TIP3    H265430   1.159   2.024  13.960 -1.9219  0.4715 -0.1611
14647TIP3   OH265431   6.313   3.662  16.706 -0.3474  0.4939 -0.1767
14647TIP3    H165432   6.324   3.575  16.666 -1.8018  0.2912 -0.1846
14647TIP3    H265433   6.400   3.682  16.742  1.0183  0.6395 -3.2532
14648TIP3   OH265434   0.861   2.855   3.193 -0.8750 -0.3095  0.2986
14648TIP3    H165435   0.851   2.807   3.111  1.4130 -1.1646  0.4415
14648TIP3    H265436   0.856   2.789   3.261  2.6373 -0.5784  0.4803
14649TIP3   OH265437   1.092   3.800   2.265 -0.1385 -0.2452  0.2439
14649TIP3    H165438   1.175   3.754   2.279 -0.4647 -0.8744  0.1414
14649TIP3    H265439   1.037   3.737   2.219  0.3499  1.1815 -2.5002
14650TIP3   OH265440   0.851   0.676  12.995 -0.3001  0.5339 -0.2595
14650TIP3    H165441   0.882   0.676  12.904 -0.1807  0.0777 -0.2215
14650TIP3    H265442   0.931   0.668  13.047 -0.3844  0.6180 -0.1165
14651TIP3   OH265443   0.737   6.568  13.209  0.5113  0.5926  0.3227
14651TIP3    H165444   0.655   6.558  13.160  1.2222  0.5252 -0.8801
14651TIP3    H265445   0.717   6.533  13.296 -0.4190 -0.4848 -0.2948
14652TIP3   OH265446   1.953   2.687  16.305  0.1243 -0.7929 -0.8449
14652TIP3    H165447   1.924   2.740  16.230  0.0659  0.3972 -0.0012
14652TIP3    H265448   2.025   2.737  16.344 -0.5718 -0.8345  0.5520
14653TIP3   OH265449   5.446   1.286  16.627  0.1783 -0.2830  0.5850
14653TIP3    H165450   5.489   1.264  16.544  0.6293 -1.7515  1.1718
14653TIP3    H265451   5.495   1.238  16.693 -1.4072 -0.7580  1.4795
14654TIP3   OH265452   4.961   6.300   4.272 -0.4500 -0.0706  0.0939
14654TIP3    H165453   4.865   6.302   4.273 -0.4516 -0.2343  0.2223
14654TIP3    H265454   4.986   6.286   4.363 -0.3791 -3.4152 -0.3092
14655TIP3   OH265455   0.438   6.205   0.657 -0.0340  0.1153  0.4488
14655TIP3    H165456   0.392   6.237   0.735 -1.9812 -0.3032 -0.4603
14655TIP3    H265457   0.453   6.112   0.675  0.2449  0.2006  0.6549
14656TIP3   OH265458   3.586   4.209  13.556 -0.2958  0.1016 -0.1268
14656TIP3    H165459   3.681   4.203  13.565 -0.2909  1.3263  0.8556
14656TIP3    H265460   3.568   4.173  13.469  0.9073 -1.3978  0.1964
14657TIP3   OH265461   3.455   4.488   4.293 -0.2423  0.0117  0.7547
14657TIP3    H165462   3.406   4.466   4.214  0.8167  0.0326  0.0643
14657TIP3    H265463   3.454   4.409   4.345  0.3575 -0.5093  0.0007
14658TIP3   OH265464   1.948   4.840  17.085 -0.5774 -0.2672 -0.0088
14658TIP3    H165465   1.930   4.782  17.158 -0.5813 -1.5162 -0.9696
14658TIP3    H265466   1.861   4.870  17.056 -0.6112 -0.2436  0.1158
14659TIP3   OH265467   2.849   0.789  17.109  0.2016  0.4114  0.1275
14659TIP3    H165468   2.903   0.844  17.166  0.1015  0.6185  0.0222
14659TIP3    H265469   2.834   0.709  17.161 -1.7114  1.4602  1.3208
14660TIP3   OH265470   6.571   4.563  12.475  0.1184  0.3011  0.7231
14660TIP3    H165471   6.485   4.574  12.434 -0.2638 -0.1654  1.3816
14660TIP3    H265472   6.561   4.487  12.531  1.0372  0.1027  0.6329
14661TIP3   OH265473   2.849   1.319   0.868  0.3660 -0.1074  0.3847
14661TIP3    H165474   2.847   1.251   0.800 -2.1696 -0.0366  0.2816
14661TIP3    H265475   2.910   1.286   0.934 -0.0487 -2.0340 -0.1409
14662TIP3   OH265476   5.686   1.842   7.072 -0.0233 -0.3801 -0.1243
14662TIP3    H165477   5.591   1.840   7.080 -0.2358  2.5887 -0.6982
14662TIP3    H265478   5.703   1.805   6.985 -0.7299 -0.3449 -0.2874
14663TIP3   OH265479   4.810   0.240   1.581  0.1244 -0.1519 -0.5706
14663TIP3    H165480   4.810   0.173   1.649  0.9332  0.7933  0.4014
14663TIP3    H265481   4.903   0.255   1.562  0.0243  1.4941  0.0738
14664TIP3   OH265482   1.276   5.206  15.957 -0.3038 -0.0312 -0.1571
14664TIP3    H165483   1.197   5.248  15.991  0.1006 -1.6435  3.1692
14664TIP3    H265484   1.247   5.121  15.927 -0.0359 -0.1426 -0.1027
14665TIP3   OH265485   6.433   1.887   3.476 -0.0025  0.1303  0.2765
14665TIP3    H165486   6.471   1.933   3.551 -2.4972  1.6250  0.7548
14665TIP3    H265487   6.346   1.860   3.507 -0.1172 -1.4783 -1.2968
14666TIP3   OH265488   2.799   3.589   0.414  0.0918  0.2157 -0.0935
14666TIP3    H165489   2.879   3.542   0.393 -0.1823  0.3498 -1.5866
14666TIP3    H265490   2.827   3.678   0.431  0.4578 -0.1545  1.3363
14667TIP3   OH265491   0.123   0.303   2.801 -0.2966 -0.3551  0.0357
14667TIP3    H165492   0.213   0.291   2.829 -0.2861 -0.0908  0.1130
14667TIP3    H265493   0.126   0.377   2.740 -0.2389 -1.2127 -1.0314
14668TIP3   OH265494   0.466   2.854  16.423 -0.7596 -0.5035 -0.1453
14668TIP3    H165495   0.524   2.851  16.499 -1.0932  1.1153  0.2055
14668TIP3    H265496   0.467   2.765  16.389  2.5624 -0.4345 -0.6178
14669TIP3   OH265497   0.557   5.013  13.372 -0.2561 -0.4883  0.0086
14669TIP3    H165498   0.508   5.036  13.293 -0.0397 -0.3136 -0.0771
14669TIP3    H265499   0.598   4.930  13.351  1.9804  0.7965 -1.0853
14670TIP3   OH265500   1.916   2.056  16.987 -0.1559 -0.4865 -0.1670
14670TIP3    H165501   1.960   2.095  17.063 -0.3437 -0.5205 -0.0407
14670TIP3    H265502   1.887   2.131  16.935 -0.3780 -0.4551 -0.0020
14671TIP3   OH265503   3.789   2.125   4.990 -0.4619 -0.0581  0.1806
14671TIP3    H165504   3.808   2.175   5.068  0.0975 -0.6984  0.4636
14671TIP3    H265505   3.849   2.159   4.923  0.0372 -0.4525  0.4192
14672TIP3   OH265506   5.111   3.756   5.632  0.1571 -0.0457  0.6901
14672TIP3    H165507   5.179   3.799   5.683  0.5077 -0.4114  0.5334
14672TIP3    H265508   5.056   3.713   5.698  1.3911 -1.6779  0.7253
14673TIP3   OH265509   6.645   5.367  11.388  0.7606 -0.1651  0.5432
14673TIP3    H165510   6.720   5.323  11.427  2.0072  1.6903  0.4047
14673TIP3    H265511   6.683   5.427  11.324 -0.8138  0.9958  0.6279
14674TIP3   OH265512   5.722   1.187  15.435 -0.4523 -0.0019  0.0593
14674TIP3    H165513   5.687   1.182  15.346  0.1221  0.9901 -0.2327
14674TIP3    H265514   5.655   1.233  15.485  0.5611  2.3318 -0.6073
14675TIP3   OH265515   5.903   4.702   5.354 -0.1919 -0.2403 -0.0578
14675TIP3    H165516   5.920   4.613   5.323  0.1317 -0.8354  1.7183
14675TIP3    H265517   5.843   4.691   5.428  0.5798  0.9292  0.7830
14676TIP3   OH265518   2.775   1.513   2.124 -0.2966  0.1747  0.2355
14676TIP3    H165519   2.821   1.444   2.170 -1.1285 -0.1253  0.6368
14676TIP3    H265520   2.811   1.511   2.035 -0.2110 -0.6718  0.2846
14677TIP3   OH265521   5.479   3.939   2.426  0.2276  0.3199 -0.2198
14677TIP3    H165522   5.384   3.932   2.417  0.1129  1.5394 -0.1114
14677TIP3    H265523   5.508   3.849   2.443 -1.0815  0.1754  1.4377
14678TIP3   OH265524   4.553   0.042   5.858 -0.2214 -0.2855  0.6028
14678TIP3    H165525   4.502   0.073   5.933  0.8823 -1.7083  1.9903
14678TIP3    H265526   4.641   0.076   5.873 -0.4682  1.4953 -1.3799
14679TIP3   OH265527   6.689   2.124  15.858 -0.2861 -1.0075 -0.7290
14679TIP3    H165528   6.726   2.072  15.786  2.4407 -0.5343  0.2425
14679TIP3    H265529   6.673   2.060  15.928  2.0165 -0.7955  0.0627
14680TIP3   OH265530   5.781   6.646  14.943  0.5033 -0.2985 -0.1838
14680TIP3    H165531   5.762   6.638  14.849  0.3224  1.1527 -0.2914
14680TIP3    H265532   5.875   6.666  14.947  0.2846  0.7413 -0.1261
14681TIP3   OH265533   3.510   5.314  13.888 -0.2683 -0.1070 -0.0021
14681TIP3    H165534   3.488   5.368  13.812  1.5916  0.3396 -0.2726
14681TIP3    H265535   3.572   5.249  13.855  0.2290 -0.1841  1.0251
14682TIP3   OH265536   5.161   3.618   6.843 -0.2721  0.1185  0.0531
14682TIP3    H165537   5.111   3.603   6.924 -0.7446 -2.3565 -0.6177
14682TIP3    H265538   5.249   3.586   6.864  0.3135  1.8068  0.3234
14683TIP3   OH265539   5.529   4.142  11.372 -0.1299 -0.1080 -0.3756
14683TIP3    H165540   5.494   4.125  11.460  1.2498  0.0143  0.2250
14683TIP3    H265541   5.614   4.097  11.371 -0.1043 -0.0713 -1.6384
14684TIP3   OH265542   6.450   2.440   2.735  0.4610  0.0894 -0.0724
14684TIP3    H165543   6.479   2.503   2.801  0.8981 -0.3142  0.1247
14684TIP3    H265544   6.422   2.494   2.661 -0.1214  0.5517  0.4704
14685TIP3   OH265545   4.078   1.521  14.203  1.0881  0.8552  0.0797
14685TIP3    H165546   4.049   1.609  14.178 -2.8845 -0.7367 -1.6911
14685TIP3    H265547   4.088   1.475  14.120  0.5980 -1.0249  1.0252
14686TIP3   OH265548   5.316   3.229   1.469 -0.4676  0.0234  1.1439
14686TIP3    H165549   5.249   3.163   1.453 -0.7592  0.6325 -0.2227
14686TIP3    H265550   5.299   3.298   1.405  2.0580 -0.2501  0.0658
14687TIP3   OH265551   3.815   5.375   4.054 -0.4106  0.1352  0.2294
14687TIP3    H165552   3.871   5.453   4.062 -0.8813  0.3990  1.1923
14687TIP3    H265553   3.727   5.408   4.069 -0.6396 -0.5419  0.4005
14688TIP3   OH265554   0.219   2.210   3.273 -0.5633 -0.2258 -0.0234
14688TIP3    H165555   0.274   2.186   3.348  0.5592  0.6821 -0.5251
14688TIP3    H265556   0.129   2.203   3.306 -0.0942  0.3045  1.4547
14689TIP3   OH265557   3.059   2.792   1.124 -0.3717 -0.3312 -0.0807
14689TIP3    H165558   3.048   2.783   1.029  0.1652 -0.8890 -0.0946
14689TIP3    H265559   3.085   2.883   1.136  2.1476 -0.8948 -0.7308
14690TIP3   OH265560   6.214   0.394   5.904 -0.2461  0.0759  1.1216
14690TIP3    H165561   6.237   0.444   5.983 -0.7996 -0.3690  1.5786
14690TIP3    H265562   6.155   0.325   5.936  1.3274 -1.5445  0.6681
14691TIP3   OH265563   6.735   4.052   0.165  0.5662 -0.0033  0.1376
14691TIP3    H165564   6.729   3.958   0.182  0.0642 -0.4733 -2.2896
14691TIP3    H265565   6.646   4.085   0.179  0.3268 -0.2466 -0.7575
14692TIP3   OH265566   5.620   4.319   2.277  0.0034  0.6335 -0.1865
14692TIP3    H165567   5.698   4.269   2.256 -1.2491 -1.6351  0.2976
14692TIP3    H265568   5.653   4.404   2.308  2.1668  0.3959 -1.6689
14693TIP3   OH265569   4.500   5.307   5.020 -0.0631 -0.2508 -0.1102
14693TIP3    H165570   4.544   5.316   4.935  1.1164 -1.0145  0.3857
14693TIP3    H265571   4.410   5.285   4.999  0.2733 -0.6756 -1.1686
14694TIP3   OH265572   0.933   2.862   2.226  0.0537  0.4063  0.0829
14694TIP3    H165573   0.879   2.923   2.276  0.3486  1.0243 -0.3493
14694TIP3    H265574   1.005   2.839   2.285  0.1914  0.8331  0.0806
14695TIP3   OH265575   2.902   6.425   0.879 -0.2987 -0.1641  0.1270
14695TIP3    H165576   2.815   6.463   0.874 -1.0457 -1.7641  0.4587
14695TIP3    H265577   2.890   6.332   0.859  1.6055 -0.1019 -1.6899
14696TIP3   OH265578   4.556   1.351   2.756  0.0249  0.1494 -0.1793
14696TIP3    H165579   4.462   1.336   2.753 -0.1701  0.7613  1.7794
14696TIP3    H265580   4.565   1.446   2.756  0.6123  0.0961  0.3554
14697TIP3   OH265581   0.502   6.090   5.440  0.4958 -0.2013 -0.1349
14697TIP3    H165582   0.588   6.126   5.419  0.8894 -0.2058  1.3695
14697TIP3    H265583   0.521   6.010   5.490 -0.3741 -0.0003  0.5435
14698TIP3   OH265584   5.178   2.437   1.555 -0.1986  0.3839 -0.0131
14698TIP3    H165585   5.098   2.489   1.551 -1.5590 -1.0991  3.5996
14698TIP3    H265586   5.148   2.346   1.560  1.6406 -0.2114  1.3527
14699TIP3   OH265587   2.369   2.121  11.849 -0.4520 -0.3619  0.4390
14699TIP3    H165588   2.340   2.117  11.940 -0.5487 -0.9890  0.3859
14699TIP3    H265589   2.443   2.182  11.850 -1.2484  0.6291  0.7072
14700TIP3   OH265590   3.362   0.914  13.770  0.2939  0.4446 -0.3230
14700TIP3    H165591   3.433   0.861  13.735  0.4276  1.3972 -1.5636
14700TIP3    H265592   3.405   0.995  13.799 -0.1842  0.7361 -0.4172
14701TIP3   OH265593   3.175   0.724  13.914 -0.1981  0.2344 -0.1413
14701TIP3    H165594   3.233   0.797  13.892  0.5207 -0.5130 -0.8519
14701TIP3    H265595   3.101   0.733  13.854 -0.6580  0.9956  0.5288
14702TIP3   OH265596   2.717   4.343  13.881 -0.5068  0.0062 -0.2016
14702TIP3    H165597   2.784   4.382  13.937 -1.3773  1.3747 -0.0769
14702TIP3    H265598   2.738   4.374  13.793 -1.3282  0.9653 -0.0707
14703TIP3   OH265599   1.969   4.604   4.346  0.7146  0.6243  0.0132
14703TIP3    H165600   1.926   4.647   4.272  0.3540  2.6715  1.3344
14703TIP3    H265601   2.043   4.558   4.307 -0.8517 -0.4234 -1.9115
14704TIP3   OH265602   1.141   6.542  15.951  1.0202 -0.1798 -0.1936
14704TIP3    H165603   1.074   6.610  15.950  0.2934 -0.7755  1.7002
14704TIP3    H265604   1.185   6.549  15.867 -1.1649  0.4991 -1.3527
14705TIP3   OH265605   3.557   3.320  11.436 -0.3203 -0.1474 -0.4070
14705TIP3    H165606   3.652   3.311  11.430 -0.2521  0.0321  0.3363
14705TIP3    H265607   3.529   3.338  11.346  0.5237  1.4170 -0.3897
14706TIP3   OH265608   6.630   6.046   0.224 -0.2214 -0.7693 -0.0231
14706TIP3    H165609   6.652   6.125   0.273 -1.4186 -0.4526  0.0325
14706TIP3    H265610   6.615   5.980   0.292 -0.8608 -0.5980  0.0123
14707TIP3   OH265611   6.546   3.152   4.382  0.8269  0.1331 -0.2776
14707TIP3    H165612   6.557   3.179   4.291  1.4190 -0.8489 -0.5106
14707TIP3    H265613   6.460   3.186   4.407  0.6823  0.4576 -1.1784
14708TIP3   OH265614   4.619   1.799  11.043 -0.3535  0.3509 -0.1335
14708TIP3    H165615   4.619   1.876  10.986  0.2004  1.2318  1.0036
14708TIP3    H265616   4.706   1.760  11.031 -1.2341 -1.1606 -2.0293
14709TIP3   OH265617   0.771   3.863  15.641 -0.7006  0.4148 -0.2230
14709TIP3    H165618   0.775   3.839  15.549 -0.5966 -0.8779  0.1038
14709TIP3    H265619   0.726   3.790  15.684  0.6967  0.2106  0.9930
14710TIP3   OH265620   4.211   3.989  12.043 -0.8462 -0.1453  0.2182
14710TIP3    H165621   4.129   3.941  12.053 -0.6932 -0.8840 -1.6093
14710TIP3    H265622   4.194   4.074  12.084 -1.8157 -1.0066  1.6855
14711TIP3   OH265623   1.386   4.319  13.714  0.2078 -0.0509  0.0914
14711TIP3    H165624   1.386   4.379  13.640  1.4044  0.7030  0.6647
14711TIP3    H265625   1.310   4.263  13.701 -1.1290  1.7979 -0.3006
14712TIP3   OH265626   4.466   5.196   4.649 -0.1191  0.2341 -0.0094
14712TIP3    H165627   4.438   5.255   4.578 -0.8910 -0.9523 -0.7233
14712TIP3    H265628   4.502   5.120   4.604 -0.7440 -0.6013  0.8540
14713TIP3   OH265629   0.978   5.099  13.583  0.6530 -0.6324 -0.0482
14713TIP3    H165630   0.980   5.059  13.496  0.4704 -0.2631 -0.2244
14713TIP3    H265631   0.898   5.066  13.623  0.9517 -1.1386  0.1453
14714TIP3   OH265632   2.603   1.015   0.013  0.0334  0.3546 -0.1623
14714TIP3    H165633   2.576   0.924   0.003 -1.0110  0.5445  0.8606
14714TIP3    H265634   2.645   1.019   0.099 -3.6393  1.6429  1.7577
14715TIP3   OH265635   4.434   3.425  13.198 -0.3923  0.3233  0.0044
14715TIP3    H165636   4.430   3.458  13.288 -0.4776 -0.3504  0.2532
14715TIP3    H265637   4.369   3.355  13.196  0.0853 -0.1129 -0.3940
14716TIP3   OH265638   5.831   0.604   1.877  0.0128 -0.6241  0.5059
14716TIP3    H165639   5.790   0.632   1.795  1.4383 -0.9673 -0.3736
14716TIP3    H265640   5.882   0.526   1.852  2.2207  0.5044  1.1846
14717TIP3   OH265641   6.122   2.975  14.279  0.6366 -0.0404  0.2104
14717TIP3    H165642   6.186   2.922  14.232  0.9383  0.8649 -0.4316
14717TIP3    H265643   6.158   2.982  14.368  1.3697  0.3535 -0.1100
14718TIP3   OH265644   0.398   0.331  11.524  0.1233 -0.3360  0.0236
14718TIP3    H165645   0.409   0.374  11.438  1.1988  0.0926  0.3541
14718TIP3    H265646   0.422   0.240  11.508 -2.2324 -0.9174 -0.6974
14719TIP3   OH265647   6.584   0.681   1.295  0.4369  0.6128  0.0303
14719TIP3    H165648   6.595   0.729   1.378 -0.6508  0.8733  0.0353
14719TIP3    H265649   6.545   0.745   1.236  2.3072  0.7959 -1.0799
14720TIP3   OH265650   1.749   5.196   3.744  0.1794 -0.0562  0.5320
14720TIP3    H165651   1.750   5.186   3.839 -0.2032  0.8392  0.6428
14720TIP3    H265652   1.838   5.222   3.721  0.1538  0.1782  0.7011
14721TIP3   OH265653   2.014   6.783  12.822 -0.2035 -0.0813  0.2978
14721TIP3    H165654   1.978   6.790  12.734  1.6607  2.7600 -0.3890
14721TIP3    H265655   1.942   6.807  12.880 -0.8390  0.2636 -0.6137
14722TIP3   OH265656   3.810   2.956   5.598 -0.5186  0.5522  0.0734
14722TIP3    H165657   3.733   2.899   5.602  0.2440 -0.4622  2.0988
14722TIP3    H265658   3.782   3.031   5.545 -2.6880 -0.0835  0.2125
14723TIP3   OH265659   6.703   1.994  16.130 -0.5509  0.2990 -0.2664
14723TIP3    H165660   6.675   2.037  16.211 -1.6113 -1.7648  0.5493
14723TIP3    H265661   6.783   1.948  16.154 -0.4425  0.3092 -0.6068
14724TIP3   OH265662   4.347   3.699  15.942 -0.0001 -0.4724  0.1600
14724TIP3    H165663   4.336   3.604  15.932 -1.1078 -0.4873  1.3426
14724TIP3    H265664   4.368   3.730  15.854  1.3504 -1.9281 -0.0798
14725TIP3   OH265665   3.515   6.108   2.100  0.2547 -0.4246  0.5078
14725TIP3    H165666   3.433   6.139   2.140 -1.6426 -3.1201 -1.0116
14725TIP3    H265667   3.491   6.085   2.010  2.1161 -3.4019  0.6551
14726TIP3   OH265668   0.536   3.488  12.572  0.1909 -0.6037 -0.2821
14726TIP3    H165669   0.573   3.433  12.503  0.5667 -0.0636 -0.5264
14726TIP3    H265670   0.554   3.441  12.653  1.7279 -0.2053 -0.3628
14727TIP3   OH265671   6.629   2.442   0.287  0.6216 -0.3210 -0.2659
14727TIP3    H165672   6.713   2.396   0.296 -0.3062 -2.2823 -1.0378
14727TIP3    H265673   6.588   2.403   0.210 -1.9402 -0.9799  1.3042
14728TIP3   OH265674   1.198   5.717  11.989 -0.0769 -0.1028  0.0205
14728TIP3    H165675   1.216   5.776  11.916 -1.5564 -1.1104 -1.2092
14728TIP3    H265676   1.107   5.735  12.013 -0.1601 -1.0109  0.4410
14729TIP3   OH265677   6.154   6.370  13.303 -0.2771 -0.4924 -0.2576
14729TIP3    H165678   6.224   6.424  13.339 -1.5613 -0.3493  2.2560
14729TIP3    H265679   6.084   6.432  13.283 -0.6953 -0.9117 -0.1185
14730TIP3   OH265680   1.099   5.740   1.348 -0.5270 -0.3719 -0.5585
14730TIP3    H165681   1.085   5.700   1.434  1.1406  0.2882  0.0669
14730TIP3    H265682   1.096   5.666   1.286 -3.7570 -0.6102 -0.2542
14731TIP3   OH265683   4.613   4.319   3.839  0.0803 -0.3125  0.6307
14731TIP3    H165684   4.542   4.286   3.894 -0.0051  0.2833  0.8774
14731TIP3    H265685   4.660   4.240   3.811 -0.2585 -0.6584  1.0326
14732TIP3   OH265686   3.721   6.066   5.439  0.6116 -0.5980  0.0668
14732TIP3    H165687   3.786   6.104   5.498 -0.1838  0.9189  0.0195
14732TIP3    H265688   3.724   6.122   5.361 -0.4735 -0.7269 -0.0805
14733TIP3   OH265689   3.108   2.566  13.970 -0.4239  0.5898 -0.2988
14733TIP3    H165690   3.189   2.615  13.980  0.3936 -0.7938  0.2060
14733TIP3    H265691   3.045   2.612  14.025  0.5360  0.6202  0.8236
14734TIP3   OH265692   6.165   5.536   4.677 -0.5663  0.4474 -0.1460
14734TIP3    H165693   6.214   5.479   4.736 -1.9721 -1.9670 -1.1880
14734TIP3    H265694   6.082   5.551   4.721 -0.5368  1.0151 -0.2711
14735TIP3   OH265695   5.749   4.893   4.444  0.4728 -0.2684 -0.4543
14735TIP3    H165696   5.704   4.810   4.429  1.8964 -1.7537  2.6182
14735TIP3    H265697   5.685   4.948   4.488  0.5195 -1.0269  0.5876
14736TIP3   OH265698   4.792   6.114   2.199  0.0806  0.4430  0.2351
14736TIP3    H165699   4.704   6.090   2.169  0.5550 -0.6531 -0.3729
14736TIP3    H265700   4.779   6.159   2.282 -1.0967  0.9637 -0.2122
14737TIP3   OH265701   2.274   3.183  16.351 -0.3407  0.1626  0.6415
14737TIP3    H165702   2.289   3.137  16.433  1.1284  1.0865  0.9243
14737TIP3    H265703   2.322   3.266  16.361  0.1499  0.1456 -1.2775
14738TIP3   OH265704   2.201   0.389   3.520 -0.4203 -0.2675 -0.1965
14738TIP3    H165705   2.196   0.295   3.501 -0.8503 -0.1309 -0.7649
14738TIP3    H265706   2.131   0.404   3.583 -2.5142  0.2583 -2.5427
14739TIP3   OH265707   0.288   5.358  13.991  0.0134  0.0188  0.2586
14739TIP3    H165708   0.324   5.351  13.903 -0.6015 -1.0283  0.0685
14739TIP3    H265709   0.344   5.303  14.045 -0.6593 -0.7980  0.1553
14740TIP3   OH265710   3.512   4.967   6.396  0.1241  0.0976  0.4808
14740TIP3    H165711   3.560   5.050   6.405  1.1374 -0.4222  0.0172
14740TIP3    H265712   3.572   4.901   6.430  0.0608 -0.6694 -0.8256
14741TIP3   OH265713   2.696   0.214  14.547 -0.0428  0.3656  0.0598
14741TIP3    H165714   2.790   0.228  14.559 -0.0788  1.3232 -0.6035
14741TIP3    H265715   2.688   0.125  14.512  0.6782  0.5338 -0.5453
14742TIP3   OH265716   1.304   6.483   3.489 -0.1022 -0.5600  0.0112
14742TIP3    H165717   1.383   6.508   3.538 -0.5931 -0.7660  0.9297
14742TIP3    H265718   1.232   6.523   3.537 -0.6026 -0.7948 -0.5327
14743TIP3   OH265719   5.735   2.162   3.318 -0.8323 -0.0471 -0.2924
14743TIP3    H165720   5.739   2.182   3.224 -1.7160  0.4349 -0.2416
14743TIP3    H265721   5.646   2.130   3.331 -0.5359 -0.6649  0.2900
14744TIP3   OH265722   3.531   2.399   4.901  0.5983  0.4243  0.2164
14744TIP3    H165723   3.525   2.364   4.990  0.3392  1.5680  0.6688
14744TIP3    H265724   3.455   2.363   4.856 -0.8040  1.9276  1.2413
14745TIP3   OH265725   3.114   4.307   3.316 -0.1001  1.0635 -0.9944
14745TIP3    H165726   3.067   4.226   3.338  1.7096 -0.6361 -2.9353
14745TIP3    H265727   3.098   4.364   3.391 -1.2376 -1.1789  0.6192
14746TIP3   OH265728   1.159   0.933   4.305  0.2000  0.0606 -0.8032
14746TIP3    H165729   1.243   0.887   4.299  0.8868  1.2730 -0.8454
14746TIP3    H265730   1.127   0.934   4.215  0.6597  0.5121 -0.9675
14747TIP3   OH265731   2.515   4.006   2.397 -0.3337 -0.1045 -0.1826
14747TIP3    H165732   2.609   3.990   2.392 -0.5244 -1.2504 -0.3815
14747TIP3    H265733   2.485   4.000   2.306 -0.5063  0.9306 -0.2049
14748TIP3   OH265734   2.733   2.981  14.846 -0.1415 -0.0051  0.0711
14748TIP3    H165735   2.688   2.922  14.785 -0.0913 -1.4033  1.3320
14748TIP3    H265736   2.699   2.957  14.932 -0.3526  2.0531  0.6141
14749TIP3   OH265737   1.360   6.281   2.123 -0.7698 -0.0633  0.0311
14749TIP3    H165738   1.361   6.372   2.094  0.5257  0.3118  1.1031
14749TIP3    H265739   1.282   6.243   2.083 -0.2257  0.9504 -2.1007
14750TIP3   OH265740   0.633   6.486  16.439 -0.1869 -0.2007  0.1831
14750TIP3    H165741   0.628   6.492  16.344 -0.9486  2.1748  0.2845
14750TIP3    H265742   0.637   6.393  16.458 -1.3717 -0.7911 -2.1230
14751TIP3   OH265743   1.245   2.854  10.831  0.4176  0.0651 -0.1904
14751TIP3    H165744   1.302   2.929  10.847 -0.0648  0.0856  1.5405
14751TIP3    H265745   1.253   2.800  10.909 -2.8673  0.6763  0.7175
14752TIP3   OH265746   5.722   1.303   2.582 -0.0042  0.2272 -0.5458
14752TIP3    H165747   5.736   1.336   2.494 -2.5231  0.3259 -0.9980
14752TIP3    H265748   5.627   1.289   2.588  0.1546 -0.4024  1.9233
14753TIP3   OH265749   1.038   6.139   0.719 -0.0683 -0.0113 -0.0878
14753TIP3    H165750   1.023   6.161   0.627 -0.1174  0.6309  0.0691
14753TIP3    H265751   0.952   6.145   0.759 -0.4184 -2.2471 -0.3769
14754TIP3   OH265752   5.381   1.721  13.081  0.3070 -0.3661 -0.4271
14754TIP3    H165753   5.459   1.714  13.026  1.5014 -0.2810  1.1949
14754TIP3    H265754   5.309   1.733  13.019  1.4529 -1.2944 -2.0110
14755TIP3   OH265755   6.758   0.715  11.712 -0.0409 -0.4610  0.8350
14755TIP3    H165756   6.766   0.740  11.621  2.6884 -1.7732  0.5985
14755TIP3    H265757   6.733   0.795  11.758 -1.4046  0.2225 -1.0185
14756TIP3   OH265758   2.941   5.337  16.891 -0.3931  0.8164 -0.0731
14756TIP3    H165759   2.952   5.406  16.825  0.8639  1.2167  0.5114
14756TIP3    H265760   2.986   5.371  16.969 -1.7002  0.2844  0.9480
14757TIP3   OH265761   6.663   6.787  12.125  0.2243 -0.5832  0.3936
14757TIP3    H165762   6.669   6.765  12.032  0.6554 -2.0476  0.7421
14757TIP3    H265763   6.750   6.816  12.150  0.0895 -0.1169  0.3246
14758TIP3   OH265764   0.181   5.326   3.615 -0.3381  0.2349 -0.0674
14758TIP3    H165765   0.189   5.255   3.551 -1.8457  0.5640 -0.6697
14758TIP3    H265766   0.186   5.406   3.563  1.4881  0.6116  0.6234
14759TIP3   OH265767   2.066   4.375  11.588  0.6389  0.3537 -0.5645
14759TIP3    H165768   2.068   4.280  11.577  1.3221  0.2754  0.1757
14759TIP3    H265769   2.073   4.409  11.498 -1.8802 -0.2756 -1.0690
14760TIP3   OH265770   6.519   1.371   3.300 -0.1432 -0.0836 -0.2308
14760TIP3    H165771   6.423   1.374   3.299 -0.2108 -1.5797 -0.0600
14760TIP3    H265772   6.543   1.397   3.389 -0.3593  0.5245 -0.3406
14761TIP3   OH265773   5.226   5.732   0.554 -0.1505 -0.4183 -0.0808
14761TIP3    H165774   5.193   5.781   0.629 -1.6206 -0.5325 -0.6165
14761TIP3    H265775   5.235   5.642   0.586 -0.9736 -0.5089 -0.0803
14762TIP3   OH265776   2.789   3.775   1.520  0.2676  0.2715  0.6230
14762TIP3    H165777   2.884   3.775   1.534  0.2132 -1.5833  1.2878
14762TIP3    H265778   2.755   3.833   1.588  0.9637  1.5807 -0.1168
14763TIP3   OH265779   6.271   6.435  13.636 -0.2883 -0.7349  0.1054
14763TIP3    H165780   6.259   6.355  13.585  1.7830 -0.2312 -1.3015
14763TIP3    H265781   6.332   6.411  13.705 -2.3940 -1.1850  1.9172
14764TIP3   OH265782   4.659   3.881  17.116  0.3366  0.7354  0.0109
14764TIP3    H165783   4.731   3.842  17.167 -0.0408 -0.3845 -0.2889
14764TIP3    H265784   4.631   3.956  17.169  1.0662  0.5996  0.6174
14765TIP3   OH265785   1.084   5.414  10.812  0.5858  1.1474 -0.3105
14765TIP3    H165786   1.144   5.390  10.741  0.1994 -1.2514  0.0669
14765TIP3    H265787   1.002   5.370  10.789  0.2177  1.0101  1.1856
14766TIP3   OH265788   5.570   0.692  13.854  0.0009  0.6189  0.5104
14766TIP3    H165789   5.554   0.765  13.913  0.5942  0.8683  0.3710
14766TIP3    H265790   5.638   0.640  13.897  0.6246  0.9440 -0.0643
14767TIP3   OH265791   0.260   3.299  12.968 -0.1906  0.3690 -0.3257
14767TIP3    H165792   0.267   3.359  13.042 -0.9599 -1.3168  1.1995
14767TIP3    H265793   0.178   3.322  12.926 -0.4723  0.4177  0.2396
14768TIP3   OH265794   3.133   3.286  13.635 -0.8506 -0.0483  0.4631
14768TIP3    H165795   3.078   3.215  13.668 -0.1602 -1.0655 -0.5150
14768TIP3    H265796   3.088   3.318  13.558 -1.2706  0.7529  1.0208
14769TIP3   OH265797   0.295   2.681   3.467  0.0091  0.1828  0.0255
14769TIP3    H165798   0.321   2.772   3.454  1.8422 -0.1830  0.7443
14769TIP3    H265799   0.376   2.637   3.495 -0.7611 -1.7236 -0.5920
14770TIP3   OH265800   6.111   0.667  14.692  0.3416 -0.3611  0.1839
14770TIP3    H165801   6.177   0.733  14.710  0.9587 -0.9258  0.0282
14770TIP3    H265802   6.114   0.609  14.768  1.5949 -1.6466 -0.7954
14771TIP3   OH265803   0.191   4.784   2.308 -0.2557 -0.5479 -0.2425
14771TIP3    H165804   0.183   4.763   2.216 -0.9558 -1.1857 -0.0417
14771TIP3    H265805   0.195   4.700   2.353 -0.2195 -0.2508  0.3346
14772TIP3   OH265806   0.955   2.977  15.326  0.4801 -0.5063  0.2564
14772TIP3    H165807   0.874   3.002  15.371  0.6108 -0.0298  0.2306
14772TIP3    H265808   0.932   2.896  15.278 -1.0890  1.4953 -2.7105
14773TIP3   OH265809   0.805   5.479   0.004  0.1930  0.1074  0.2856
14773TIP3    H165810   0.839   5.467   0.093 -0.2746 -0.2080  0.4263
14773TIP3    H265811   0.752   5.559   0.009  1.0350  0.6980  0.0241
14774TIP3   OH265812   5.147   4.130  14.150  0.0949  0.5447  0.5651
14774TIP3    H165813   5.214   4.168  14.207  0.9739 -0.1182 -0.0058
14774TIP3    H265814   5.108   4.206  14.106  0.5005  0.9379  0.8675
14775TIP3   OH265815   1.413   3.144  13.279 -0.7201  0.0592 -1.4010
14775TIP3    H165816   1.370   3.071  13.323  1.6083 -0.9695 -0.6800
14775TIP3    H265817   1.455   3.105  13.202  1.7518  0.2421 -0.2541
14776TIP3   OH265818   4.162   6.001   0.647 -0.0981 -0.5671  0.1179
14776TIP3    H165819   4.194   6.029   0.734 -1.4101 -0.1141  0.4814
14776TIP3    H265820   4.234   6.021   0.588 -0.2949  2.0650  0.6371
14777TIP3   OH265821   1.424   1.670  11.263  0.1209 -0.3295  0.4941
14777TIP3    H165822   1.518   1.686  11.258 -0.1659  1.8262  1.1908
14777TIP3    H265823   1.394   1.720  11.339 -1.9605  1.1047 -1.1449
14778TIP3   OH265824   5.622   3.321   6.142  0.2764  0.3320  0.3389
14778TIP3    H165825   5.578   3.306   6.226 -1.7822  1.2234 -0.5207
14778TIP3    H265826   5.555   3.362   6.087  1.9095  0.7945 -1.3935
14779TIP3   OH265827   6.086   1.601   3.705  0.3304 -0.3149 -0.2649
14779TIP3    H165828   6.076   1.513   3.670 -0.0084 -0.1911 -0.4777
14779TIP3    H265829   6.007   1.616   3.757  0.4353 -0.1763 -0.1445
14780TIP3   OH265830   2.496   5.464  12.819  0.2421 -0.5460 -0.0232
14780TIP3    H165831   2.509   5.497  12.908  1.0322  0.4658 -0.4897
14780TIP3    H265832   2.420   5.511  12.786 -0.4647 -1.4106  0.3273
14781TIP3   OH265833   5.747   5.482  11.265 -0.2323  0.0671 -0.1463
14781TIP3    H165834   5.786   5.477  11.352 -0.3029  1.7763  0.0264
14781TIP3    H265835   5.686   5.556  11.271  0.2325  0.6254 -1.8120
14782TIP3   OH265836   3.670   6.012   3.495 -0.8946 -0.2373  0.2992
14782TIP3    H165837   3.657   5.921   3.522 -0.3941  0.2130  2.2375
14782TIP3    H265838   3.582   6.049   3.490 -0.9813 -0.0425  2.5735
14783TIP3   OH265839   6.809   3.420  13.734  0.0342 -0.0352  0.3520
14783TIP3    H165840   6.854   3.362  13.795  1.1093  1.2274  0.8003
14783TIP3    H265841   6.745   3.364  13.690  0.6684 -1.4209  1.1501
14784TIP3   OH265842   3.915   4.158  11.986  0.3078 -0.1647  0.2242
14784TIP3    H165843   3.972   4.173  12.061  0.2599  0.3449  0.1646
14784TIP3    H265844   3.830   4.137  12.023  0.1484  0.6181  0.3186
14785TIP3   OH265845   1.217   6.013   5.692 -0.6454 -0.5881  0.0438
14785TIP3    H165846   1.228   6.075   5.763  0.2383 -0.2584 -0.3624
14785TIP3    H265847   1.237   5.928   5.730 -0.4135 -0.4411  0.2491
14786TIP3   OH265848   0.779   4.843  15.168  0.3370  0.2796  0.0035
14786TIP3    H165849   0.812   4.857  15.257  1.2383 -0.1897 -0.2456
14786TIP3    H265850   0.716   4.772  15.177  0.9912 -0.2931  0.1622
14787TIP3   OH265851   1.752   3.777   1.352 -0.5453 -0.3125  0.3090
14787TIP3    H165852   1.720   3.865   1.331  0.4545  0.9302  3.3514
14787TIP3    H265853   1.689   3.744   1.416  1.5655  0.3231  2.9261
14788TIP3   OH265854   2.396   4.686   5.988  0.2069 -0.1628 -0.3537
14788TIP3    H165855   2.456   4.761   5.988  0.6304 -0.4861 -0.9738
14788TIP3    H265856   2.423   4.635   5.911 -0.0199 -0.9962  0.1117
14789TIP3   OH265857   5.711   4.452   2.789 -0.4170  0.2257  0.1901
14789TIP3    H165858   5.771   4.435   2.716 -1.9587 -0.7710 -0.9071
14789TIP3    H265859   5.723   4.545   2.809  2.2931 -0.1824  0.8066
14790TIP3   OH265860   6.049   6.669   2.917 -0.3482  0.0392  0.0489
14790TIP3    H165861   6.052   6.576   2.895  2.1782  0.1611 -0.3892
14790TIP3    H265862   6.034   6.670   3.012  2.0472 -0.9552  0.5033
14791TIP3   OH265863   3.756   1.641   1.883  0.1504 -0.1152 -0.6423
14791TIP3    H165864   3.703   1.573   1.842 -1.1270  0.3086  0.2472
14791TIP3    H265865   3.713   1.723   1.859  0.1178  0.2085  0.4906
14792TIP3   OH265866   4.600   2.054   3.384  0.6245 -0.8506 -0.2558
14792TIP3    H165867   4.545   2.006   3.446  1.2847 -2.8995 -1.1678
14792TIP3    H265868   4.651   2.114   3.439  0.2740 -1.6857  1.0383
14793TIP3   OH265869   4.538   4.838  11.741  0.6796  0.0774  0.1346
14793TIP3    H165870   4.520   4.748  11.713  1.2784 -0.2384  0.7320
14793TIP3    H265871   4.551   4.831  11.835 -1.6744  1.1749  0.6016
14794TIP3   OH265872   5.827   2.853  12.665  0.1404  0.8331  0.6589
14794TIP3    H165873   5.880   2.851  12.585  1.4557  1.2399  1.4815
14794TIP3    H265874   5.766   2.926  12.653  0.2635  0.8257 -0.0098
14795TIP3   OH265875   4.870   4.874  13.883 -0.5690 -0.0971  0.2371
14795TIP3    H165876   4.854   4.943  13.947  1.9809 -0.5439  1.5042
14795TIP3    H265877   4.849   4.913  13.798 -1.1484  1.5140  1.0871
14796TIP3   OH265878   2.256   0.010  16.168 -0.3067  0.0696 -0.7078
14796TIP3    H165879   2.185   0.051  16.216  0.8029  1.6397 -0.3211
14796TIP3    H265880   2.242   0.035  16.077 -0.0241  0.7523 -0.5691
14797TIP3   OH265881   5.579   5.837   4.294  0.0910  0.0348  0.5385
14797TIP3    H165882   5.663   5.879   4.276 -0.8780  1.0301 -2.3361
14797TIP3    H265883   5.535   5.894   4.357  0.5348  0.9847  0.0068
14798TIP3   OH265884   5.332   2.279  14.048 -0.8601  0.1585  0.2354
14798TIP3    H165885   5.276   2.331  13.990 -0.1706  0.4102 -0.2355
14798TIP3    H265886   5.420   2.293  14.013 -0.4912 -0.1263  1.0266
14799TIP3   OH265887   2.971   2.776   0.062 -0.4768 -0.4036  0.1971
14799TIP3    H165888   3.065   2.796   0.058 -0.2023 -1.3727  1.0575
14799TIP3    H265889   2.959   2.742   0.151 -1.5388 -0.7974 -0.0906
14800TIP3   OH265890   0.135   5.266  14.640  0.1604 -0.2995  0.3445
14800TIP3    H165891   0.061   5.273  14.579  0.3517 -0.9116  0.0329
14800TIP3    H265892   0.170   5.179  14.625  1.3168  0.1900  0.0686
14801TIP3   OH265893   6.443   0.250   5.577  0.6145  0.1113  0.4684
14801TIP3    H165894   6.396   0.243   5.494 -0.1277  0.5105  0.8541
14801TIP3    H265895   6.464   0.160   5.600  0.6698 -0.0169 -0.0560
14802TIP3   OH265896   3.649   6.497   2.464 -0.4144 -0.5438 -0.5427
14802TIP3    H165897   3.658   6.484   2.370 -1.8877 -1.6767 -0.5574
14802TIP3    H265898   3.562   6.464   2.485 -0.1904 -0.1364  1.1943
14803TIP3   OH265899   3.694   1.846   1.300 -0.8341 -0.7515 -0.5908
14803TIP3    H165900   3.766   1.836   1.363 -1.0939 -1.9248 -0.4580
14803TIP3    H265901   3.627   1.894   1.348 -0.0343  0.6716 -0.8258
14804TIP3   OH265902   1.565   3.359   3.120 -0.0801  0.3491 -0.3066
14804TIP3    H165903   1.630   3.329   3.055  2.0016  0.6525  1.5261
14804TIP3    H265904   1.599   3.442   3.151 -2.6661  1.7440 -0.9599
14805TIP3   OH265905   2.379   0.049   5.033  0.2651 -0.3013 -0.4140
14805TIP3    H165906   2.316   0.118   5.011  0.1963 -0.1805  0.1516
14805TIP3    H265907   2.417   0.024   4.949 -0.4704 -0.3165 -0.7489
14806TIP3   OH265908   1.545   1.646   3.228 -0.2609  0.2274  0.2543
14806TIP3    H165909   1.549   1.735   3.264  1.4592 -0.0876  0.9880
14806TIP3    H265910   1.601   1.649   3.151  0.9457 -0.5058  1.0641
14807TIP3   OH265911   6.064   5.940  12.892  0.2429 -0.0119  0.1262
14807TIP3    H165912   6.100   6.025  12.867  0.9591  0.0223  1.2099
14807TIP3    H265913   6.007   5.915  12.819  0.3855  1.1811 -0.4055
14808TIP3   OH265914   0.209   1.363   4.418  0.1780 -0.8807  0.4110
14808TIP3    H165915   0.252   1.448   4.415  1.0822 -1.3552 -0.6348
14808TIP3    H265916   0.281   1.300   4.428 -0.3245 -1.6393 -0.6239
14809TIP3   OH265917   3.640   3.885   4.689 -0.1553 -0.5669 -0.9216
14809TIP3    H165918   3.623   3.880   4.783  0.6091  0.3001 -0.7148
14809TIP3    H265919   3.639   3.794   4.659  1.5453 -1.0394  0.3047
14810TIP3   OH265920   0.425   0.989  15.467  0.2071 -0.1017  0.4292
14810TIP3    H165921   0.459   0.934  15.537 -0.7468 -1.5414 -0.1915
14810TIP3    H265922   0.418   0.931  15.391 -0.7774  0.8800 -0.2782
14811TIP3   OH265923   5.329   4.312  12.572  0.4277  0.9017  0.3008
14811TIP3    H165924   5.274   4.389  12.556 -0.1991  0.1345 -1.5276
14811TIP3    H265925   5.416   4.340  12.546  0.4169  1.3298  0.7126
14812TIP3   OH265926   3.631   5.899   2.578 -0.8208 -0.3516  0.0430
14812TIP3    H165927   3.612   5.928   2.489  0.9999 -2.5957 -1.1926
14812TIP3    H265928   3.671   5.813   2.567  1.9590  0.3983  2.8217
14813TIP3   OH265929   2.266   6.495  15.867 -0.3424 -0.4351 -0.7046
14813TIP3    H165930   2.301   6.409  15.892 -1.3633  0.3683  4.7508
14813TIP3    H265931   2.172   6.480  15.857 -0.5388 -0.0083  0.3771
14814TIP3   OH265932   0.028   3.012  12.580  0.0402  0.8313  0.4517
14814TIP3    H165933   0.010   3.081  12.643 -1.0778  0.5670  0.4353
14814TIP3    H265934   0.076   2.945  12.630 -0.2988  0.8937  0.8628
14815TIP3   OH265935   0.992   3.876   0.117  0.3210  0.0797 -0.5173
14815TIP3    H165936   0.934   3.934   0.069  1.6583  1.1345 -0.9142
14815TIP3    H265937   0.949   3.863   0.202 -0.2140  1.2818 -0.5971
14816TIP3   OH265938   0.901   4.372  12.032  0.1963  0.0153  0.1414
14816TIP3    H165939   0.959   4.420  12.092 -1.8181  0.2882  2.0004
14816TIP3    H265940   0.906   4.421  11.950  0.5379  1.6446  1.0836
14817TIP3   OH265941   6.336   3.208   4.812  0.1316  0.4380 -0.3255
14817TIP3    H165942   6.403   3.268   4.778  0.0758 -0.0476 -1.3164
14817TIP3    H265943   6.361   3.193   4.903  1.5224  0.0447 -0.7581
14818TIP3   OH265944   3.890   6.261   1.135  0.8435 -0.6690  0.0020
14818TIP3    H165945   3.808   6.249   1.086  0.9147 -1.6500  0.0972
14818TIP3    H265946   3.917   6.172   1.158  1.5031 -0.2991  0.6972
14819TIP3   OH265947   4.251   1.265   1.004  0.3359 -0.3811 -0.3324
14819TIP3    H165948   4.167   1.224   1.027 -0.4396  1.6251  0.6561
14819TIP3    H265949   4.230   1.357   0.993  2.4761  0.2225  0.1781
14820TIP3   OH265950   0.774   1.016   2.375  0.0318 -0.2034 -0.7432
14820TIP3    H165951   0.864   0.987   2.361  0.5748  0.9726  0.0797
14820TIP3    H265952   0.740   0.957   2.442 -0.1955 -1.3272 -1.8114
14821TIP3   OH265953   1.582   2.315  12.340 -0.3698 -0.5626 -0.1385
14821TIP3    H165954   1.665   2.295  12.298 -0.1385  0.9647 -0.4744
14821TIP3    H265955   1.600   2.310  12.434 -0.0214 -0.7003 -0.2118
14822TIP3   OH265956   4.175   3.050   2.189  0.1713 -0.8393 -0.5365
14822TIP3    H165957   4.220   3.016   2.112  1.5163  1.1406 -0.6948
14822TIP3    H265958   4.245   3.068   2.252 -0.0660  3.3258 -1.1625
14823TIP3   OH265959   4.290   3.706   2.475  0.1456  0.3184  0.0962
14823TIP3    H165960   4.346   3.772   2.516 -0.2954  0.8875 -0.1937
14823TIP3    H265961   4.201   3.733   2.497 -0.1636  1.1966 -1.9924
14824TIP3   OH265962   4.311   1.118  11.203  0.0569 -0.0491  0.4842
14824TIP3    H165963   4.238   1.175  11.226  0.3366  0.0376  1.1681
14824TIP3    H265964   4.293   1.035  11.247 -1.1111 -1.0369 -1.6907
14825TIP3   OH265965   1.506   2.234   1.515 -0.3045  0.6269  0.2913
14825TIP3    H165966   1.497   2.242   1.420 -1.7888  0.0358  0.3642
14825TIP3    H265967   1.507   2.324   1.547 -2.3112  0.8146 -0.0930
14826TIP3   OH265968   4.701   2.772   6.071 -0.0230 -0.7575 -0.5866
14826TIP3    H165969   4.675   2.826   6.146 -0.2137  0.8437 -1.7394
14826TIP3    H265970   4.655   2.811   5.997  2.2248 -0.5770 -1.9865
14827TIP3   OH265971   5.253   5.430   1.728 -0.3250  0.3944  0.5016
14827TIP3    H165972   5.242   5.361   1.793  2.8711  1.0200  1.9033
14827TIP3    H265973   5.164   5.450   1.698 -1.6344 -1.9553  2.5049
14828TIP3   OH265974   3.145   5.055  16.133 -0.1804  0.1709  0.3083
14828TIP3    H165975   3.192   4.973  16.144 -1.0114 -0.5182 -0.9420
14828TIP3    H265976   3.128   5.060  16.039  0.5879  2.2072  0.2351
14829TIP3   OH265977   4.153   6.392   4.004 -0.7552  0.4125 -1.0003
14829TIP3    H165978   4.158   6.377   4.098  0.7546 -0.9101 -1.2483
14829TIP3    H265979   4.186   6.481   3.992 -2.8918  1.3994 -0.1533
14830TIP3   OH265980   2.389   2.446  14.217 -0.0680 -0.5551  0.0606
14830TIP3    H165981   2.314   2.395  14.248  0.0487 -0.9332 -0.2777
14830TIP3    H265982   2.364   2.537  14.233 -0.3282 -0.7076  0.5524
14831TIP3   OH265983   1.243   3.497   0.534 -0.3266  0.4488  0.5359
14831TIP3    H165984   1.191   3.508   0.454 -2.3536  1.4975  1.8948
14831TIP3    H265985   1.283   3.410   0.525  0.3878  0.9693 -2.0552
14832TIP3   OH265986   0.406   6.646  14.319 -0.0954 -0.1690  0.2282
14832TIP3    H165987   0.435   6.729  14.357 -1.9786  0.0386  1.3414
14832TIP3    H265988   0.433   6.580  14.382  0.7667 -0.3479 -0.3099
14833TIP3   OH265989   0.217   3.818   2.943 -0.1171 -0.2762 -0.2527
14833TIP3    H165990   0.190   3.767   3.020 -0.4363  1.0989  0.5891
14833TIP3    H265991   0.280   3.762   2.898 -0.0096 -1.1714  0.9534
14834TIP3   OH265992   6.047   6.775   6.428 -0.3784  0.4038  0.4187
14834TIP3    H165993   5.988   6.741   6.495  0.7539  1.9969  2.2959
14834TIP3    H265994   6.057   6.868   6.449 -1.0469  1.3357 -2.7888
14835TIP3   OH265995   0.503   4.481  14.682 -0.4643 -0.2547  0.0257
14835TIP3    H165996   0.571   4.526  14.732 -0.7159 -1.4917  1.5470
14835TIP3    H265997   0.467   4.548  14.624  0.1134  1.1352  1.2262
14836TIP3   OH265998   6.309   4.914  13.029  0.0426 -0.2774  0.9506
14836TIP3    H165999   6.272   4.828  13.046 -1.1417 -0.0647 -0.3456
14836TIP3    H266000   6.246   4.956  12.970  1.1082  1.0848  0.7215
14837TIP3   OH266001   5.101   3.883   1.289 -0.1924 -0.5690 -0.3816
14837TIP3    H166002   5.184   3.838   1.279 -0.3533 -1.0311  0.2401
14837TIP3    H266003   5.122   3.976   1.281  0.3578 -0.6930 -0.3851
14838TIP3   OH266004   3.399   1.488  11.422 -0.0520  0.6327  0.0130
14838TIP3    H166005   3.377   1.397  11.445 -0.8967  0.1743 -2.3404
14838TIP3    H266006   3.345   1.541  11.480  0.0519 -0.3505  1.0637
14839TIP3   OH266007   5.225   0.594  15.822  0.0760  0.0591  0.0615
14839TIP3    H166008   5.269   0.674  15.850 -2.8227  0.4525  4.5146
14839TIP3    H266009   5.187   0.615  15.737  0.0214  3.2325  0.7510
14840TIP3   OH266010   6.000   6.581   5.759  0.2366  0.1020  0.1422
14840TIP3    H166011   5.985   6.498   5.804  0.8142  0.3293  0.7718
14840TIP3    H266012   6.075   6.564   5.702  0.7885  0.3857  0.7860
14841TIP3   OH266013   0.090   2.990   1.331  0.4533 -0.6780 -0.4953
14841TIP3    H166014   0.113   3.027   1.417  2.6068 -0.0320 -1.2620
14841TIP3    H266015   0.115   2.898   1.338 -0.6123 -0.9398 -0.0275
14842TIP3   OH266016   6.501   2.816   1.893  0.5264  0.2158 -0.3397
14842TIP3    H166017   6.554   2.736   1.899  0.4059  0.1477 -0.1687
14842TIP3    H266018   6.454   2.807   1.810 -0.6334 -0.6073  0.3892
14843TIP3   OH266019   4.241   0.128  16.777  0.6687 -0.2052 -0.3423
14843TIP3    H166020   4.329   0.158  16.801  0.5456  1.3991 -1.7445
14843TIP3    H266021   4.231   0.045  16.823  2.5190  0.0738  0.6624
14844TIP3   OH266022   0.688   3.349   5.007  0.1826 -0.6414  0.1083
14844TIP3    H166023   0.724   3.425   5.051 -0.4250 -0.3683  0.1438
14844TIP3    H266024   0.596   3.347   5.033  0.3096 -1.7009  0.5451
14845TIP3   OH266025   4.951   1.828  16.477 -0.3870  0.5576  0.3954
14845TIP3    H166026   5.017   1.795  16.538 -0.4734 -2.4599 -0.9892
14845TIP3    H266027   4.997   1.894  16.424  0.6927  0.5342  1.2705
14846TIP3   OH266028   0.049   4.163   2.079 -0.0773 -0.2981 -0.7232
14846TIP3    H166029  -0.013   4.093   2.103  0.4664 -0.6102 -0.2064
14846TIP3    H266030   0.056   4.217   2.158 -2.2115  1.7026 -1.7672
14847TIP3   OH266031   0.294   4.482   0.379  0.6616 -0.3631  0.0424
14847TIP3    H166032   0.243   4.563   0.376  1.7279  0.3648 -3.7820
14847TIP3    H266033   0.228   4.413   0.387 -0.3587  0.7726  2.0596
14848TIP3   OH266034   3.149   2.487   5.783  0.0459  0.1558 -0.2609
14848TIP3    H166035   3.118   2.548   5.716  0.9178  1.4432  0.4583
14848TIP3    H266036   3.221   2.440   5.742  0.1920  0.5132 -0.4143
14849TIP3   OH266037   2.997   5.312   4.310  0.3110  0.3681  0.8794
14849TIP3    H166038   3.066   5.371   4.340  1.1307 -0.4985  0.7245
14849TIP3    H266039   3.033   5.224   4.322 -0.5533 -0.0787  0.2815
14850TIP3   OH266040   3.611   0.037   2.166 -0.3253  0.3714  0.0420
14850TIP3    H166041   3.566  -0.043   2.138  0.4415  0.2030 -0.7077
14850TIP3    H266042   3.699   0.031   2.130  0.5140  0.4562  1.9288
14851TIP3   OH266043   1.783   3.158   1.825 -0.5978  0.3452 -0.1599
14851TIP3    H166044   1.692   3.129   1.825 -0.7903  0.7165  2.1377
14851TIP3    H266045   1.833   3.079   1.841 -0.8347  0.5605  2.0414
14852TIP3   OH266046   5.406   2.992   5.664 -0.5569  0.5069  0.0935
14852TIP3    H166047   5.359   2.977   5.582 -2.0615 -0.7963  1.1164
14852TIP3    H266048   5.498   2.977   5.642 -0.7566  1.5431 -1.6339
14853TIP3   OH266049   4.249   4.630  13.450 -0.2482  0.0784 -0.6900
14853TIP3    H166050   4.336   4.591  13.464 -0.7919 -0.6110  1.1153
14853TIP3    H266051   4.238   4.630  13.355  2.2086  1.3297 -1.0806
14854TIP3   OH266052   5.089   1.871  12.446  0.4759  0.2719 -0.0135
14854TIP3    H166053   5.039   1.876  12.527  1.0975  0.8513  0.3517
14854TIP3    H266054   5.160   1.935  12.458  0.3049  0.7155 -1.2025
14855TIP3   OH266055   4.510   6.658  15.631 -0.7403 -0.3113 -0.1893
14855TIP3    H166056   4.561   6.740  15.625 -0.4981 -0.2432  2.0503
14855TIP3    H266057   4.510   6.624  15.542 -0.6184  1.9882 -1.1415
14856TIP3   OH266058   0.792   0.826  11.291  0.6199 -0.9638 -0.3911
14856TIP3    H166059   0.777   0.857  11.202  0.3321  0.0751 -0.0057
14856TIP3    H266060   0.709   0.843  11.337  1.6421  1.3658  0.8171
14857TIP3   OH266061   1.770   4.125  12.960 -0.2739  0.2251 -0.3241
14857TIP3    H166062   1.861   4.118  12.988 -0.5536 -1.0373  0.3151
14857TIP3    H266063   1.767   4.084  12.874 -0.3824 -0.4810  0.0082
14858TIP3   OH266064   2.929   1.713   5.523  0.1258  0.2645  0.1800
14858TIP3    H166065   2.997   1.780   5.515 -0.5715  0.7447 -3.7728
14858TIP3    H266066   2.848   1.763   5.534 -0.1112 -0.0477 -0.1457
14859TIP3   OH266067   4.702   6.341   4.319  0.2913  0.1104 -0.0093
14859TIP3    H166068   4.631   6.377   4.266  0.3589  1.2531  0.6562
14859TIP3    H266069   4.662   6.268   4.367 -0.6510  1.2006  0.9195
14860TIP3   OH266070   3.218   0.452  13.850  0.0014 -0.1863  0.4000
14860TIP3    H166071   3.208   0.539  13.887  1.2981 -0.0582  0.5152
14860TIP3    H266072   3.134   0.408  13.866 -0.0807  0.4739  1.8583
14861TIP3   OH266073   6.358   6.118   2.476 -0.2810 -0.3320  0.3903
14861TIP3    H166074   6.432   6.146   2.423 -0.7617  1.0927  0.4283
14861TIP3    H266075   6.308   6.060   2.419  0.4318 -0.6639  0.0932
14862TIP3   OH266076   4.968   3.267   1.178 -0.2304  0.6194  0.5086
14862TIP3    H166077   4.949   3.334   1.112 -1.2735 -0.1379  0.0135
14862TIP3    H266078   4.895   3.274   1.241 -0.6769 -0.4263  0.1296
14863TIP3   OH266079   3.543   3.973   0.108 -0.1231  0.2397  0.0130
14863TIP3    H166080   3.611   3.914   0.140 -0.7293 -0.6365 -0.3055
14863TIP3    H266081   3.592   4.047   0.071  0.6465 -0.2391  0.0473
14864TIP3   OH266082   1.773   1.990   3.330 -0.1431 -0.3264  0.2018
14864TIP3    H166083   1.756   1.926   3.399 -0.7152 -2.0959 -1.4828
14864TIP3    H266084   1.716   1.963   3.258  0.9515  1.0020 -1.2281
14865TIP3   OH266085   4.150   5.863  11.763  0.1493  1.1150  0.3689
14865TIP3    H166086   4.095   5.786  11.775  0.7340  0.1934 -2.1281
14865TIP3    H266087   4.210   5.863  11.838 -0.8997  0.0884  1.2412
14866TIP3   OH266088   5.989   3.950   1.154 -0.3501  0.2589 -0.3261
14866TIP3    H166089   6.026   3.884   1.096 -1.0252  0.4935 -1.0361
14866TIP3    H266090   5.948   4.013   1.096 -1.2357  0.3826  0.4088
14867TIP3   OH266091   3.765   2.842   2.921  0.2424  0.2539  0.0676
14867TIP3    H166092   3.747   2.823   3.013  1.7999 -0.7064  0.2215
14867TIP3    H266093   3.702   2.789   2.872 -1.0792  1.3332  0.5669
14868TIP3   OH266094   0.778   6.104   0.077  0.2454  0.3688 -0.0481
14868TIP3    H166095   0.862   6.109   0.123  0.5207  1.7091 -0.6513
14868TIP3    H266096   0.714   6.136   0.140  0.4986  1.3493 -0.2704
14869TIP3   OH266097   2.075   1.510  11.174 -0.4593  0.2297  0.8155
14869TIP3    H166098   2.018   1.575  11.216 -0.2416  0.2126  1.1412
14869TIP3    H266099   2.079   1.438  11.236 -0.5757 -0.0321  0.5199
14870TIP3   OH266100   0.265   5.750   0.796 -0.2031  0.2750  0.5943
14870TIP3    H166101   0.198   5.794   0.849  0.7321 -0.3462  2.3886
14870TIP3    H266102   0.274   5.664   0.836  2.0581  0.5369  0.7918
14871TIP3   OH266103   3.300   2.013   1.741 -0.1201  0.6293 -0.1939
14871TIP3    H166104   3.353   2.091   1.726 -0.3237  0.5602 -1.3424
14871TIP3    H266105   3.332   1.949   1.678 -0.6220  0.1097  0.0690
14872TIP3   OH266106   1.838   0.959  15.037 -0.1059 -0.3072  0.1137
14872TIP3    H166107   1.784   0.965  14.958  0.1805  0.6547 -0.0309
14872TIP3    H266108   1.920   0.919  15.007 -0.6891 -1.6968  0.3184
14873TIP3   OH266109   1.830   1.686  13.147 -0.2691 -0.3884  0.7639
14873TIP3    H166110   1.759   1.678  13.210 -0.3087 -0.5811  0.6954
14873TIP3    H266111   1.879   1.604  13.156 -1.7753 -1.6162 -1.2881
14874TIP3   OH266112   3.637   0.215   0.828 -0.0768  0.1506 -0.1275
14874TIP3    H166113   3.708   0.229   0.765 -1.4277 -0.6669 -1.9444
14874TIP3    H266114   3.651   0.281   0.896  1.2160  1.3710 -1.5093
14875TIP3   OH266115   2.878   5.173   2.924  0.4284 -0.2757 -0.2351
14875TIP3    H166116   2.898   5.188   2.831  0.8347  0.8671  0.0144
14875TIP3    H266117   2.841   5.085   2.927 -1.8959  0.5528 -1.8359
14876TIP3   OH266118   5.583   5.758  16.174  0.6123 -0.1212  0.0051
14876TIP3    H166119   5.596   5.716  16.089 -1.5137 -0.8375 -0.0441
14876TIP3    H266120   5.602   5.689  16.237 -0.2140 -0.3526  0.0116
14877TIP3   OH266121   5.335   6.803   5.747  0.2238 -0.3336  0.1004
14877TIP3    H166122   5.340   6.880   5.690 -3.4945 -0.7858 -1.1104
14877TIP3    H266123   5.342   6.729   5.687 -1.8121 -0.8316  0.4145
14878TIP3   OH266124   5.635   2.139  13.944  0.0315  0.0070 -0.0057
14878TIP3    H166125   5.710   2.134  14.003  0.6231 -0.5969 -0.7982
14878TIP3    H266126   5.656   2.212  13.885  0.0844 -0.2856 -0.3498
14879TIP3   OH266127   2.695   2.603  10.463  0.5478 -0.3589 -0.0557
14879TIP3    H166128   2.769   2.651  10.426  1.5764 -1.8789 -0.0395
14879TIP3    H266129   2.733   2.547  10.531 -0.7661 -0.4536  0.6454
14880TIP3   OH266130   1.481   4.177  15.131  0.3563 -0.1758 -0.2827
14880TIP3    H166131   1.462   4.097  15.180  1.1216  0.2275  0.6870
14880TIP3    H266132   1.570   4.200  15.156  0.7306  0.1027 -1.7926
14881TIP3   OH266133   4.337   0.757   3.975  0.8352  0.4880 -0.7234
14881TIP3    H166134   4.350   0.795   4.061  1.7944  0.9072 -1.0348
14881TIP3    H266135   4.375   0.669   3.981 -3.0900 -1.3706  0.5780
14882TIP3   OH266136   3.467   6.120  12.067 -0.2422 -0.3050 -1.0253
14882TIP3    H166137   3.535   6.147  12.004 -0.9637  0.8920 -1.3305
14882TIP3    H266138   3.406   6.194  12.068 -0.4271 -0.4569  0.8352
14883TIP3   OH266139   6.386   0.631   2.782  0.6380 -0.2865 -0.0082
14883TIP3    H166140   6.396   0.570   2.709  1.8374  0.0851 -0.1829
14883TIP3    H266141   6.358   0.713   2.741  2.4329  0.2496 -0.2181
14884TIP3   OH266142   5.933   2.408  11.849 -0.0968  0.4975 -0.4135
14884TIP3    H166143   5.995   2.450  11.789 -0.2961 -0.3368 -1.2290
14884TIP3    H266144   5.915   2.323  11.808 -0.5994  0.1072  0.5992
14885TIP3   OH266145   0.679   6.251   0.984  0.2503  0.2760 -0.5887
14885TIP3    H166146   0.695   6.168   1.027 -1.3603 -0.0898 -0.6304
14885TIP3    H266147   0.607   6.291   1.034 -0.0414  0.9198 -1.4926
14886TIP3   OH266148   0.596   6.351   2.828 -0.0295  0.4425 -0.9449
14886TIP3    H166149   0.676   6.397   2.803  0.3372 -1.2129 -3.0571
14886TIP3    H266150   0.534   6.371   2.757 -0.9317  0.2998 -0.2179
14887TIP3   OH266151   5.454   6.007  13.541 -0.3701 -0.8171 -0.4118
14887TIP3    H166152   5.444   6.069  13.468  0.0535  0.4661  0.5716
14887TIP3    H266153   5.530   5.954  13.519 -0.8083 -1.0653 -1.3344
14888TIP3   OH266154   2.330   3.661  14.005 -0.0902 -0.0127  0.2633
14888TIP3    H166155   2.277   3.704  14.072 -0.0279  0.3177  0.1036
14888TIP3    H266156   2.396   3.612  14.054 -0.0484  0.2231  0.4414
14889TIP3   OH266157   2.900   2.061   2.063  0.6591 -0.4347  0.4962
14889TIP3    H166158   2.856   2.093   1.985  1.0354 -1.4927 -0.1723
14889TIP3    H266159   2.874   1.969   2.070  0.8317 -0.4203  1.4730
14890TIP3   OH266160   2.217   4.331  15.892  0.1371  0.3258  0.3981
14890TIP3    H166161   2.201   4.238  15.905  0.7900  0.0615 -0.5637
14890TIP3    H266162   2.296   4.334  15.838  0.6701  1.4607  1.2043
14891TIP3   OH266163   5.857   6.384  15.029  0.1041  0.5124 -0.1970
14891TIP3    H166164   5.807   6.327  14.971 -0.2246 -0.3182  0.8568
14891TIP3    H266165   5.795   6.452  15.055  0.1077  0.5997 -0.4125
14892TIP3   OH266166   5.023   6.541   2.766  0.3895  0.0667 -0.0513
14892TIP3    H166167   4.952   6.587   2.811  0.0932  0.6758 -1.1146
14892TIP3    H266168   5.051   6.474   2.828 -1.1746 -0.2462  0.3544
14893TIP3   OH266169   3.483   2.968  12.287  0.0647 -0.1522  0.4175
14893TIP3    H166170   3.495   3.054  12.328 -1.2872 -0.4475  1.5224
14893TIP3    H266171   3.485   2.907  12.361  0.7861 -1.0516 -0.3337
14894TIP3   OH266172   1.595   2.904   3.133 -0.4488 -0.5807  0.1404
14894TIP3    H166173   1.588   2.889   3.038  0.6173  0.4119 -0.1191
14894TIP3    H266174   1.517   2.862   3.170 -2.5185  1.5926 -1.4627
14895TIP3   OH266175   4.781   2.263   1.211 -0.0238 -0.2625  0.1674
14895TIP3    H166176   4.758   2.271   1.304  1.3681 -0.3749  0.5512
14895TIP3    H266177   4.822   2.176   1.205  0.4911  0.0199 -0.4151
14896TIP3   OH266178   1.931   5.579   0.469 -0.2791  0.6908  0.3204
14896TIP3    H166179   1.943   5.484   0.465 -0.4216  0.6885 -0.1490
14896TIP3    H266180   1.837   5.592   0.469 -0.2593  0.8426  0.0410
14897TIP3   OH266181   1.276   5.644  14.414 -0.4441  0.1312 -0.4025
14897TIP3    H166182   1.270   5.560  14.369 -0.0417 -0.6345  0.9391
14897TIP3    H266183   1.264   5.709  14.344 -0.8538 -1.0218 -1.4451
14898TIP3   OH266184   0.931   4.230  14.289 -0.7341  0.2356  0.2998
14898TIP3    H166185   1.024   4.211  14.304 -0.9688 -0.0459  1.4589
14898TIP3    H266186   0.904   4.164  14.226 -0.6519 -1.0658  1.5702
14899TIP3   OH266187   6.294   0.582   1.644 -0.1970  0.3044 -0.0059
14899TIP3    H166188   6.276   0.626   1.561  0.5626  1.8188  0.6013
14899TIP3    H266189   6.219   0.522   1.656 -0.4931  0.3221 -1.5818
14900TIP3   OH266190   6.377   3.594   5.079  0.2307 -0.4277 -0.1379
14900TIP3    H166191   6.455   3.606   5.026 -1.1322 -2.4136 -2.8407
14900TIP3    H266192   6.381   3.502   5.107 -0.6434 -0.2819  0.5191
14901TIP3   OH266193   4.725   6.306   1.207  0.3607  0.4514  0.6201
14901TIP3    H166194   4.793   6.305   1.140  0.5473 -1.6465  0.7911
14901TIP3    H266195   4.760   6.363   1.276  1.0111  1.0651 -0.2054
14902TIP3   OH266196   6.241   3.589  14.615 -0.1434 -0.1548  1.3270
14902TIP3    H166197   6.199   3.659  14.665  3.2903  1.7047  1.9132
14902TIP3    H266198   6.298   3.635  14.553  1.1000 -2.4454  0.6760
14903TIP3   OH266199   4.237   4.559  15.125  0.0116 -0.1906 -0.3755
14903TIP3    H166200   4.242   4.596  15.037  0.7779  0.3692 -0.1100
14903TIP3    H266201   4.167   4.608  15.167 -0.6284 -0.7322 -0.7857
14904TIP3   OH266202   4.151   4.986   1.419 -0.7959 -0.4999 -0.2904
14904TIP3    H166203   4.130   4.956   1.330  0.0788 -0.5688 -0.4807
14904TIP3    H266204   4.070   5.026   1.450 -0.3473  2.2013 -2.1976
14905TIP3   OH266205   0.829   2.535   5.686  0.4530  0.1751  0.0682
14905TIP3    H166206   0.846   2.500   5.598 -1.8593  0.0187 -0.3677
14905TIP3    H266207   0.864   2.624   5.683  1.4165 -0.1970 -0.6144
14906TIP3   OH266208   3.170   4.022  13.251 -0.4259 -0.3349 -0.2631
14906TIP3    H166209   3.080   4.054  13.255 -0.1382  0.8667 -2.0384
14906TIP3    H266210   3.221   4.088  13.298 -0.4880 -1.1927  1.0451
14907TIP3   OH266211   0.769   0.002   3.329 -0.5791  0.1128 -0.4549
14907TIP3    H166212   0.800   0.090   3.310 -1.1997  0.4792  0.1658
14907TIP3    H266213   0.830  -0.056   3.284 -0.2795  0.8634 -1.0322
14908TIP3   OH266214   6.332   0.189   0.475  0.0500 -0.1385  0.0761
14908TIP3    H166215   6.403   0.251   0.458  0.5783 -1.0052 -0.9672
14908TIP3    H266216   6.254   0.231   0.440  0.5280 -0.3530 -1.3045
14909TIP3   OH266217   3.640   4.569  17.208 -0.5543  0.5279 -0.1437
14909TIP3    H166218   3.618   4.477  17.223 -0.2976  0.6598  1.2296
14909TIP3    H266219   3.566   4.604  17.159 -1.1970 -0.1454  0.3209
14910TIP3   OH266220   0.389   6.100  14.564 -0.3351 -0.2468  0.0141
14910TIP3    H166221   0.382   6.054  14.480  0.5006  0.1755 -0.2996
14910TIP3    H266222   0.483   6.117  14.574 -0.4042 -0.5051  1.1595
14911TIP3   OH266223   0.361   3.017   1.745 -0.4619  0.4392 -0.0696
14911TIP3    H166224   0.298   3.080   1.780 -0.9188  0.0205 -0.1249
14911TIP3    H266225   0.421   3.070   1.692 -0.0222  1.0183  0.9724
14912TIP3   OH266226   0.672   2.140   5.363  0.2340  0.2007  0.2047
14912TIP3    H166227   0.613   2.214   5.376  0.5856  0.4928  0.1658
14912TIP3    H266228   0.654   2.110   5.274  2.2674  2.2375 -1.0016
14913TIP3   OH266229   4.518   2.737   3.544 -0.0543 -0.1565 -0.2169
14913TIP3    H166230   4.487   2.821   3.510  1.9151  0.2716 -1.1055
14913TIP3    H266231   4.481   2.731   3.632 -0.3211  1.6061 -0.1759
14914TIP3   OH266232   3.356   1.430   1.440 -0.2690 -0.3919 -0.2406
14914TIP3    H166233   3.392   1.433   1.352 -0.4270 -0.2054 -0.2978
14914TIP3    H266234   3.370   1.339   1.468 -0.6102 -0.5629 -0.6194
14915TIP3   OH266235   0.110   2.636  12.598 -0.4816  0.5487 -0.1815
14915TIP3    H166236   0.199   2.618  12.568 -0.6648 -0.5173 -0.1261
14915TIP3    H266237   0.115   2.724  12.636  1.0827 -0.2838  1.7812
14916TIP3   OH266238   5.753   1.141   5.685  0.6367 -0.0715  0.3957
14916TIP3    H166239   5.814   1.196   5.733 -1.7328  2.4117  0.7479
14916TIP3    H266240   5.693   1.106   5.751 -0.5337  0.5408 -0.2970
14917TIP3   OH266241   6.334   6.702  17.184 -0.2376  0.0019 -0.0415
14917TIP3    H166242   6.335   6.675  17.092 -1.3787  0.6337 -0.2503
14917TIP3    H266243   6.304   6.624  17.231  0.5635 -0.3934 -0.1664
14918TIP3   OH266244   4.391   5.625  15.082 -0.0212 -0.0360 -0.3675
14918TIP3    H166245   4.479   5.601  15.111  0.2810  0.6600 -0.7060
14918TIP3    H266246   4.334   5.564  15.128  0.5783  0.0158  0.4662
14919TIP3   OH266247   0.800   4.327   6.210  0.4460  0.0727 -0.6088
14919TIP3    H166248   0.709   4.338   6.185  0.2438  0.9321  0.4343
14919TIP3    H266249   0.849   4.340   6.128 -0.3658 -0.9160 -1.2808
14920TIP3   OH266250   2.815   4.513   6.480 -0.9826  0.2759 -0.1777
14920TIP3    H166251   2.883   4.517   6.413 -0.3322 -1.3486  0.3380
14920TIP3    H266252   2.773   4.428   6.467 -1.4469  0.3167  0.9020
14921TIP3   OH266253   3.001   5.952  13.873  0.0903 -0.7348  0.5595
14921TIP3    H166254   2.972   5.941  13.963 -0.0785 -1.5662  0.4079
14921TIP3    H266255   3.062   5.880  13.859  2.3722  1.0230  0.9104
14922TIP3   OH266256   3.183   4.737   5.386 -0.2337  0.1489 -0.3373
14922TIP3    H166257   3.129   4.805   5.347 -2.1475 -0.1612  1.5759
14922TIP3    H266258   3.236   4.783   5.451 -0.0574  0.0974 -0.4446
14923TIP3   OH266259   3.433   1.630  14.458 -0.1791 -0.0767 -0.1368
14923TIP3    H166260   3.476   1.634  14.372 -0.6978 -0.0177 -0.3992
14923TIP3    H266261   3.504   1.615  14.520  0.3113  0.7896 -0.4757
14924TIP3   OH266262   2.394   1.890  12.856  0.3505 -0.0474  0.1510
14924TIP3    H166263   2.379   1.963  12.916 -1.5244 -0.7300  0.6079
14924TIP3    H266264   2.439   1.928  12.782 -1.1357  1.7500  0.0901
14925TIP3   OH266265   2.010   3.631   5.269  0.3545 -0.0167 -0.1152
14925TIP3    H166266   2.079   3.575   5.303  0.9273  0.2825 -0.7475
14925TIP3    H266267   2.030   3.639   5.176 -0.3933  0.2799 -0.2553
14926TIP3   OH266268   4.648   5.237  14.768  1.1462  0.4656  0.1847
14926TIP3    H166269   4.564   5.257  14.809  0.5695  1.5273 -1.4352
14926TIP3    H266270   4.712   5.287  14.819  0.6445  0.5820  0.7126
14927TIP3   OH266271   0.800   1.346  16.953  0.1545  0.0849 -0.3187
14927TIP3    H166272   0.748   1.266  16.944  0.5284 -0.2312  0.2803
14927TIP3    H266273   0.870   1.336  16.889  1.8773 -1.4182  1.6964
14928TIP3   OH266274   5.493   2.897   2.923 -0.5599  0.2864 -1.2279
14928TIP3    H166275   5.414   2.929   2.966  0.4890  3.4128 -1.3723
14928TIP3    H266276   5.471   2.897   2.830 -0.7383  0.0398 -1.1862
14929TIP3   OH266277   4.079   6.390   2.778  0.0615 -0.1772 -0.1978
14929TIP3    H166278   4.153   6.437   2.819 -0.6048 -0.2563  1.1657
14929TIP3    H266279   4.120   6.323   2.724  1.0166  1.0918 -1.1090
14930TIP3   OH266280   2.786   2.450  13.990  0.5058  0.6898  0.0164
14930TIP3    H166281   2.828   2.420  13.909 -0.1303 -0.4876  0.1109
14930TIP3    H266282   2.707   2.496  13.960  1.1050  1.6994 -0.0884
14931TIP3   OH266283   0.510   6.564   4.195 -0.1163  0.7072  0.2752
14931TIP3    H166284   0.563   6.643   4.183  0.9510  0.0770  0.7269
14931TIP3    H266285   0.428   6.583   4.149  0.6006  1.5959 -0.6829
14932TIP3   OH266286   1.579   1.471  17.273 -0.0519 -0.1237 -0.5881
14932TIP3    H166287   1.521   1.440  17.203 -3.0509  1.2008  1.0844
14932TIP3    H266288   1.554   1.419  17.349  2.8802 -1.2754 -0.2773
14933TIP3   OH266289   0.919   4.981   2.237  0.6374 -0.1497  0.1153
14933TIP3    H166290   0.909   4.915   2.305 -0.0002 -0.5228 -0.3273
14933TIP3    H266291   0.913   5.065   2.283 -3.2084 -0.2734  0.1995
14934TIP3   OH266292   5.348   3.817  16.172  0.0982 -0.3143  0.0895
14934TIP3    H166293   5.279   3.804  16.237 -0.7476  0.9945 -0.5071
14934TIP3    H266294   5.415   3.753  16.195 -1.2379 -1.5283  0.7785
14935TIP3   OH266295   2.892   4.668   0.799 -0.5258  0.0130 -0.2863
14935TIP3    H166296   2.854   4.691   0.715  0.0808  0.5209 -0.4293
14935TIP3    H266297   2.919   4.752   0.837 -0.3056 -0.2598  0.1726
14936TIP3   OH266298   0.713   3.353   4.618  0.6043  0.4441 -0.3719
14936TIP3    H166299   0.774   3.366   4.691  0.4164 -1.8939  0.2744
14936TIP3    H266300   0.747   3.277   4.571 -0.0733  1.0412 -1.9005
14937TIP3   OH266301   3.650   3.416   4.375 -0.2694 -0.2407  0.7241
14937TIP3    H166302   3.721   3.351   4.374  0.0102 -0.0279  2.7384
14937TIP3    H266303   3.694   3.498   4.399 -0.8165  0.4752 -0.6174
14938TIP3   OH266304   3.927   0.653  17.165 -0.4021 -0.4797 -0.2803
14938TIP3    H166305   3.916   0.706  17.086 -1.6833  0.8422  0.7402
14938TIP3    H266306   4.020   0.659  17.185 -0.5763  1.8527  0.0790
14939TIP3   OH266307   6.538   3.329  16.864 -0.1726  0.0326 -0.0566
14939TIP3    H166308   6.535   3.393  16.936  0.1198 -0.6505  0.5746
14939TIP3    H266309   6.588   3.373  16.795  1.3379 -0.0676  0.9357
14940TIP3   OH266310   0.801   4.143   0.353  0.0574  0.4595 -0.7123
14940TIP3    H166311   0.713   4.140   0.392 -0.5853 -0.1764 -2.1443
14940TIP3    H266312   0.859   4.151   0.428 -1.1061 -1.1034  0.4497
14941TIP3   OH266313   1.851   6.513  12.410  1.2239 -0.3897 -0.5834
14941TIP3    H166314   1.808   6.566  12.476  1.1713 -0.1451 -0.8128
14941TIP3    H266315   1.918   6.570  12.373  2.1314 -0.9516  0.1595
14942TIP3   OH266316   5.212   3.764  15.678  0.9520  0.4193  0.2260
14942TIP3    H166317   5.128   3.719  15.677  0.9182  0.3467  2.3180
14942TIP3    H266318   5.255   3.732  15.758  3.7278 -0.9194 -1.6578
14943TIP3   OH266319   0.460   1.196  13.900  0.5848  0.5775 -0.4709
14943TIP3    H166320   0.460   1.290  13.882  1.4073  1.0539  1.6336
14943TIP3    H266321   0.383   1.183  13.955  0.0883 -0.1210 -1.3259
14944TIP3   OH266322   5.685   1.334  11.407 -0.2650  0.8059  0.0929
14944TIP3    H166323   5.767   1.332  11.456  0.9139  3.0403 -1.6103
14944TIP3    H266324   5.706   1.290  11.324 -1.7880 -1.5242  0.8244
14945TIP3   OH266325   4.364   5.237  15.620  0.3815 -0.1250  0.9418
14945TIP3    H166326   4.374   5.325  15.656 -2.2024  1.7030 -2.1475
14945TIP3    H266327   4.279   5.207  15.653 -2.1833  1.7108 -3.1793
14946TIP3   OH266328   2.658   3.074   0.443  0.1029  0.3838  0.7903
14946TIP3    H166329   2.666   3.113   0.357  0.3252 -1.7093 -0.2062
14946TIP3    H266330   2.746   3.079   0.480  0.6446 -1.0364 -0.2224
14947TIP3   OH266331   4.902   2.284   5.810 -0.0474 -0.0495 -0.0014
14947TIP3    H166332   4.829   2.278   5.748  0.2712 -0.2975 -0.3527
14947TIP3    H266333   4.898   2.375   5.842 -0.2057  0.0862 -0.3943
14948TIP3   OH266334   5.992   5.656   0.612 -0.1050  0.7711  0.2919
14948TIP3    H166335   5.947   5.608   0.681  0.9592  1.2240  1.3454
14948TIP3    H266336   5.985   5.748   0.638  0.6890  0.9142  0.0308
14949TIP3   OH266337   1.522   0.585   3.902 -0.2496  0.6760 -0.0819
14949TIP3    H166338   1.463   0.615   3.971  0.4243  0.6038  0.5440
14949TIP3    H266339   1.502   0.492   3.892  1.0205  0.2008  1.4630
14950TIP3   OH266340   4.614   1.554   4.343 -0.2390  0.6091  0.2546
14950TIP3    H166341   4.653   1.614   4.407  1.1369 -0.0209  0.0485
14950TIP3    H266342   4.656   1.576   4.260 -0.3854 -0.0464  0.0025
14951TIP3   OH266343   3.631   0.860  12.801  0.0008  0.3490 -0.0352
14951TIP3    H166344   3.695   0.897  12.740  0.6269 -0.1334  0.3230
14951TIP3    H266345   3.681   0.840  12.880 -0.1419 -1.8335 -0.4142
14952TIP3   OH266346   4.659   3.513   4.309 -0.2374  0.0515  0.6886
14952TIP3    H166347   4.737   3.465   4.336 -1.0783 -2.5518 -1.0834
14952TIP3    H266348   4.624   3.549   4.390  1.8211 -0.2154  1.7596
14953TIP3   OH266349   6.418   6.176  12.947  0.8211 -0.1932 -0.2944
14953TIP3    H166350   6.391   6.217  12.866 -0.7575  0.9283  0.7407
14953TIP3    H266351   6.466   6.098  12.920 -1.3303 -0.9152 -2.2723
14954TIP3   OH266352   0.499   4.961  11.266 -0.4798 -0.1310  0.0235
14954TIP3    H166353   0.443   4.917  11.203 -1.4356  0.1965  0.6251
14954TIP3    H266354   0.440   4.988  11.337  0.5438 -0.4432  1.0354
14955TIP3   OH266355   3.313   3.771   5.041  0.0368 -0.0658 -0.5041
14955TIP3    H166356   3.234   3.733   5.079 -0.9993  0.6170 -1.8488
14955TIP3    H266357   3.343   3.835   5.106 -0.1471 -0.7763  0.2917
14956TIP3   OH266358   6.214   4.212   2.596  0.0668 -0.1768  0.0280
14956TIP3    H166359   6.293   4.161   2.581 -0.6036 -0.9811 -0.8596
14956TIP3    H266360   6.240   4.278   2.660  0.5707 -2.5586  2.4492
14957TIP3   OH266361   3.451   1.485   0.594  0.1945  0.0770 -0.0085
14957TIP3    H166362   3.466   1.547   0.522 -1.3973 -0.1066 -0.5514
14957TIP3    H266363   3.450   1.540   0.673 -1.9782  0.9470 -0.5574
14958TIP3   OH266364   6.472   1.201   1.979 -0.5494  0.3623 -0.0252
14958TIP3    H166365   6.438   1.289   1.967  1.0102  1.2697  1.6842
14958TIP3    H266366   6.514   1.179   1.896 -1.0247  1.1870 -0.4889
14959TIP3   OH266367   4.061   2.885  14.876  0.1981 -0.0922 -0.0246
14959TIP3    H166368   3.973   2.887  14.838 -0.5848  1.1496  1.6781
14959TIP3    H266369   4.074   2.794  14.901 -1.6021  0.0368  1.7159
14960TIP3   OH266370   6.813   6.107   1.949 -0.5724  0.4396 -0.3265
14960TIP3    H166371   6.887   6.125   1.892 -0.2509 -0.0599 -0.0763
14960TIP3    H266372   6.786   6.193   1.981 -0.2367  0.6441 -0.5882
14961TIP3   OH266373   2.774   0.126  15.680  0.2114  0.2962  0.0733
14961TIP3    H166374   2.815   0.095  15.761 -2.6045 -0.5546  1.2944
14961TIP3    H266375   2.745   0.215  15.700  1.7807  1.1009 -0.9646
14962TIP3   OH266376   6.790   0.380   5.698 -0.0703  0.8371  0.0994
14962TIP3    H166377   6.830   0.295   5.677 -0.0466  0.2522  2.2630
14962TIP3    H266378   6.848   0.444   5.657 -0.1744 -0.1560 -1.7307
14963TIP3   OH266379   0.288   5.135  16.874 -0.0141 -0.3022 -0.7405
14963TIP3    H166380   0.326   5.211  16.918 -1.1572 -0.3201  0.3483
14963TIP3    H266381   0.224   5.171  16.813 -0.1278 -0.3607 -0.6580
14964TIP3   OH266382   2.001   5.205   2.599 -0.3487 -0.4688 -0.3351
14964TIP3    H166383   1.979   5.178   2.510 -2.4710 -1.2951  0.3675
14964TIP3    H266384   1.979   5.129   2.653  1.9295 -0.3757  0.8128
14965TIP3   OH266385   5.077   6.071  12.529  0.2536  0.4972 -0.3185
14965TIP3    H166386   5.074   6.085  12.435 -0.1080  1.3981 -0.1892
14965TIP3    H266387   5.085   6.159  12.566 -1.2846  0.3183  0.5477
14966TIP3   OH266388   1.006   0.794  13.402  0.1739  0.0802 -0.1275
14966TIP3    H166389   1.004   0.866  13.338 -0.2407 -0.0387 -0.2526
14966TIP3    H266390   1.007   0.714  13.348  1.7824 -0.0124 -0.0098
14967TIP3   OH266391   3.001   3.989  13.932 -0.4648 -0.3710 -0.4498
14967TIP3    H166392   2.920   4.023  13.894 -0.5383 -0.4009 -0.3202
14967TIP3    H266393   3.005   4.027  14.020 -0.9520 -1.3085 -0.0049
14968TIP3   OH266394   6.594   2.091   0.114 -0.3786  0.0568  0.0071
14968TIP3    H166395   6.508   2.051   0.127 -0.8131  0.9168 -0.1314
14968TIP3    H266396   6.575   2.182   0.089  0.5121  1.5490  3.8917
14969TIP3   OH266397   5.650   2.558   5.062  0.0909 -0.3480  0.3430
14969TIP3    H166398   5.745   2.564   5.050 -0.0774  0.2763 -0.8416
14969TIP3    H266399   5.637   2.567   5.156  1.2280 -0.8910  0.5755
14970TIP3   OH266400   4.351   3.304  14.815 -0.5677 -0.4646  0.4978
14970TIP3    H166401   4.391   3.347  14.891  2.1898  0.4670 -1.3202
14970TIP3    H266402   4.286   3.367  14.785  0.1935  0.3781  0.5628
14971TIP3   OH266403   5.710   1.791  14.487  0.0120  0.0402  0.2793
14971TIP3    H166404   5.661   1.830  14.414  2.4905  0.0857 -1.4915
14971TIP3    H266405   5.725   1.701  14.460  0.9527  0.0570  0.7219
14972TIP3   OH266406   6.192   6.673   2.294 -0.7941 -0.0054  0.1954
14972TIP3    H166407   6.234   6.758   2.275 -1.2664  0.2136  0.1245
14972TIP3    H266408   6.179   6.634   2.207  1.4913 -1.1782  0.2988
14973TIP3   OH266409   3.331   4.586  16.584  0.2081 -0.0035 -0.5726
14973TIP3    H166410   3.396   4.610  16.650  1.2025 -0.2991 -1.4084
14973TIP3    H266411   3.383   4.550  16.512 -0.7491  1.2169 -1.9358
14974TIP3   OH266412   2.538   5.029   3.732 -0.2796  0.2944 -0.1867
14974TIP3    H166413   2.596   5.105   3.727  0.4578  0.0991  3.0000
14974TIP3    H266414   2.450   5.065   3.719  0.3061  1.0095 -2.5185
14975TIP3   OH266415   6.532   6.208  16.721  0.1138 -0.0450 -0.0480
14975TIP3    H166416   6.446   6.242  16.746  0.3942  2.1163 -1.6885
14975TIP3    H266417   6.515   6.151  16.646  0.1299  0.6911 -0.6189
14976TIP3   OH266418   1.618   3.801   3.508 -0.4679  0.9233  0.0956
14976TIP3    H166419   1.636   3.719   3.463  0.5802  1.4939 -0.5517
14976TIP3    H266420   1.532   3.828   3.474 -0.1191  0.8684 -0.8705
14977TIP3   OH266421   0.033   3.720   5.899 -0.1841  0.2138 -0.1572
14977TIP3    H166422  -0.035   3.661   5.866 -2.1782  2.1958  0.1529
14977TIP3    H266423   0.019   3.722   5.994 -1.2125  2.2565 -0.2762
14978TIP3   OH266424   1.849   6.335   1.067  0.2236 -0.1707  0.0640
14978TIP3    H166425   1.788   6.362   1.135  1.9204 -0.1635  1.6722
14978TIP3    H266426   1.860   6.241   1.080  1.1490 -0.0391  0.3544
14979TIP3   OH266427   3.278   5.100   1.826 -0.2387  0.1446  0.3500
14979TIP3    H166428   3.187   5.075   1.838 -0.1426  0.4338  1.9304
14979TIP3    H266429   3.329   5.026   1.860  0.1347  0.0265 -0.4261
14980TIP3   OH266430   6.125   6.225  16.196 -0.2253 -0.0528  0.3774
14980TIP3    H166431   6.100   6.133  16.193  0.3675 -0.1976 -0.5378
14980TIP3    H266432   6.076   6.266  16.124 -1.7361  0.6933  1.7703
14981TIP3   OH266433   2.004   2.416  17.096  0.6219 -0.3873 -0.2376
14981TIP3    H166434   1.946   2.448  17.166 -0.2228 -0.0321 -1.0839
14981TIP3    H266435   1.978   2.464  17.018  4.9669  3.2191  0.1096
14982TIP3   OH266436   4.682   3.993   1.704 -0.4866 -0.2661 -0.0856
14982TIP3    H166437   4.740   4.049   1.653  0.1721  0.5177  1.4721
14982TIP3    H266438   4.740   3.948   1.765 -1.4050 -0.1397  0.9062
14983TIP3   OH266439   2.957   0.955   1.102  0.2038 -0.0220  0.1539
14983TIP3    H166440   2.976   0.882   1.160  0.8776 -0.7988 -0.9892
14983TIP3    H266441   3.031   0.957   1.041 -0.0177  1.3472 -0.1088
14984TIP3   OH266442   4.526   0.614   4.512  0.0936 -0.0009 -0.3783
14984TIP3    H166443   4.619   0.638   4.511 -0.0663  0.6721  0.5707
14984TIP3    H266444   4.479   0.697   4.504 -0.4363 -0.1406  1.0277
14985TIP3   OH266445   2.569   4.867  13.282 -0.0738  0.2340  0.2212
14985TIP3    H166446   2.619   4.893  13.359 -0.4491  1.2351  0.1517
14985TIP3    H266447   2.607   4.917  13.211  0.2149 -0.6242 -0.2366
14986TIP3   OH266448   0.016   0.887  14.739 -0.4901  0.7256  0.3176
14986TIP3    H166449  -0.061   0.887  14.796  0.4906 -0.6382  1.7096
14986TIP3    H266450   0.016   0.800  14.699 -2.2242  2.1962 -3.4283
14987TIP3   OH266451   2.891   1.883  12.630 -0.3810  0.2131  0.3147
14987TIP3    H166452   2.931   1.914  12.710 -0.2595  0.0916  0.3013
14987TIP3    H266453   2.934   1.799  12.612 -0.7413  0.0078  0.3808
14988TIP3   OH266454   6.144   1.411   2.249 -0.2732  0.4841 -0.1904
14988TIP3    H166455   6.161   1.335   2.194  0.6470 -0.1372  0.8839
14988TIP3    H266456   6.214   1.473   2.227 -0.3222  0.5251 -0.2296
14989TIP3   OH266457   5.573   2.806   4.004  0.1775 -0.2306  0.0746
14989TIP3    H166458   5.658   2.784   3.966 -0.2431  0.3101 -1.2438
14989TIP3    H266459   5.538   2.723   4.035  1.8372 -0.2553  2.1029
14990TIP3   OH266460   1.922   0.691  16.648 -0.1363  0.1955 -0.4950
14990TIP3    H166461   2.016   0.707  16.649 -0.0304 -0.2742  1.4021
14990TIP3    H266462   1.914   0.600  16.619  0.1732 -0.4535  1.3478
14991TIP3   OH266463   3.913   1.542  16.847 -0.1681  0.7616 -0.3632
14991TIP3    H166464   3.871   1.561  16.763  2.8463  0.1068 -2.1351
14991TIP3    H266465   3.978   1.612  16.858 -0.8012  1.1055  1.7379
14992TIP3   OH266466   1.676   3.385  16.009 -0.2870 -0.3521  0.0717
14992TIP3    H166467   1.648   3.294  16.019 -0.4984 -0.4941 -1.5057
14992TIP3    H266468   1.765   3.378  15.973 -0.9222  0.0225 -1.6516
14993TIP3   OH266469   6.672   1.023   4.984  0.7206  0.1150 -0.0070
14993TIP3    H166470   6.576   1.030   4.980  0.4775 -2.3262 -0.2923
14993TIP3    H266471   6.703   1.082   4.915 -0.5753  0.9323  0.0674
14994TIP3   OH266472   3.513   4.628  15.580  0.2284  0.3654  0.8159
14994TIP3    H166473   3.528   4.715  15.617 -1.9610 -0.6334  4.5827
14994TIP3    H266474   3.419   4.625  15.563  0.2806 -1.2005  0.6313
14995TIP3   OH266475   3.040   2.800   3.481 -0.4963  0.5033 -0.5309
14995TIP3    H166476   2.968   2.849   3.441 -0.7979  1.0179  0.5892
14995TIP3    H266477   3.081   2.863   3.541  0.2624 -0.0844 -0.4154
14996TIP3   OH266478   6.085   3.377  12.263 -0.4324  0.0691  0.8315
14996TIP3    H166479   6.161   3.345  12.214 -0.1164 -0.5056  1.6700
14996TIP3    H266480   6.116   3.456  12.307 -1.2973  1.8074 -1.4797
14997TIP3   OH266481   0.809   3.267   3.151 -0.2243  0.1043  0.4555
14997TIP3    H166482   0.718   3.251   3.127 -0.0092 -0.3530 -0.0702
14997TIP3    H266483   0.851   3.298   3.071  0.8322 -2.8050 -0.2590
14998TIP3   OH266484   1.660   4.818  10.950 -0.1011 -0.0271 -0.3224
14998TIP3    H166485   1.725   4.888  10.942  0.1651 -0.3327 -0.8971
14998TIP3    H266486   1.698   4.745  10.902  1.1096 -1.6748  2.8462
14999TIP3   OH266487   2.255   1.480  14.896  0.1755 -0.2499  0.0432
14999TIP3    H166488   2.343   1.513  14.880  0.1825 -0.5116 -0.4845
14999TIP3    H266489   2.260   1.438  14.982  0.4027  0.2883  0.2938
15000TIP3   OH266490   5.727   3.678  13.299  0.3034  0.7116  0.0290
15000TIP3    H166491   5.706   3.610  13.236 -0.5022  0.8405  0.1491
15000TIP3    H266492   5.690   3.648  13.382  1.7461  0.3297  0.5657
15001TIP3   OH266493   1.720   0.556  12.179  0.2708 -0.7153 -0.5443
15001TIP3    H166494   1.792   0.501  12.147  0.2060  0.0738 -2.1414
15001TIP3    H266495   1.662   0.495  12.225  0.7609 -1.7935 -1.3094
15002TIP3   OH266496   5.010   0.958  15.624  0.1611 -0.1059 -0.0281
15002TIP3    H166497   5.047   0.922  15.543  0.8294 -0.0377  0.2371
15002TIP3    H266498   5.084   1.004  15.665  0.2549 -1.4332  1.3667
15003TIP3   OH266499   0.899   2.800  15.999 -0.4344 -0.3521  0.3731
15003TIP3    H166500   0.888   2.874  16.059 -1.5613 -0.5850  0.4804
15003TIP3    H266501   0.842   2.732  16.034  0.8977 -1.4324  0.5018
15004TIP3   OH266502   5.124   1.773   3.581 -0.4314  0.3057 -0.0174
15004TIP3    H166503   5.125   1.690   3.628  0.1184  0.5489  0.4083
15004TIP3    H266504   5.211   1.779   3.541  0.1946  1.4904  1.4236
15005TIP3   OH266505   3.717   0.713   5.156 -0.2857 -0.1273 -0.2407
15005TIP3    H166506   3.770   0.790   5.178 -1.3297  0.7198 -0.6541
15005TIP3    H266507   3.744   0.690   5.067 -0.3410  0.0706 -0.3082
15006TIP3   OH266508   2.148   0.113   6.435  0.6759 -0.6883 -0.1681
15006TIP3    H166509   2.072   0.119   6.493  0.2329 -0.1339 -0.7685
15006TIP3    H266510   2.220   0.150   6.485  0.3316 -0.3527  0.0888
15007TIP3   OH266511   1.742   5.589   1.174  0.6320 -0.0750  0.3002
15007TIP3    H166512   1.667   5.631   1.217  1.0563  1.7073 -0.5998
15007TIP3    H266513   1.803   5.572   1.245 -0.4259 -1.1640  0.9900
15008TIP3   OH266514   1.297   5.252  13.143 -0.0923 -0.0805 -0.2272
15008TIP3    H166515   1.224   5.300  13.103 -0.2327  0.0566  0.1959
15008TIP3    H266516   1.375   5.300  13.115 -0.3204  1.6195  1.8019
15009TIP3   OH266517   4.238   5.484   5.721  0.1587 -0.4301 -0.3952
15009TIP3    H166518   4.314   5.522   5.765  0.8585 -1.3618 -0.7727
15009TIP3    H266519   4.180   5.559   5.705  0.8813  0.2549  0.1116
15010TIP3   OH266520   0.149   6.369   0.105 -0.3187 -0.2850  0.3190
15010TIP3    H166521   0.231   6.319   0.098  0.9198  1.5877  0.7912
15010TIP3    H266522   0.124   6.363   0.197  2.0929  3.1633  1.4106
15011TIP3   OH266523   1.532   1.824  11.991 -0.1532  0.0886  0.4616
15011TIP3    H166524   1.484   1.906  11.984 -0.6237 -0.1954  0.2756
15011TIP3    H266525   1.623   1.850  12.003 -0.0008  0.6314 -1.5694
15012TIP3   OH266526   0.336   5.235  14.430  1.1619  0.7801  0.2609
15012TIP3    H166527   0.358   5.256  14.521 -0.9226 -1.0222  1.2696
15012TIP3    H266528   0.295   5.314  14.395  0.0033  0.8208  1.6325
15013TIP3   OH266529   3.035   3.005  13.286 -0.6913  0.5237 -0.6603
15013TIP3    H166530   2.992   3.090  13.274 -0.6641  0.4206 -1.5557
15013TIP3    H266531   2.965   2.947  13.316 -0.2004  1.4360  2.6816
15014TIP3   OH266532   4.579   4.032  15.481 -0.5068 -0.1041  0.1261
15014TIP3    H166533   4.663   4.021  15.437 -0.6143 -1.1984  0.1749
15014TIP3    H266534   4.588   4.114  15.529 -0.2829  0.9678 -1.6568
15015TIP3   OH266535   4.328   2.969   3.562  0.0764 -0.4968 -0.2315
15015TIP3    H166536   4.319   3.013   3.477 -0.4136 -1.9252 -0.9422
15015TIP3    H266537   4.238   2.955   3.591  0.2328 -0.8487  0.0777
15016TIP3   OH266538   5.081   1.971   4.666  0.1574 -0.2744  0.4372
15016TIP3    H166539   5.080   1.885   4.625  2.4747 -0.4514  0.6273
15016TIP3    H266540   5.126   2.027   4.603 -2.9262  1.3427 -0.5336
15017TIP3   OH266541   1.855   3.887   2.555  0.2591 -0.0949 -0.0572
15017TIP3    H166542   1.936   3.848   2.523  0.0935 -0.2415 -0.3072
15017TIP3    H266543   1.801   3.897   2.476  0.4016  0.8873 -0.0471
15018TIP3   OH266544   5.425   4.076  15.419 -0.1793 -0.2703 -0.2580
15018TIP3    H166545   5.340   4.063  15.378 -0.1288 -0.8164 -0.1899
15018TIP3    H266546   5.411   4.056  15.511 -0.4009  1.3980  0.0979
15019TIP3   OH266547   2.056   3.737  12.101 -0.2559  0.3413 -0.0103
15019TIP3    H166548   2.002   3.799  12.151  1.4543  0.5922  1.6499
15019TIP3    H266549   2.005   3.719  12.023 -1.4758  2.7228  0.1315
15020TIP3   OH266550   1.827   2.715   2.084  0.0044 -0.5618  0.7727
15020TIP3    H166551   1.887   2.641   2.090  0.4664 -0.1196  1.7474
15020TIP3    H266552   1.743   2.681   2.115 -0.0747 -0.9834  0.1046
15021TIP3   OH266553   4.120   0.522   6.378  0.0163 -0.2914 -0.2438
15021TIP3    H166554   4.119   0.434   6.416  0.0908  0.1919  0.9169
15021TIP3    H266555   4.031   0.532   6.342 -0.4524 -0.3426  0.8447
15022TIP3   OH266556   3.867   5.123  15.387 -0.7081 -0.3224  0.3541
15022TIP3    H166557   3.856   5.132  15.293  1.3959 -0.7405  0.0058
15022TIP3    H266558   3.807   5.186  15.425 -1.5410 -0.0986 -1.2625
15023TIP3   OH266559   3.882   6.098  16.598  0.3638  0.3268 -0.0030
15023TIP3    H166560   3.931   6.180  16.599  0.7054  0.1272  0.0308
15023TIP3    H266561   3.791   6.124  16.584  0.3590  0.7676  0.7567
15024TIP3   OH266562   4.049   0.545   4.650 -0.1016  0.2249  0.4238
15024TIP3    H166563   3.984   0.477   4.665  0.5869 -0.2047  1.6387
15024TIP3    H266564   4.111   0.535   4.723  2.8881 -1.2179 -2.0424
15025TIP3   OH266565   5.404   5.758  13.854  0.3301 -0.1149 -0.1498
15025TIP3    H166566   5.465   5.699  13.899  3.1880  0.2290 -3.1559
15025TIP3    H266567   5.454   5.839  13.842 -1.2588  0.7293 -1.5264
15026TIP3   OH266568   3.790   0.080  13.524 -0.1237 -0.4048 -0.1336
15026TIP3    H166569   3.873   0.033  13.520 -0.1641 -0.3993 -1.3146
15026TIP3    H266570   3.781   0.121  13.438 -1.3507 -0.4164 -0.0349
15027TIP3   OH266571   6.404   2.754   3.498  0.3166 -0.4386  0.1035
15027TIP3    H166572   6.477   2.780   3.442  0.5731  1.0189  1.0517
15027TIP3    H266573   6.382   2.833   3.547 -0.9266 -1.2518  0.9194
15028TIP3   OH266574   1.785   0.239   1.661 -0.2036 -0.4099  0.0269
15028TIP3    H166575   1.758   0.195   1.580  1.1097  0.5435 -1.0003
15028TIP3    H266576   1.716   0.303   1.678  0.0460  0.1846 -1.0489
15029TIP3   OH266577   5.897   3.316  11.591  0.1699 -0.6018  0.3250
15029TIP3    H166578   5.954   3.247  11.624 -0.1349 -1.5539 -1.0561
15029TIP3    H266579   5.943   3.398  11.612  0.9741 -1.2488  1.1610
15030TIP3   OH266580   3.615   6.216  13.619 -0.0323  0.6274  0.1837
15030TIP3    H166581   3.581   6.271  13.549 -0.5671 -0.6989 -0.6523
15030TIP3    H266582   3.676   6.156  13.575  1.0605  0.9739  1.1743
15031TIP3   OH266583   3.586   2.176   0.177  0.3099 -0.1366  0.4913
15031TIP3    H166584   3.517   2.171   0.111 -0.6724  0.1529  1.4660
15031TIP3    H266585   3.634   2.257   0.156  1.4917 -1.2080 -1.2239
15032TIP3   OH266586   5.976   2.686   0.755  1.1279  0.8153 -0.2244
15032TIP3    H166587   5.986   2.655   0.665 -1.6837 -0.1865 -0.3038
15032TIP3    H266588   5.928   2.768   0.747 -1.1128 -0.3480  0.3391
15033TIP3   OH266589   5.562   2.186   6.387 -0.4972 -0.7214  0.1820
15033TIP3    H166590   5.562   2.114   6.451 -0.3834 -1.6272 -0.8157
15033TIP3    H266591   5.477   2.180   6.344 -0.9590  0.4743  0.8589
15034TIP3   OH266592   2.744   2.192   2.538  0.8754  0.1613 -0.4064
15034TIP3    H166593   2.755   2.123   2.605  1.0464  2.0278  1.5998
15034TIP3    H266594   2.783   2.155   2.459  1.7146 -1.7335  0.8128
15035TIP3   OH266595   3.253   1.393  13.768 -0.3185  0.5355 -0.6988
15035TIP3    H166596   3.247   1.357  13.679  1.4995  1.3167 -1.1850
15035TIP3    H266597   3.347   1.397  13.786 -0.6539  0.2344  1.3504
15036TIP3   OH266598   0.445   3.132  16.017 -0.0776  0.1931  0.4833
15036TIP3    H166599   0.492   3.209  15.985 -0.6220  0.0751 -0.6183
15036TIP3    H266600   0.511   3.084  16.068  1.0722 -0.0580 -1.1644
15037TIP3   OH266601   1.940   2.099  14.594  0.4874  0.0543  0.3990
15037TIP3    H166602   2.033   2.077  14.590  0.5375 -0.0766  1.6842
15037TIP3    H266603   1.900   2.051  14.522  1.3621 -0.1865  0.0636
15038TIP3   OH266604   0.536   0.021   4.010  0.2173  0.0928 -0.6624
15038TIP3    H166605   0.558   0.005   3.918  0.3741 -3.2840 -0.1721
15038TIP3    H266606   0.441   0.030   4.010  0.3132  1.3890 -1.2488
15039TIP3   OH266607   2.374   4.308   5.191  0.4986 -0.1891  0.1013
15039TIP3    H166608   2.349   4.245   5.258 -0.2582  1.6570  1.6341
15039TIP3    H266609   2.461   4.338   5.218  0.5112  0.0174 -0.1659
15040TIP3   OH266610   4.646   6.300  11.018  0.2357  0.1520  0.3208
15040TIP3    H166611   4.713   6.334  10.958  1.4074 -3.5787 -0.7550
15040TIP3    H266612   4.585   6.253  10.961 -1.3370  0.5040  1.6648
15041TIP3   OH266613   3.345   3.953  11.224 -0.0298  0.3001  0.5167
15041TIP3    H166614   3.292   3.972  11.147 -2.4693  1.3737  2.3199
15041TIP3    H266615   3.390   4.035  11.243  1.9323 -0.4494 -0.6805
15042TIP3   OH266616   4.280   1.738   2.525 -0.0104  0.2194 -0.3944
15042TIP3    H166617   4.201   1.720   2.576 -0.0586 -1.4626 -1.0082
15042TIP3    H266618   4.250   1.796   2.454 -0.0773  1.9869  1.0074
15043TIP3   OH266619   5.530   3.202  11.604  0.3056 -0.1935 -1.0549
15043TIP3    H166620   5.444   3.183  11.567  0.4327 -0.1895 -1.3529
15043TIP3    H266621   5.571   3.116  11.614  0.4822 -0.1558 -1.4385
15044TIP3   OH266622   1.787   2.302   5.046 -0.5646 -0.1613  0.0155
15044TIP3    H166623   1.698   2.265   5.050 -1.2890  1.1676 -1.9697
15044TIP3    H266624   1.837   2.239   4.995 -1.1151  0.3144 -1.1540
15045TIP3   OH266625   4.447   3.352   0.431 -0.0307  0.2800  0.0497
15045TIP3    H166626   4.447   3.379   0.523  1.4485 -0.5675  0.3310
15045TIP3    H266627   4.356   3.329   0.413  0.1745 -2.9986  2.3903
15046TIP3   OH266628   5.136   2.546   0.393 -0.1405  0.2883  0.4220
15046TIP3    H166629   5.189   2.467   0.397 -0.5508 -0.0381 -0.4678
15046TIP3    H266630   5.147   2.586   0.480 -1.7189 -1.9191  1.7536
15047TIP3   OH266631   5.763   1.724   1.667 -0.2280  0.4670  0.0556
15047TIP3    H166632   5.676   1.747   1.634  0.2032 -0.6771 -2.0901
15047TIP3    H266633   5.787   1.646   1.617  2.2288  1.0376  0.2252
15048TIP3   OH266634   6.798   5.972  15.432  0.3494  0.2089 -0.2165
15048TIP3    H166635   6.707   5.968  15.403  0.5578  0.3568 -0.9104
15048TIP3    H266636   6.800   5.916  15.510 -0.6350  1.3370  0.6550
15049TIP3   OH266637   3.403   5.741  13.836  0.7077 -0.2464 -0.4887
15049TIP3    H166638   3.423   5.743  13.929  2.2387  2.2790 -0.7956
15049TIP3    H266639   3.456   5.668  13.802  1.7751  0.1360  0.3036
15050TIP3   OH266640   3.889   0.272  15.909  0.1488 -0.4289 -0.1378
15050TIP3    H166641   3.875   0.199  15.850 -1.0104 -0.9730  0.7834
15050TIP3    H266642   3.902   0.348  15.851 -1.1748 -0.9004 -1.0797
15051TIP3   OH266643   6.726   4.978   4.939 -0.6093 -0.2932  0.2557
15051TIP3    H166644   6.781   5.049   4.973  1.5093 -1.9041  0.4219
15051TIP3    H266645   6.691   5.012   4.857  0.0817  1.0538  0.4883
15052TIP3   OH266646   1.608   5.798  15.317  0.1571  0.3949 -0.7551
15052TIP3    H166647   1.645   5.810  15.405  1.2028 -0.9597 -0.9729
15052TIP3    H266648   1.581   5.886  15.290  3.7560  1.6513 -0.7787
15053TIP3   OH266649   3.467   0.640   2.693 -0.2416 -0.1619 -0.1877
15053TIP3    H166650   3.511   0.576   2.638 -0.2221  1.4705 -2.1946
15053TIP3    H266651   3.378   0.645   2.657 -0.5877  0.0857  0.6862
15054TIP3   OH266652   5.273   0.123   3.227 -0.1211 -0.7781 -0.1178
15054TIP3    H166653   5.346   0.133   3.288 -0.8640 -1.2983  0.8802
15054TIP3    H266654   5.248   0.213   3.205  1.5275 -0.5667 -1.3994
15055TIP3   OH266655   2.357   2.358   1.491 -0.2995 -0.0031  0.0618
15055TIP3    H166656   2.394   2.374   1.404  0.5391 -0.0752  0.4012
15055TIP3    H266657   2.430   2.368   1.551  0.3521 -4.6257  0.3854
15056TIP3   OH266658   6.431   6.092  16.243 -0.1188  0.2144 -0.2719
15056TIP3    H166659   6.486   6.021  16.208  1.0074 -0.3219  2.3472
15056TIP3    H266660   6.342   6.063  16.225  0.3737 -0.9539 -0.9680
15057TIP3   OH266661   1.260   2.147   3.867  0.0548 -0.1655  0.2491
15057TIP3    H166662   1.310   2.224   3.894  1.7576 -0.7071 -1.1793
15057TIP3    H266663   1.284   2.080   3.932 -0.9026  0.2777  1.0933
15058TIP3   OH266664   5.889   5.836  13.113 -0.0368  0.8610 -0.0847
15058TIP3    H166665   5.922   5.849  13.025 -1.4935  0.0178 -0.8027
15058TIP3    H266666   5.794   5.839  13.104 -0.3062 -1.3138  1.0613
15059TIP3   OH266667   5.522   2.624   0.549 -0.4644 -0.9105 -0.2669
15059TIP3    H166668   5.605   2.595   0.587  0.6969  0.4635 -1.6485
15059TIP3    H266669   5.484   2.682   0.616  0.3797 -0.4185 -0.2097
15060TIP3   OH266670   2.444   6.135   4.170 -0.3809  0.1272 -0.1533
15060TIP3    H166671   2.525   6.085   4.177 -0.1647  0.3261 -1.0818
15060TIP3    H266672   2.375   6.068   4.171 -0.1759 -0.0807  0.1290
15061TIP3   OH266673   4.477   5.055   1.815  0.2359 -0.2115 -0.1431
15061TIP3    H166674   4.389   5.031   1.846 -0.1557  0.5884 -0.5969
15061TIP3    H266675   4.467   5.065   1.720  0.5820  0.8449 -0.0806
15062TIP3   OH266676   2.680   2.503  11.755  0.3541 -0.1595 -0.1830
15062TIP3    H166677   2.640   2.576  11.707 -1.0691  0.0589  1.2541
15062TIP3    H266678   2.708   2.442  11.687 -1.9307 -0.0369 -1.3111
15063TIP3   OH266679   4.843   0.648  15.530 -0.3751 -0.5663 -0.0080
15063TIP3    H166680   4.926   0.679  15.494  0.2564 -1.1294  0.9241
15063TIP3    H266681   4.844   0.553  15.515 -0.4828 -0.6888  0.7416
15064TIP3   OH266682   4.215   1.174  13.047  0.0802 -0.9686  0.5647
15064TIP3    H166683   4.309   1.187  13.031 -0.1359 -0.1500 -0.0808
15064TIP3    H266684   4.183   1.131  12.968 -0.6565  1.5293 -0.6004
15065TIP3   OH266685   1.214   5.539  16.351  0.5689 -0.3251 -0.4007
15065TIP3    H166686   1.202   5.619  16.301 -1.7408 -0.7506 -0.6791
15065TIP3    H266687   1.239   5.569  16.439 -0.5517  0.7557 -0.4161
15066TIP3   OH266688   4.046   0.502  14.037  0.0668 -0.2473 -0.4346
15066TIP3    H166689   4.027   0.417  13.997  0.4848  0.8024 -3.0907
15066TIP3    H266690   4.012   0.566  13.975 -0.5035  1.5662  1.6379
15067TIP3   OH266691   4.695   4.208   0.632 -0.1880 -0.0563  0.1093
15067TIP3    H166692   4.658   4.119   0.629 -2.7771  0.9336  0.5457
15067TIP3    H266693   4.660   4.246   0.713 -1.2399  2.2161 -1.3327
15068TIP3   OH266694   4.709   1.500   5.374  0.0949  0.0914  0.2744
15068TIP3    H166695   4.777   1.565   5.359  0.3780 -0.1471  0.5108
15068TIP3    H266696   4.720   1.475   5.466 -1.4334  1.3415  0.8409
15069TIP3   OH266697   3.186   3.291   4.960 -0.2236 -0.6017 -0.3720
15069TIP3    H166698   3.141   3.365   4.918 -1.1665 -1.0141 -0.1065
15069TIP3    H266699   3.181   3.309   5.053  0.5267 -0.4565 -0.3508
15070TIP3   OH266700   0.367   0.011   5.545  0.1135  0.1676 -0.1393
15070TIP3    H166701   0.455   0.014   5.506  0.4620 -0.7134  0.5381
15070TIP3    H266702   0.335   0.101   5.539  1.4415  0.7172  0.4385
15071TIP3   OH266703   6.174   0.001  10.841 -0.0329  0.4871  0.6994
15071TIP3    H166704   6.099  -0.047  10.805  2.1274  0.7248 -5.1646
15071TIP3    H266705   6.224  -0.066  10.888 -1.7710 -0.6484  1.0487
15072TIP3   OH266706   4.744   1.306   2.467  0.0489 -0.1329 -0.2119
15072TIP3    H166707   4.785   1.233   2.422 -0.1373 -0.8361  0.7362
15072TIP3    H266708   4.699   1.267   2.542  0.2435  0.9877  0.5198
15073TIP3   OH266709   2.103   6.187   5.165 -0.1023 -0.1959 -0.3325
15073TIP3    H166710   2.091   6.282   5.165 -0.1470 -0.1273  2.5570
15073TIP3    H266711   2.193   6.175   5.133 -0.6696  0.6252 -2.4357
15074TIP3   OH266712   2.926   5.586  14.192  0.5947  0.4809 -0.2953
15074TIP3    H166713   2.971   5.519  14.141 -2.1168 -0.7143 -1.3488
15074TIP3    H266714   2.939   5.560  14.283  0.0319 -1.2615 -0.6656
15075TIP3   OH266715   1.979   3.767   0.311 -0.1059 -0.0083 -0.0900
15075TIP3    H166716   1.948   3.830   0.246 -0.7706 -1.0588 -0.8252
15075TIP3    H266717   1.957   3.681   0.273 -1.1029 -0.6338  1.8024
15076TIP3   OH266718   2.524   4.459  15.944  0.5033 -0.0076  0.5854
15076TIP3    H166719   2.608   4.416  15.929  0.1032 -0.2825 -1.0255
15076TIP3    H266720   2.483   4.462  15.858 -0.7244  1.0055  1.1757
15077TIP3   OH266721   4.118   3.343   5.878  0.1932 -0.3253  0.3269
15077TIP3    H166722   4.036   3.391   5.885 -0.6953 -1.4336 -1.8009
15077TIP3    H266723   4.112   3.276   5.947 -0.7776 -0.4903  0.1003
15078TIP3   OH266724   5.929   6.783   5.024  0.4543  0.4113  0.0323
15078TIP3    H166725   5.983   6.750   5.095  2.7600  0.7985 -1.4269
15078TIP3    H266726   5.891   6.705   4.984  0.3169  0.0896  0.7712
15079TIP3   OH266727   2.495   5.369  11.748 -0.0567  0.2479  0.4611
15079TIP3    H166728   2.577   5.382  11.700 -0.8009  1.4644 -0.5316
15079TIP3    H266729   2.518   5.306  11.817  1.7289  0.6538  0.2926
15080TIP3   OH266730   0.648   3.938   3.122 -0.3408 -0.4865 -0.5836
15080TIP3    H166731   0.706   4.009   3.150 -1.7546  0.9215 -1.1112
15080TIP3    H266732   0.681   3.861   3.170  1.1312  0.5256  0.1250
15081TIP3   OH266733   1.181   5.492   4.577  0.7666 -0.1904  0.0286
15081TIP3    H166734   1.181   5.557   4.648  3.3583  0.3236 -0.3661
15081TIP3    H266735   1.098   5.508   4.531  1.3554  3.0157 -0.1650
15082TIP3   OH266736   5.762   5.991  15.553 -1.2566 -0.1428  0.4312
15082TIP3    H166737   5.784   5.947  15.470 -1.2835 -0.5337  0.6313
15082TIP3    H266738   5.775   6.084  15.534 -1.1027 -0.2404  0.0343
15083TIP3   OH266739   3.661   5.987   5.175 -0.2536 -0.1879  0.0162
15083TIP3    H166740   3.721   5.960   5.245  1.0534 -0.6516 -1.2263
15083TIP3    H266741   3.718   6.005   5.100 -1.6799 -1.0386 -1.3416
15084TIP3   OH266742   3.006   3.477  14.904 -0.2799 -0.2071 -0.6065
15084TIP3    H166743   3.088   3.431  14.886  0.5658  0.8041  0.5614
15084TIP3    H266744   2.969   3.431  14.979  0.5878  0.9847  0.5907
15085TIP3   OH266745   6.309   4.613  13.542 -0.1606 -0.1561 -0.3557
15085TIP3    H166746   6.261   4.588  13.463 -1.2705  0.7003  0.0111
15085TIP3    H266747   6.351   4.696  13.518  2.3347 -1.5567 -1.1192
15086TIP3   OH266748   0.501   5.654  13.992  0.2865  0.1324 -0.3208
15086TIP3    H166749   0.501   5.600  13.913  0.4394 -0.4265  0.0559
15086TIP3    H266750   0.527   5.594  14.062  0.7735  0.7744  0.0518
15087TIP3   OH266751   1.896   3.470   4.103 -0.3142 -0.1622  0.0879
15087TIP3    H166752   1.818   3.490   4.050  0.2837  1.4926 -0.2420
15087TIP3    H266753   1.930   3.556   4.129  1.2045 -0.8546  0.5146
15088TIP3   OH266754   4.533   4.303  14.002 -0.5138 -0.1248 -0.2287
15088TIP3    H166755   4.528   4.255  13.919  0.4019 -0.0077 -0.3641
15088TIP3    H266756   4.463   4.266  14.056  0.8322 -2.4221  0.0688
15089TIP3   OH266757   3.534   4.123   4.060  0.1025  0.0822  0.2929
15089TIP3    H166758   3.609   4.131   4.118  1.8450 -1.9003 -1.4700
15089TIP3    H266759   3.556   4.180   3.985 -0.5818  0.1883  0.1703
15090TIP3   OH266760   6.403   3.446  17.267 -0.3415 -0.1572 -0.7426
15090TIP3    H166761   6.320   3.445  17.315 -1.1656  1.6969 -2.0254
15090TIP3    H266762   6.378   3.434  17.175  1.0235 -1.5382 -0.9801
15091TIP3   OH266763   3.174   4.100   2.301 -0.2088  0.5692  0.3466
15091TIP3    H166764   3.102   4.058   2.348 -0.2549 -1.4687 -1.4390
15091TIP3    H266765   3.252   4.079   2.353 -0.6552  1.3952  1.3927
15092TIP3   OH266766   5.029   3.531  13.645  0.7081 -0.1973  0.2464
15092TIP3    H166767   5.001   3.469  13.578  0.5763  1.3079 -1.1554
15092TIP3    H266768   5.000   3.616  13.612  1.0562  0.6407  2.0080
15093TIP3   OH266769   6.738   3.190  13.479 -0.1284  0.6331  0.5081
15093TIP3    H166770   6.671   3.132  13.442 -0.8228  0.0537  2.4966
15093TIP3    H266771   6.821   3.155  13.448 -0.4873 -1.8124  1.9946
15094TIP3   OH266772   0.580   2.347  13.998  0.0302  0.1115 -0.3366
15094TIP3    H166773   0.543   2.267  13.960  2.3761 -1.5155  0.5563
15094TIP3    H266774   0.597   2.404  13.923 -3.4169  0.7042 -0.8548
15095TIP3   OH266775   3.064   3.246   3.517 -0.2650 -0.1507  0.1003
15095TIP3    H166776   3.076   3.312   3.449 -1.2449  0.4351  0.4736
15095TIP3    H266777   2.976   3.263   3.552 -0.7544 -1.9687 -0.1357
15096TIP3   OH266778   6.281   5.318   0.581  0.2469 -0.2822  0.0104
15096TIP3    H166779   6.253   5.345   0.669  0.1326  1.1611 -0.4498
15096TIP3    H266780   6.344   5.247   0.597  0.9428  0.5881  1.3075
15097TIP3   OH266781   0.611   2.176  13.530 -0.4925 -0.0088 -0.7224
15097TIP3    H166782   0.696   2.167  13.486  0.2124  1.3629  0.2944
15097TIP3    H266783   0.563   2.097  13.505  0.6363 -0.2538 -2.2787
15098TIP3   OH266784   5.604   2.548  15.854 -0.8240 -0.1612 -0.3782
15098TIP3    H166785   5.580   2.466  15.812  1.2756 -1.1882  0.2875
15098TIP3    H266786   5.649   2.522  15.934 -2.1938  1.7112  1.0818
15099TIP3   OH266787   0.807   1.238   3.603  0.1371  0.6596 -0.4745
15099TIP3    H166788   0.795   1.182   3.527 -1.4254  0.4187 -0.0919
15099TIP3    H266789   0.870   1.305   3.575  1.5577 -0.8894 -1.1326
15100TIP3   OH266790   0.179   0.540  13.013 -0.4045  0.4488 -0.2133
15100TIP3    H166791   0.189   0.593  13.092 -0.4049 -0.4551  0.4079
15100TIP3    H266792   0.168   0.604  12.943  1.5689  1.3404  0.2012
15101TIP3   OH266793   5.387   2.170   3.110  0.1424  0.2884 -0.2568
15101TIP3    H166794   5.394   2.265   3.122  0.2997  0.2878 -0.3310
15101TIP3    H266795   5.450   2.151   3.041  1.2880 -0.0867  0.8554
15102TIP3   OH266796   3.500   6.813  12.773 -0.0320 -0.3582 -0.4967
15102TIP3    H166797   3.442   6.882  12.804  0.2023 -1.7645  3.7663
15102TIP3    H266798   3.442   6.751  12.729 -1.1028  0.2260  0.0541
15103TIP3   OH266799   3.304   0.240  11.099 -0.1478 -0.1579 -0.6864
15103TIP3    H166800   3.283   0.156  11.139 -1.0069 -0.1297 -1.0597
15103TIP3    H266801   3.345   0.291  11.169 -2.4790  0.2410  0.4888
15104TIP3   OH266802   1.054   6.688  13.624 -0.2519  0.2177 -0.0655
15104TIP3    H166803   1.135   6.679  13.574 -0.1845  1.2980 -0.1838
15104TIP3    H266804   1.067   6.769  13.675 -0.4357 -0.6743  1.4536
15105TIP3   OH266805   3.221   1.803  17.025  0.2863  0.0485 -0.7417
15105TIP3    H166806   3.203   1.856  16.948 -0.9134  1.3915  0.4094
15105TIP3    H266807   3.136   1.795  17.069 -0.3673 -5.3230 -2.2698
15106TIP3   OH266808   6.111   6.307   0.293  0.3167 -0.2928 -0.0729
15106TIP3    H166809   6.061   6.385   0.268  2.6771  1.2947 -0.2155
15106TIP3    H266810   6.079   6.238   0.235 -0.6783  0.9873 -1.1185
15107TIP3   OH266811   0.500   4.744   3.237 -0.2077  0.0229 -0.0674
15107TIP3    H166812   0.587   4.710   3.258 -0.3779 -1.1155 -1.0809
15107TIP3    H266813   0.487   4.816   3.298  1.8208  0.8115 -0.4882
15108TIP3   OH266814   1.491   6.497   4.961  0.3387  0.4227 -0.2841
15108TIP3    H166815   1.403   6.481   4.996  0.2168  0.7290 -0.4494
15108TIP3    H266816   1.533   6.411   4.960 -0.0139  0.2518 -0.3554
15109TIP3   OH266817   5.139   4.509  14.139 -0.8207  0.0788  0.0649
15109TIP3    H166818   5.202   4.538  14.205  0.5256 -1.9425 -0.2537
15109TIP3    H266819   5.130   4.585  14.081  0.3177  0.8538  0.8413
15110TIP3   OH266820   1.858   3.525   5.521  0.6216  0.2638 -0.2468
15110TIP3    H166821   1.850   3.518   5.426 -0.9571 -1.0787 -0.0686
15110TIP3    H266822   1.937   3.477   5.543  0.6373  0.0200 -0.8388
15111TIP3   OH266823   4.107   5.420   4.410 -0.0116 -0.3755  0.0395
15111TIP3    H166824   4.030   5.475   4.398  0.8419  1.2080  1.3702
15111TIP3    H266825   4.073   5.330   4.415 -1.3181 -0.2276 -3.5414
15112TIP3   OH266826   4.167   2.165  15.204  0.1684  0.0400 -0.1066
15112TIP3    H166827   4.166   2.243  15.147 -1.9540  0.4654  0.4318
15112TIP3    H266828   4.231   2.186  15.272  0.4744  0.8287 -0.6180
15113TIP3   OH266829   4.282   6.621   0.110 -0.1409  0.2632 -1.2329
15113TIP3    H166830   4.326   6.678   0.047 -1.4060 -0.1548 -2.5635
15113TIP3    H266831   4.214   6.676   0.148  1.8213  1.1206  1.3355
15114TIP3   OH266832   6.183   4.578   0.895  0.2766 -0.4673  0.1888
15114TIP3    H166833   6.166   4.593   0.988  0.0492  1.3340 -0.1116
15114TIP3    H266834   6.125   4.505   0.871  1.6351 -2.1871  1.8195
15115TIP3   OH266835   1.155   6.434  16.223  0.2137 -0.2317 -0.2210
15115TIP3    H166836   1.085   6.498  16.224 -0.2091 -0.6685 -1.1134
15115TIP3    H266837   1.212   6.461  16.150  0.4241 -0.4539 -0.1410
15116TIP3   OH266838   1.329   6.702  13.506 -0.0661  0.7497  0.6324
15116TIP3    H166839   1.381   6.689  13.585 -0.5112  3.1426  1.3994
15116TIP3    H266840   1.392   6.729  13.439  0.1311  0.0231  0.5147
15117TIP3   OH266841   2.304   6.027  14.284  0.6761 -0.3612 -0.8533
15117TIP3    H166842   2.289   6.020  14.190  1.0203 -1.0789 -0.8622
15117TIP3    H266843   2.384   5.975  14.300  3.0076  2.9576 -0.7635
15118TIP3   OH266844   2.190   1.444  14.645 -0.3935  0.5605 -0.5541
15118TIP3    H166845   2.100   1.470  14.627 -0.0524  2.1263 -0.1729
15118TIP3    H266846   2.210   1.482  14.730  1.5684  2.9279 -1.9236
15119TIP3   OH266847   3.655   2.754   5.459 -0.1929 -0.7617  0.3372
15119TIP3    H166848   3.562   2.772   5.472  0.0688  0.6449  0.4433
15119TIP3    H266849   3.660   2.659   5.445 -1.6040 -0.8872  0.5764
15120TIP3   OH266850   0.029   3.209  11.641 -0.0869 -0.1614  0.1963
15120TIP3    H166851   0.064   3.121  11.653  0.8012  0.0549 -0.6937
15120TIP3    H266852  -0.028   3.202  11.564  1.5902  0.4585 -1.1477
15121TIP3   OH266853   1.726   0.023  10.591 -0.1630  0.3958  0.3489
15121TIP3    H166854   1.653   0.062  10.543 -0.9965 -0.1306  1.1567
15121TIP3    H266855   1.689  -0.056  10.629  0.8355  0.1345  0.7924
15122TIP3   OH266856   5.932   3.602  15.861 -0.1047  0.1225 -0.4086
15122TIP3    H166857   6.018   3.633  15.890  0.1176 -0.1428 -0.7765
15122TIP3    H266858   5.914   3.652  15.782 -0.4134  0.3738 -0.1789
15123TIP3   OH266859   0.394   3.045   0.193  0.3483  0.5477 -0.8165
15123TIP3    H166860   0.481   3.006   0.201  1.1172  2.3784  0.5401
15123TIP3    H266861   0.342   3.004   0.261  0.9893  1.4150  0.2310
15124TIP3   OH266862   5.453   2.235   4.510 -0.3772  0.2786 -0.0754
15124TIP3    H166863   5.529   2.232   4.568 -1.1989  0.6375  1.0729
15124TIP3    H266864   5.378   2.236   4.570 -1.3039 -0.6076 -1.1883
15125TIP3   OH266865   5.414   4.191   5.801 -0.6722  0.3954  0.0374
15125TIP3    H166866   5.390   4.152   5.885 -0.5215 -3.0483 -1.3894
15125TIP3    H266867   5.339   4.175   5.744  0.2514  0.2728 -1.1915
15126TIP3   OH266868   0.884   0.223  12.698 -0.7415  0.0677 -0.1595
15126TIP3    H166869   0.860   0.276  12.774 -0.9264 -0.3112  0.0536
15126TIP3    H266870   0.870   0.133  12.727  0.6208 -0.1623 -0.1266
15127TIP3   OH266871   0.520   4.858  15.013  0.0464 -0.7222  0.3842
15127TIP3    H166872   0.570   4.845  15.093 -0.2122 -0.9905  0.5077
15127TIP3    H266873   0.493   4.769  14.988  0.3000 -0.6621 -0.1112
15128TIP3   OH266874   6.712   6.718   1.297  0.4388 -0.0826 -0.5653
15128TIP3    H166875   6.620   6.699   1.279  0.3771  0.5697 -0.9816
15128TIP3    H266876   6.756   6.705   1.213  0.6233  0.2346 -0.5169
15129TIP3   OH266877   5.230   0.835  10.949 -0.2140  0.3639 -0.2069
15129TIP3    H166878   5.278   0.850  11.030  0.2856  0.5806 -0.5412
15129TIP3    H266879   5.141   0.866  10.968  0.4885  2.7745 -0.5259
15130TIP3   OH266880   1.942   6.305  13.397  0.3195  0.2905 -0.4993
15130TIP3    H166881   1.958   6.354  13.316 -1.1053  0.7223 -0.5463
15130TIP3    H266882   2.029   6.272  13.422  0.8172  0.2544 -2.1201
15131TIP3   OH266883   3.537   3.263   2.073 -0.1882  0.2435 -0.5860
15131TIP3    H166884   3.526   3.174   2.105  0.4433  0.3940  0.0616
15131TIP3    H266885   3.581   3.253   1.989  0.1534 -0.0357 -0.3719
15132TIP3   OH266886   5.008   1.179  14.305  0.3896  0.1288 -0.3518
15132TIP3    H166887   5.055   1.242  14.359  0.2502  0.5044 -0.6647
15132TIP3    H266888   5.064   1.167  14.229 -0.2500  0.9735 -0.9722
15133TIP3   OH266889   0.998   4.797  14.080  0.5211 -0.2031  0.3403
15133TIP3    H166890   0.926   4.800  14.143 -0.2542 -1.4312 -0.4309
15133TIP3    H266891   0.992   4.880  14.033  1.5279  1.0224  2.2768
15134TIP3   OH266892   2.703   0.292   1.579 -0.1970  0.0357 -0.1913
15134TIP3    H166893   2.689   0.293   1.674  0.4624  1.3888 -0.0862
15134TIP3    H266894   2.616   0.306   1.542 -0.4508 -0.4490  0.2055
15135TIP3   OH266895   1.645   6.050  11.846 -0.6477 -0.0701 -0.0932
15135TIP3    H166896   1.669   5.980  11.786  1.9134 -1.1453  2.0198
15135TIP3    H266897   1.568   6.017  11.893 -1.3900 -0.0709 -1.2563
15136TIP3   OH266898   6.314   1.025   5.255 -0.5938 -0.5223 -0.3615
15136TIP3    H166899   6.324   1.120   5.259  0.3336 -0.6573  1.3907
15136TIP3    H266900   6.258   1.003   5.330 -1.5113 -1.3027 -1.2350
15137TIP3   OH266901   4.761   3.330  15.542 -0.5577  0.1434  0.2615
15137TIP3    H166902   4.698   3.259  15.556 -1.5911  0.9122 -0.2894
15137TIP3    H266903   4.823   3.295  15.478 -0.5788 -0.5496  0.6194
15138TIP3   OH266904   3.448   2.229   2.707 -0.0353  0.5336 -0.6925
15138TIP3    H166905   3.458   2.147   2.755 -1.0565  0.6492 -0.2433
15138TIP3    H266906   3.353   2.241   2.699  0.1033  1.3384 -1.3310
15139TIP3   OH266907   6.217   5.640   0.349  0.2268 -0.1985 -0.1523
15139TIP3    H166908   6.134   5.601   0.321  0.2003  0.8940 -1.7064
15139TIP3    H266909   6.279   5.567   0.351 -0.3045 -0.6786 -0.9835
15140TIP3   OH266910   0.962   0.446  12.558  0.5965  0.1029  0.0366
15140TIP3    H166911   0.918   0.382  12.615  1.0522 -0.7757 -0.5670
15140TIP3    H266912   1.029   0.395  12.512  1.7662  1.2718  0.3914
15141TIP3   OH266913   6.692   4.311   6.340 -0.1049  0.3250 -0.2042
15141TIP3    H166914   6.716   4.403   6.344  0.5752  0.1677 -0.5144
15141TIP3    H266915   6.732   4.272   6.418  2.0128 -0.2265 -1.4790
15142TIP3   OH266916   0.558   4.261   5.846  0.3255  0.0319 -0.2722
15142TIP3    H166917   0.535   4.170   5.865  0.4366 -0.3639 -1.9400
15142TIP3    H266918   0.530   4.274   5.756  0.9728  1.4485 -0.2798
15143TIP3   OH266919   5.964   5.232  11.684  0.1012 -0.0459  0.2270
15143TIP3    H166920   6.037   5.273  11.730  0.3261  2.0793 -1.8166
15143TIP3    H266921   5.984   5.138  11.687  1.1259  0.1703  2.5764
15144TIP3   OH266922   1.592   1.987  14.549  0.0350  0.3736 -0.5028
15144TIP3    H166923   1.633   1.928  14.486  0.2636  0.1017 -0.1056
15144TIP3    H266924   1.501   1.958  14.552 -0.2318  1.0513 -1.4708
15145TIP3   OH266925   2.312   6.213   4.776  0.1713 -0.4209 -0.6272
15145TIP3    H166926   2.239   6.265   4.742 -0.4331  0.1373  1.4006
15145TIP3    H266927   2.382   6.226   4.712 -0.5485  1.4627 -1.0967
15146TIP3   OH266928   4.586   1.826  13.885  0.1894 -0.4399  0.5332
15146TIP3    H166929   4.645   1.751  13.895  1.4075  0.2893 -0.8129
15146TIP3    H266930   4.515   1.795  13.829 -0.2901 -1.0715  1.4568
15147TIP3   OH266931   0.147   2.468  16.970  0.1078  0.3628 -0.5389
15147TIP3    H166932   0.149   2.379  16.933 -1.1206 -0.3426  0.9835
15147TIP3    H266933   0.134   2.525  16.894 -0.6309 -0.8934 -1.3929
15148TIP3   OH266934   6.197   0.710  15.787  0.2780 -0.1649  0.0674
15148TIP3    H166935   6.113   0.756  15.790  0.0375 -0.6534  1.4343
15148TIP3    H266936   6.232   0.718  15.875  0.9575 -1.2687 -0.0820
15149TIP3   OH266937   4.987   5.391  10.261 -0.3187  0.4273 -0.0727
15149TIP3    H166938   5.051   5.331  10.222  0.2481  0.4161  0.8576
15149TIP3    H266939   4.921   5.333  10.300  0.8064  0.3396  1.8079
15150TIP3   OH266940   5.769   5.187  11.337  0.4116  0.0310  0.1162
15150TIP3    H166941   5.831   5.236  11.285  0.4364 -0.3275 -0.1943
15150TIP3    H266942   5.774   5.227  11.424  0.1276  0.8419 -0.2330
15151TIP3   OH266943   6.104   0.505   4.929  0.2755  0.4283 -0.0301
15151TIP3    H166944   6.165   0.567   4.889  0.3306 -0.2386 -1.0356
15151TIP3    H266945   6.067   0.458   4.854  1.3760 -1.8116  0.7431
15152TIP3   OH266946   5.010   4.485   3.632  0.0964  0.3817  0.2057
15152TIP3    H166947   5.068   4.429   3.581  0.8881  0.5738  0.8817
15152TIP3    H266948   4.988   4.431   3.709  0.1473  0.6720  0.4226
15153TIP3   OH266949   2.997   4.051   4.546  0.1901  0.2783  0.1276
15153TIP3    H166950   2.908   4.085   4.534 -0.2947 -1.3835 -1.7326
15153TIP3    H266951   3.026   4.031   4.457  2.1116  0.0155  0.7814
15154TIP3   OH266952   4.139   5.832   2.038 -0.3801 -0.1766  0.0537
15154TIP3    H166953   4.140   5.897   1.967 -0.1955  1.0254  1.1169
15154TIP3    H266954   4.108   5.752   1.996 -1.7853  0.8897 -1.0714
15155TIP3   OH266955   5.779   5.255  13.135  0.7822 -0.1225 -0.1028
15155TIP3    H166956   5.834   5.323  13.173 -1.2331 -0.0083  2.9455
15155TIP3    H266957   5.782   5.184  13.199 -0.9672 -0.9231 -0.8595
15156TIP3   OH266958   6.449   3.979  15.943 -0.0713  0.2971 -0.6772
15156TIP3    H166959   6.389   3.952  16.012  0.5783 -0.6824 -0.4754
15156TIP3    H266960   6.502   4.048  15.982 -2.4562  2.8240 -1.5190
15157TIP3   OH266961   3.905   4.630  16.316 -0.2989  0.3924  0.1795
15157TIP3    H166962   3.946   4.565  16.373 -1.4502 -0.8811 -0.3953
15157TIP3    H266963   3.819   4.645  16.356 -0.4274  0.8187 -0.2468
15158TIP3   OH266964   5.248   4.969   5.739 -0.2903 -0.2033 -0.6820
15158TIP3    H166965   5.226   5.024   5.814 -1.6916 -0.7768 -0.6434
15158TIP3    H266966   5.305   5.024   5.685  0.4949  0.3273  0.6359
15159TIP3   OH266967   6.400   1.727   5.619 -0.2258 -0.0174  0.3707
15159TIP3    H166968   6.470   1.713   5.555 -1.6181  0.2560 -1.2997
15159TIP3    H266969   6.424   1.672   5.693  1.5194 -0.2618 -0.3321
15160TIP3   OH266970   0.855   2.901  16.929  0.1421 -0.4739 -0.3483
15160TIP3    H166971   0.924   2.856  16.978  2.4753  2.5566 -0.5324
15160TIP3    H266972   0.864   2.868  16.840  1.3883 -0.1853 -0.3567
15161TIP3   OH266973   2.499   4.198   0.984 -0.4174 -0.2960  0.2212
15161TIP3    H166974   2.550   4.273   1.015 -1.2538 -0.0705  1.0815
15161TIP3    H266975   2.452   4.231   0.908  2.7845 -1.2482 -2.4191
15162TIP3   OH266976   6.144   1.645  14.683 -0.3865 -0.1067 -0.1469
15162TIP3    H166977   6.236   1.635  14.657 -0.4734  0.3958 -0.6907
15162TIP3    H266978   6.146   1.705  14.757 -0.3268  0.5997 -0.7019
15163TIP3   OH266979   6.367   3.021   5.219  0.1676 -0.6271  0.4661
15163TIP3    H166980   6.416   3.079   5.277  1.1648 -0.1330 -0.8354
15163TIP3    H266981   6.388   2.933   5.250  0.7203 -0.3726  0.8265
15164TIP3   OH266982   3.022   6.528   6.518  0.2660  0.0423  0.1771
15164TIP3    H166983   2.953   6.470   6.485 -0.3116  0.7466  0.1340
15164TIP3    H266984   3.085   6.469   6.560  0.6201 -0.7961 -1.4754
15165TIP3   OH266985   0.060   2.548   1.289  0.5342 -0.6642 -0.4226
15165TIP3    H166986   0.047   2.464   1.333 -1.1970 -0.5717 -0.6836
15165TIP3    H266987   0.063   2.525   1.196  3.6584 -0.8007 -0.3782
15166TIP3   OH266988   3.074   1.901  11.011 -0.4834  0.3053 -0.2560
15166TIP3    H166989   3.133   1.840  11.055 -1.1185 -0.4071 -0.3779
15166TIP3    H266990   3.009   1.845  10.968 -1.3768  1.0864  0.0524
15167TIP3   OH266991   3.511   2.478   1.727  0.2632 -0.3149  0.4797
15167TIP3    H166992   3.562   2.498   1.648  0.8175  0.6849  1.0673
15167TIP3    H266993   3.541   2.542   1.792 -1.2876 -0.1124  1.0451
15168TIP3   OH266994   0.601   0.523   3.796 -0.0314  0.1488 -0.1249
15168TIP3    H166995   0.584   0.430   3.806  0.7943 -0.1371 -1.2141
15168TIP3    H266996   0.676   0.540   3.854 -0.1637  0.1385  0.0515
15169TIP3   OH266997   5.338   6.219  15.704  0.2756 -0.1090  0.3317
15169TIP3    H166998   5.414   6.272  15.678 -0.5397  0.9030 -0.0313
15169TIP3    H266999   5.277   6.228  15.631 -0.5737 -0.1774  1.0237
15170TIP3   OH267000   6.003   0.244   0.828  0.6442  0.2716  0.5138
15170TIP3    H167001   6.034   0.272   0.914  0.6451 -0.3732  0.7321
15170TIP3    H267002   6.072   0.186   0.795  0.1089 -0.4382  0.6076
15171TIP3   OH267003   0.769   6.801  15.457  0.1189  0.2783  0.0848
15171TIP3    H167004   0.809   6.850  15.529 -1.5599 -1.1380  2.1152
15171TIP3    H267005   0.677   6.827  15.460  0.0674  0.4378 -1.8358
15172TIP3   OH267006   2.018   2.540   2.116 -0.3859  0.4993 -0.2881
15172TIP3    H167007   2.031   2.482   2.041 -0.2383  1.4442 -1.0076
15172TIP3    H267008   2.099   2.591   2.121 -0.3356  0.3442  0.6133
15173TIP3   OH267009   6.382   3.158  15.123 -0.4111  0.3547 -0.2618
15173TIP3    H167010   6.301   3.200  15.152 -0.2363 -0.1471  1.0143
15173TIP3    H267011   6.449   3.191  15.183 -0.4562 -2.5124  1.5737
15174TIP3   OH267012   4.130   6.795  15.602 -0.4238  0.3274  0.4625
15174TIP3    H167013   4.130   6.790  15.507  0.5698 -0.3124  0.4900
15174TIP3    H267014   4.218   6.826  15.625 -0.2537 -0.6660  1.2166
15175TIP3   OH267015   4.411   3.327   1.929  0.3486 -0.2610  0.2920
15175TIP3    H167016   4.394   3.324   1.835  0.3932 -0.0264  0.2747
15175TIP3    H267017   4.328   3.300   1.970  0.8804 -2.2306  0.1653
15176TIP3   OH267018   2.098   2.838   3.112  0.2840 -0.1428 -0.3253
15176TIP3    H167019   2.016   2.791   3.094  0.3343  0.1959 -1.5468
15176TIP3    H267020   2.086   2.923   3.069  0.8912  0.2889  0.3392
15177TIP3   OH267021   0.640   5.639   3.362  0.3106  0.1735  0.6427
15177TIP3    H167022   0.619   5.580   3.290 -1.2478 -0.4712  1.5798
15177TIP3    H267023   0.685   5.712   3.320  2.2002 -1.5848 -0.5659
15178TIP3   OH267024   3.247   0.914  11.510 -0.3367  0.0571 -0.4764
15178TIP3    H167025   3.250   0.978  11.581 -0.1632  1.6063 -1.8326
15178TIP3    H267026   3.316   0.851  11.531  0.3736  1.0470  0.2225
15179TIP3   OH267027   5.458   0.618   5.454  0.1412  0.7288 -0.0622
15179TIP3    H167028   5.403   0.625   5.376  0.6709  3.7360 -0.2769
15179TIP3    H267029   5.498   0.531   5.448 -3.3963 -1.0145 -0.6245
15180TIP3   OH267030   3.403   3.939  12.329  0.5042 -0.3292 -0.4797
15180TIP3    H167031   3.446   3.946  12.415  1.8540  0.0894 -1.1658
15180TIP3    H267032   3.452   3.871  12.284 -1.7103 -2.3112 -0.1018
15181TIP3   OH267033   4.350   6.722   3.093  0.2377 -0.2813 -0.0050
15181TIP3    H167034   4.425   6.772   3.060 -1.2676  0.9103 -1.8142
15181TIP3    H267035   4.330   6.661   3.022 -0.0016 -1.1880  0.8267
15182TIP3   OH267036   4.422   6.001   5.050  0.4733  0.2940 -0.1861
15182TIP3    H167037   4.498   6.023   5.103  0.3157  1.0846 -0.2766
15182TIP3    H267038   4.452   5.931   4.992  1.3459  1.0960 -0.7272
15183TIP3   OH267039   2.181   3.821  14.181 -0.8562 -0.0548 -0.1441
15183TIP3    H167040   2.251   3.805  14.245 -0.4351 -0.2325 -0.6497
15183TIP3    H267041   2.193   3.913  14.156 -0.0474 -0.4188 -1.1345
15184TIP3   OH267042   3.747   0.623  14.947  0.1896  0.2565 -0.1549
15184TIP3    H167043   3.660   0.650  14.976  0.9630  1.6802  0.9655
15184TIP3    H267044   3.804   0.698  14.967  2.0030 -1.2746  0.8129
15185TIP3   OH267045   2.911   4.643   4.226 -0.5850 -0.6123 -0.1514
15185TIP3    H167046   2.927   4.609   4.314  0.0755  1.8722  0.7679
15185TIP3    H267047   2.979   4.601   4.172  0.4350 -0.4848  0.9811
15186TIP3   OH267048   4.047   2.409   3.547  0.1640 -0.1289  0.3149
15186TIP3    H167049   4.072   2.497   3.575  0.3092  0.1362 -0.6070
15186TIP3    H267050   3.972   2.387   3.602 -0.4250  0.9316 -0.0216
15187TIP3   OH267051   6.177   1.158  11.759 -0.3395  0.1926 -0.0256
15187TIP3    H167052   6.198   1.096  11.829 -1.4247  0.5592  0.6520
15187TIP3    H267053   6.096   1.199  11.787 -0.5261  0.7251 -1.2695
15188TIP3   OH267054   1.190   5.234   6.373  0.1182  0.0487  0.3334
15188TIP3    H167055   1.144   5.195   6.298  1.3836  0.3405 -0.6268
15188TIP3    H267056   1.140   5.313   6.393 -0.6167 -0.3777  0.2384
15189TIP3   OH267057   4.661   1.573   2.459  0.1430  0.1241  1.0078
15189TIP3    H167058   4.569   1.560   2.480  0.1197 -1.3379  0.1735
15189TIP3    H267059   4.699   1.485   2.463  1.3746  0.6252  0.7849
15190TIP3   OH267060   2.743   5.128   3.485  0.3422 -0.0764  0.1469
15190TIP3    H167061   2.739   5.185   3.562  1.0592  0.4551 -0.2015
15190TIP3    H267062   2.817   5.161   3.434 -0.4655 -0.0522 -1.0571
15191TIP3   OH267063   0.742   3.691   3.210 -0.4098  0.2695 -0.5410
15191TIP3    H167064   0.829   3.684   3.250 -0.0180 -0.9720 -1.5367
15191TIP3    H267065   0.756   3.666   3.118 -1.7391  0.4898 -0.8197
15192TIP3   OH267066   6.162   1.977  12.457 -0.2336 -0.7583  0.1729
15192TIP3    H167067   6.125   2.065  12.468  0.9012 -0.3871  1.3756
15192TIP3    H267068   6.098   1.919  12.497 -0.3709 -0.3236  0.5986
15193TIP3   OH267069   3.474   0.509   0.544 -0.0474 -0.2353 -0.4135
15193TIP3    H167070   3.412   0.580   0.525 -1.4237 -1.1164  0.5829
15193TIP3    H267071   3.423   0.429   0.531  0.7182 -0.9793  0.9590
15194TIP3   OH267072   3.164   4.917   3.030 -0.1830  0.3599 -0.1699
15194TIP3    H167073   3.226   4.954   3.093 -0.1746 -1.0594  0.7001
15194TIP3    H267074   3.218   4.869   2.968 -0.3828 -1.2420  0.8362
15195TIP3   OH267075   4.881   2.379   0.981  0.5435  0.4578 -0.5213
15195TIP3    H167076   4.966   2.335   0.977  1.0399  1.4135 -0.7542
15195TIP3    H267077   4.842   2.349   1.063  0.1357 -1.6929 -1.4361
15196TIP3   OH267078   4.256   3.899   4.745 -0.7736 -0.2652  0.2320
15196TIP3    H167079   4.224   3.819   4.788 -1.5276 -0.8857 -1.4118
15196TIP3    H267080   4.179   3.934   4.700 -0.5647  1.6698  1.2742
15197TIP3   OH267081   0.695   0.394  13.724  0.2658 -0.3377 -0.6100
15197TIP3    H167082   0.650   0.311  13.736  1.5614 -0.8658  0.9717
15197TIP3    H267083   0.787   0.375  13.743  0.3337  1.8232  1.7427
15198TIP3   OH267084   5.447   3.973  15.929 -0.3156 -0.4444  0.5165
15198TIP3    H167085   5.414   3.951  16.016 -0.1687 -0.0453  0.6749
15198TIP3    H267086   5.535   4.008  15.944 -0.5667  0.3102  0.2856
15199TIP3   OH267087   1.591   4.966   4.932  0.2107 -0.0270 -0.1746
15199TIP3    H167088   1.511   5.018   4.921 -0.0305 -0.2161  0.6232
15199TIP3    H267089   1.641   5.012   4.999  1.1137  0.4784 -1.1697
15200TIP3   OH267090   1.647   2.542   6.901  0.4190 -0.5892  0.3066
15200TIP3    H167091   1.668   2.629   6.934 -0.0361 -0.1415 -0.5828
15200TIP3    H267092   1.678   2.542   6.810 -2.0053 -0.4201 -0.5762
15201TIP3   OH267093   2.904   5.970   1.912 -0.1958  0.0734  0.0188
15201TIP3    H167094   2.920   5.891   1.964 -2.3049  0.8400  1.9709
15201TIP3    H267095   2.982   6.023   1.924  0.5774 -1.0151 -0.0210
15202TIP3   OH267096   6.709   5.844  14.542  0.8818  0.6298  0.0361
15202TIP3    H167097   6.773   5.774  14.558  0.6254  0.1822 -0.8589
15202TIP3    H267098   6.663   5.817  14.463  0.2696  1.4535  0.1003
15203TIP3   OH267099   0.698   1.676   2.945  0.1088  0.5003 -0.1165
15203TIP3    H167100   0.659   1.763   2.945 -1.1588 -0.0424  0.2758
15203TIP3    H267101   0.635   1.621   2.992  1.2691 -0.4679  0.3644
15204TIP3   OH267102   6.462   6.371   3.719  0.3726 -0.1592 -0.4680
15204TIP3    H167103   6.517   6.448   3.708 -0.9457  0.9213  0.2143
15204TIP3    H267104   6.413   6.364   3.638  2.5356 -2.0614 -1.7423
15205TIP3   OH267105   2.316   3.704   1.844  0.1412  0.1285  0.2212
15205TIP3    H167106   2.394   3.746   1.809 -0.5045  0.2232 -1.1740
15205TIP3    H267107   2.287   3.646   1.774 -0.8438 -0.1527  0.8472
15206TIP3   OH267108   2.375   0.378  15.168  0.8031  0.0434  0.3497
15206TIP3    H167109   2.289   0.336  15.173  0.7893 -0.1742 -1.2969
15206TIP3    H267110   2.390   0.411  15.257 -0.8989 -0.0559  0.7202
15207TIP3   OH267111   1.048   2.845   0.897  0.4277  0.1044 -0.4148
15207TIP3    H167112   1.083   2.783   0.961  1.8157 -0.2716 -1.4963
15207TIP3    H267113   1.012   2.916   0.951  1.2946 -0.3286  0.7947
15208TIP3   OH267114   1.169   3.523  11.925 -0.7488 -0.6362  0.4712
15208TIP3    H167115   1.151   3.558  12.013 -2.4859 -0.4531  0.0651
15208TIP3    H267116   1.234   3.583  11.889 -0.1467 -0.6039  1.5367
15209TIP3   OH267117   3.158   3.872  14.914 -0.5659  0.5221 -0.4624
15209TIP3    H167118   3.250   3.879  14.940 -0.1805 -2.8326 -0.5000
15209TIP3    H267119   3.148   3.937  14.844  2.1071  0.1958 -1.2630
15210TIP3   OH267120   3.706   5.599   3.864 -0.0584 -0.9038 -0.4153
15210TIP3    H167121   3.683   5.627   3.953 -0.3010 -2.6829  0.1168
15210TIP3    H267122   3.652   5.522   3.849  2.0620 -2.3705 -0.9778
15211TIP3   OH267123   2.888   3.497   2.121 -0.6751  0.5454 -0.5853
15211TIP3    H167124   2.961   3.516   2.180 -0.1042 -1.4057 -0.5928
15211TIP3    H267125   2.823   3.565   2.140  0.9676  2.1111 -0.3074
15212TIP3   OH267126   5.030   5.331   2.249 -0.1548 -0.2087  0.1587
15212TIP3    H167127   5.117   5.292   2.249 -0.4607 -0.9070  0.4364
15212TIP3    H267128   5.027   5.383   2.330  0.8256  1.7593 -0.9789
15213TIP3   OH267129   6.150   4.868  16.747 -0.1894  0.8134  0.3187
15213TIP3    H167130   6.183   4.949  16.709 -1.2373  0.6618 -1.0102
15213TIP3    H267131   6.062   4.889  16.778 -1.8240 -0.4608 -2.9619
15214TIP3   OH267132   2.879   3.910  12.738 -0.3679 -0.2158 -0.1057
15214TIP3    H167133   2.913   3.997  12.760 -1.3559  0.2629 -0.4052
15214TIP3    H267134   2.886   3.906  12.642  2.8204 -1.8268  0.0363
15215TIP3   OH267135   5.790   6.105   5.768 -0.1418  0.0201 -0.2020
15215TIP3    H167136   5.716   6.165   5.777  0.6937  1.1015 -0.3644
15215TIP3    H267137   5.759   6.024   5.808 -0.4603  1.2821  2.3622
15216TIP3   OH267138   4.062   5.970  16.079  0.4364  0.1665 -0.5779
15216TIP3    H167139   4.088   5.982  16.170 -0.0113  1.8728 -0.6407
15216TIP3    H267140   4.137   5.929  16.038  0.5106 -0.9792  0.6245
15217TIP3   OH267141   2.213   3.670   0.425 -0.6567 -0.1526 -0.4388
15217TIP3    H167142   2.143   3.717   0.381 -0.9231  1.2010  1.3041
15217TIP3    H267143   2.270   3.639   0.354 -1.5492  1.0780 -1.7453
15218TIP3   OH267144   2.591   4.305  14.564 -0.1961  0.6207  0.1189
15218TIP3    H167145   2.577   4.231  14.506  0.0975 -0.8118  1.7894
15218TIP3    H267146   2.630   4.267  14.643  0.2191  2.5924  0.9343
15219TIP3   OH267147   3.982   5.006   5.528  0.7715 -0.3557  0.1157
15219TIP3    H167148   4.017   5.014   5.439  0.4078 -2.3941 -0.2608
15219TIP3    H267149   3.910   5.070   5.531  2.9101  2.2622  0.1719
15220TIP3   OH267150   2.243   6.532   5.407 -0.0197 -0.0167 -0.2680
15220TIP3    H167151   2.233   6.627   5.417 -1.7178 -0.0916 -0.9106
15220TIP3    H267152   2.295   6.523   5.326 -1.0463  0.3702 -0.9924
15221TIP3   OH267153   0.731   1.526   4.120 -0.2765 -0.0003  0.0423
15221TIP3    H167154   0.816   1.491   4.147 -0.5425 -0.4728  0.2713
15221TIP3    H267155   0.726   1.508   4.026 -1.3640 -2.6674  0.5206
15222TIP3   OH267156   6.668   3.482   4.976 -0.5175 -0.1806  0.5542
15222TIP3    H167157   6.635   3.397   5.003 -1.4841 -0.0781 -0.2530
15222TIP3    H267158   6.726   3.463   4.902  0.3586 -0.2481  1.2356
15223TIP3   OH267159   5.182   1.124   1.598  0.0862 -0.1540 -0.2858
15223TIP3    H167160   5.148   1.198   1.548  0.9658  0.2806 -0.2518
15223TIP3    H267161   5.230   1.164   1.670 -1.3584 -0.7679  1.0792
15224TIP3   OH267162   4.685   4.547   6.171 -0.4167 -0.8225 -0.3143
15224TIP3    H167163   4.684   4.530   6.265 -0.4589 -0.2541 -0.2095
15224TIP3    H267164   4.662   4.463   6.132  0.6639 -1.3586  0.1322
15225TIP3   OH267165   2.922   0.589  14.575 -0.0837  0.0986  0.2243
15225TIP3    H167166   2.907   0.496  14.592 -0.4179  0.2304  0.6963
15225TIP3    H267167   2.834   0.628  14.579 -0.0751  0.2715 -1.0445
15226TIP3   OH267168   5.716   4.673  11.545 -0.2831  0.2571  0.5537
15226TIP3    H167169   5.695   4.582  11.525  0.7745 -0.4278  2.2693
15226TIP3    H267170   5.801   4.687  11.505  0.3060 -0.0600  1.6552
15227TIP3   OH267171   2.872   5.443  12.370 -0.2196 -0.2975 -1.1038
15227TIP3    H167172   2.864   5.523  12.318  1.0735 -1.0728 -2.5668
15227TIP3    H267173   2.826   5.376  12.319  0.1729 -0.8534 -0.7461
15228TIP3   OH267174   6.757   1.865   2.811  0.0428 -0.5000 -0.1146
15228TIP3    H167175   6.811   1.936   2.778  0.0253 -0.9308 -1.0942
15228TIP3    H267176   6.667   1.898   2.802  0.1009 -0.0031  0.9943
15229TIP3   OH267177   1.295   3.725   0.671 -0.5011 -0.2378  0.1938
15229TIP3    H167178   1.300   3.668   0.595  1.5899 -0.4677  0.4211
15229TIP3    H267179   1.350   3.681   0.737  1.7171  2.2357  0.1656
15230TIP3   OH267180   0.112   3.264   5.056 -0.5959  0.1385  0.3267
15230TIP3    H167181   0.100   3.358   5.044 -0.4124  0.0528 -0.5804
15230TIP3    H267182   0.094   3.226   4.970 -2.0005 -0.7986  0.9984
15231TIP3   OH267183   6.438   6.604  16.528 -0.2077  0.7210  0.7766
15231TIP3    H167184   6.472   6.691  16.507 -0.8220  0.4171 -1.7188
15231TIP3    H267185   6.376   6.584  16.458 -0.7145 -1.4018  1.7362
15232TIP3   OH267186   0.083   3.394  12.616  0.4626 -0.7010  0.3745
15232TIP3    H167187   0.098   3.387  12.521  0.3091  1.6023  0.1167
15232TIP3    H267188   0.141   3.465  12.644 -1.2004  0.2657  1.5538
15233TIP3   OH267189   4.814   1.486   3.831  0.3322 -0.2579  0.3704
15233TIP3    H167190   4.732   1.535   3.835  0.4567 -0.0716  0.6491
15233TIP3    H267191   4.827   1.452   3.920  0.5141 -0.3572  0.3075
15234TIP3   OH267192   5.638   4.615  10.450 -0.2982  0.4817  0.2773
15234TIP3    H167193   5.608   4.563  10.524 -1.9650  0.0035 -0.6717
15234TIP3    H267194   5.558   4.649  10.410  0.6062  1.5406 -0.7348
15235TIP3   OH267195   6.282   0.868   2.653 -0.0098 -0.0426 -0.1137
15235TIP3    H167196   6.244   0.805   2.591  0.2857  0.4561 -0.8074
15235TIP3    H267197   6.211   0.930   2.670 -0.2455 -0.4519  0.4346
15236TIP3   OH267198   5.638   3.817  16.311  0.4667 -0.1670 -0.0598
15236TIP3    H167199   5.698   3.800  16.384 -0.5395 -0.2172  0.7686
15236TIP3    H267200   5.570   3.872  16.348 -1.2149 -1.9363 -0.3844
15237TIP3   OH267201   1.845   5.994   0.988 -0.0545 -0.2522 -0.1201
15237TIP3    H167202   1.799   6.020   0.909  0.5852  0.5290 -0.2461
15237TIP3    H267203   1.868   5.902   0.973  0.4876  0.0246 -1.0544
15238TIP3   OH267204   3.077   0.387   4.023 -0.2540 -0.7030  0.1566
15238TIP3    H167205   3.124   0.438   3.957 -1.1254  1.0988  0.8440
15238TIP3    H267206   3.010   0.340   3.973  1.2408 -2.1141 -0.6283
15239TIP3   OH267207   0.283   2.362   2.435 -0.0510  0.3818  0.3413
15239TIP3    H167208   0.210   2.401   2.485 -1.0219 -2.0900  1.0050
15239TIP3    H267209   0.345   2.333   2.502  0.0475 -0.3103 -0.0421
15240TIP3   OH267210   1.160   1.798   0.428 -0.5584 -0.5027  0.0511
15240TIP3    H167211   1.203   1.828   0.508  1.1848  2.3537 -1.7997
15240TIP3    H267212   1.092   1.863   0.411 -0.2091 -0.4637 -1.3293
15241TIP3   OH267213   0.516   3.902   1.480 -0.7850 -0.3605 -0.1895
15241TIP3    H167214   0.598   3.916   1.433 -2.4158  5.1522 -2.2636
15241TIP3    H267215   0.538   3.921   1.572  0.3030  1.2051 -0.7334
15242TIP3   OH267216   0.257   1.584  14.290 -0.4845 -0.0217  0.3968
15242TIP3    H167217   0.306   1.563  14.211 -0.9198 -1.6575  0.5130
15242TIP3    H267218   0.322   1.619  14.351  0.1972 -0.4211 -0.0855
15243TIP3   OH267219   0.940   0.299  17.067  0.4660 -0.3330 -0.1775
15243TIP3    H167220   0.845   0.306  17.059  0.4959  1.6085  0.5479
15243TIP3    H267221   0.967   0.383  17.105  2.2540 -1.6979  1.7520
15244TIP3   OH267222   0.885   2.252   3.201  0.5372 -0.4947  0.4617
15244TIP3    H167223   0.815   2.205   3.156  1.0536 -0.6658 -0.1862
15244TIP3    H267224   0.878   2.225   3.292 -1.9477  1.5544  0.9936
15245TIP3   OH267225   6.172   4.258  12.335  0.7869 -0.2527  0.0270
15245TIP3    H167226   6.205   4.298  12.415 -0.1223  1.1565 -0.2612
15245TIP3    H267227   6.212   4.308  12.264  0.0955 -0.2346 -0.3652
15246TIP3   OH267228   2.075   0.949  12.844  0.4945 -0.0302 -0.4167
15246TIP3    H167229   2.036   0.977  12.927 -1.2456  1.2532 -1.5942
15246TIP3    H267230   2.150   1.007  12.832  0.0136  0.6145 -0.3258
15247TIP3   OH267231   5.877   2.691  14.710  0.4590 -0.0226  0.2277
15247TIP3    H167232   5.954   2.646  14.675 -1.2210 -1.8076 -1.4353
15247TIP3    H267233   5.804   2.657  14.658 -1.8880 -0.6066  3.5667
15248TIP3   OH267234   6.266   3.639  12.982  0.4503  0.6638  0.2978
15248TIP3    H167235   6.172   3.625  12.973  0.4182 -0.7700  2.1843
15248TIP3    H267236   6.305   3.592  12.909 -0.2366 -0.2334  0.4911
15249TIP3   OH267237   5.682   5.944  14.434  0.1790  0.2025 -0.5919
15249TIP3    H167238   5.654   5.970  14.346  1.5856 -0.9848 -1.4430
15249TIP3    H267239   5.763   5.896  14.419  0.4929  0.0643  1.3879
15250TIP3   OH267240   4.435   1.448  17.047  0.5665  0.4094 -0.0928
15250TIP3    H167241   4.361   1.459  17.106 -0.2918 -0.1772 -1.0352
15250TIP3    H267242   4.396   1.428  16.962  1.7938  0.4771 -0.6985
15251TIP3   OH267243   1.149   5.113   2.055 -0.4653 -0.0422  0.0210
15251TIP3    H167244   1.090   5.050   2.098 -1.3468  0.9631  0.3247
15251TIP3    H267245   1.090   5.179   2.018  0.4411  0.5741 -0.3479
15252TIP3   OH267246   2.874   4.552   2.211 -0.0664  0.0128 -0.1156
15252TIP3    H167247   2.926   4.479   2.176 -1.8009 -1.7518  0.7398
15252TIP3    H267248   2.805   4.565   2.146 -0.4104  0.1184  0.2640
15253TIP3   OH267249   5.748   4.179   0.788 -0.1746  0.0154 -0.1384
15253TIP3    H167250   5.816   4.125   0.749  0.6497  0.7940  0.1731
15253TIP3    H267251   5.736   4.251   0.726 -0.6430 -0.0661 -0.1429
15254TIP3   OH267252   1.188   0.552  13.683  0.6922  0.1570 -0.2398
15254TIP3    H167253   1.109   0.541  13.630  1.7566  1.8418 -2.3451
15254TIP3    H267254   1.258   0.512  13.631  1.0938 -3.2225  2.5108
15255TIP3   OH267255   2.373   1.071  12.465  0.1000  0.1096 -0.1073
15255TIP3    H167256   2.364   0.976  12.454  0.1723  0.2615 -1.7560
15255TIP3    H267257   2.465   1.083  12.488  0.2418 -0.1834 -0.5004
15256TIP3   OH267258   6.582   4.811   0.106  0.1706  0.5810  0.0735
15256TIP3    H167259   6.573   4.731   0.158  0.4236  0.3388 -0.2456
15256TIP3    H267260   6.494   4.831   0.076  0.2336 -0.0842 -0.5796
15257TIP3   OH267261   3.905   2.927   1.941  0.5390 -0.3616  0.4981
15257TIP3    H167262   3.952   3.008   1.956  1.6438 -0.4380 -2.0358
15257TIP3    H267263   3.930   2.870   2.014  1.7666  0.7250  0.9531
15258TIP3   OH267264   5.291   6.133  14.417 -0.0786  1.0022  0.2582
15258TIP3    H167265   5.307   6.050  14.462 -0.3576  1.7804  1.8544
15258TIP3    H267266   5.323   6.118  14.328 -0.0262 -0.7755  0.5347
15259TIP3   OH267267   4.172   2.970  15.962  0.0482  0.1735 -0.4836
15259TIP3    H167268   4.177   3.007  16.050  1.8591 -1.1492  0.0316
15259TIP3    H267269   4.237   3.019  15.911 -1.4854  1.4191 -1.3303
15260TIP3   OH267270   5.336   5.554  17.178 -0.0314 -0.0788  0.0885
15260TIP3    H167271   5.416   5.567  17.127  0.2351 -0.4696  0.4029
15260TIP3    H267272   5.316   5.461  17.168  0.1965 -0.2293  0.9437
15261TIP3   OH267273   4.124   2.481   4.728  0.3225  0.2741  0.4393
15261TIP3    H167274   4.167   2.541   4.666  0.5314  0.7520  1.0393
15261TIP3    H267275   4.033   2.479   4.699  0.9169 -1.7191 -1.6277
15262TIP3   OH267276   0.566   0.537   2.968 -0.1869  0.5318 -0.5557
15262TIP3    H167277   0.558   0.581   2.884 -0.0441  0.9072 -0.3745
15262TIP3    H267278   0.559   0.607   3.033  0.3165  0.3271 -0.2752
15263TIP3   OH267279   0.118   2.679   3.976  0.6501  0.3452  0.0529
15263TIP3    H167280   0.148   2.732   3.902  2.3140  1.2645  1.3183
15263TIP3    H267281   0.175   2.704   4.049 -1.5693  0.2375  1.9568
15264TIP3   OH267282   2.371   1.231  11.039 -0.5597 -0.7126 -0.0585
15264TIP3    H167283   2.327   1.278  10.968 -0.3696 -1.4999 -0.7194
15264TIP3    H267284   2.341   1.140  11.030  0.9803 -1.2233 -0.3676
15265TIP3   OH267285   6.221   2.741  15.817 -0.2575  0.5405  0.2140
15265TIP3    H167286   6.227   2.825  15.863  0.4117 -0.2597  1.6833
15265TIP3    H267287   6.174   2.684  15.878  1.1208 -0.7076  0.1625
15266TIP3   OH267288   5.751   1.531   1.440 -0.0830  0.1979 -0.2036
15266TIP3    H167289   5.774   1.466   1.507  2.2604 -0.3925 -1.5022
15266TIP3    H267290   5.781   1.493   1.358 -0.6267  2.0093 -1.2879
15267TIP3   OH267291   6.006   2.049   2.678 -0.2050  0.0434 -0.4245
15267TIP3    H167292   6.013   1.955   2.665  2.0984  0.2481 -1.1589
15267TIP3    H267293   6.095   2.082   2.667 -0.9948  2.3690 -0.5682
15268TIP3   OH267294   2.744   1.270   5.011 -0.1367 -0.4899  0.2394
15268TIP3    H167295   2.816   1.332   4.997 -0.9519  0.4222  0.0310
15268TIP3    H267296   2.722   1.239   4.923  0.1354 -0.9380  0.3250
15269TIP3   OH267297   6.034   2.213   3.488  0.3950 -0.1851 -0.6215
15269TIP3    H167298   6.014   2.290   3.434  0.5322  1.2833  1.3273
15269TIP3    H267299   5.958   2.205   3.546  0.3591 -1.5819 -0.8456
15270TIP3   OH267300   3.319   1.882  11.605  0.0709 -0.2093  0.5731
15270TIP3    H167301   3.312   1.893  11.699  0.2750 -0.1296  0.5811
15270TIP3    H267302   3.232   1.902  11.571  0.8867  4.1533  0.3455
15271TIP3   OH267303   4.496   6.110   5.399  0.4206  0.1237 -0.3479
15271TIP3    H167304   4.518   6.105   5.492  0.8795  0.7763 -0.4137
15271TIP3    H267305   4.581   6.114   5.355  0.2189  2.0065 -0.6514
15272TIP3   OH267306   2.897   3.398   5.143 -0.8988  0.3407  0.3349
15272TIP3    H167307   2.809   3.431   5.127 -0.3651  1.3511 -0.7143
15272TIP3    H267308   2.939   3.400   5.057  0.0657 -0.3915  0.7668
15273TIP3   OH267309   0.014   2.638  14.757 -0.3225  0.2233  0.0400
15273TIP3    H167310  -0.050   2.585  14.708 -1.2270  1.0923  0.2605
15273TIP3    H267311   0.071   2.674  14.689 -1.1513  0.8681 -0.3296
15274TIP3   OH267312   5.171   5.824  13.963 -0.1012  0.0401  0.6627
15274TIP3    H167313   5.248   5.780  13.925 -0.0059  0.2917  0.5649
15274TIP3    H267314   5.096   5.782  13.921 -0.0139 -0.1468  0.6931
15275TIP3   OH267315   2.169   1.717   1.992  0.0903 -0.1399  0.3895
15275TIP3    H167316   2.158   1.806   1.957 -1.2313 -0.4952 -0.1683
15275TIP3    H267317   2.081   1.690   2.015  0.5711 -1.0674  1.1959
15276TIP3   OH267318   0.217   3.006   0.387 -0.0470 -0.4645  0.2837
15276TIP3    H167319   0.222   3.089   0.434  0.9918 -0.3051 -0.0643
15276TIP3    H267320   0.286   2.953   0.426 -0.3708 -0.9835  0.1560
15277TIP3   OH267321   4.205   5.950  12.904 -0.7949  0.0466  0.1344
15277TIP3    H167322   4.168   5.925  12.819 -0.6569  1.5687 -0.4067
15277TIP3    H267323   4.299   5.933  12.895 -1.0302 -1.7236  0.7289
15278TIP3   OH267324   6.636   0.876   6.791 -0.3453  0.1059  0.5550
15278TIP3    H167325   6.690   0.798   6.801 -0.1523  0.2273  0.4660
15278TIP3    H267326   6.614   0.880   6.698  0.0002  0.3898  0.4829
15279TIP3   OH267327   0.148   5.118   2.523  0.3583  0.1135 -0.3814
15279TIP3    H167328   0.096   5.045   2.558 -0.0043 -0.2189 -1.5480
15279TIP3    H267329   0.178   5.166   2.600 -1.5689  0.2215  0.3527
15280TIP3   OH267330   6.395   3.991  16.911 -0.5743  0.0794  0.3051
15280TIP3    H167331   6.336   3.930  16.955 -0.3122 -0.1762  0.3020
15280TIP3    H267332   6.480   3.948  16.911 -0.8465 -0.5572 -1.6848
15281TIP3   OH267333   2.310   5.707  16.142  0.4241 -0.0386 -0.1428
15281TIP3    H167334   2.294   5.665  16.057 -0.9521  0.8690 -0.3587
15281TIP3    H267335   2.267   5.792  16.135  0.2786  0.0450  1.4720
15282TIP3   OH267336   3.621   5.216   1.468 -0.1156 -0.0336 -0.5225
15282TIP3    H167337   3.540   5.239   1.514 -0.3677 -0.3035 -0.8283
15282TIP3    H267338   3.604   5.130   1.430  0.9324 -0.8989  0.8659
15283TIP3   OH267339   2.331   2.406   5.078  0.3487 -0.3278  0.6422
15283TIP3    H167340   2.293   2.472   5.136  0.4508 -0.3626  0.7484
15283TIP3    H267341   2.262   2.389   5.013  1.0155  1.2822 -0.5338
15284TIP3   OH267342   0.791   0.057  14.914 -0.1443 -0.8636  0.4013
15284TIP3    H167343   0.705   0.015  14.920 -0.1223 -0.7315  2.6719
15284TIP3    H267344   0.831   0.043  15.000  0.4503  2.5436  0.8372
15285TIP3   OH267345   3.446   1.720   3.236  0.4887  0.0502  0.0582
15285TIP3    H167346   3.495   1.790   3.193 -0.5892  0.5422 -0.3954
15285TIP3    H267347   3.466   1.641   3.186 -0.0332  0.4504 -0.7954
15286TIP3   OH267348   5.920   4.262  11.821  0.0304  0.0728 -0.6186
15286TIP3    H167349   5.906   4.186  11.877  3.4216 -0.1012  0.2241
15286TIP3    H267350   5.898   4.337  11.876  0.3605 -0.1991 -0.1034
15287TIP3   OH267351   2.642   3.052   3.124  0.6345 -0.2160 -0.1440
15287TIP3    H167352   2.715   3.056   3.061  1.0702 -0.9529  0.2933
15287TIP3    H267353   2.668   2.984   3.186  0.0504  0.2616  0.6407
15288TIP3   OH267354   3.493   0.929   1.834 -0.0765 -0.0927  0.0614
15288TIP3    H167355   3.580   0.897   1.807 -0.2588 -0.2338 -0.3638
15288TIP3    H267356   3.442   0.930   1.753 -0.6194 -0.4815  0.3958
15289TIP3   OH267357   0.671   5.756  17.236 -0.0103  0.2181  0.1221
15289TIP3    H167358   0.739   5.805  17.190 -0.7189  0.8721 -0.2412
15289TIP3    H267359   0.642   5.814  17.306  0.1683 -0.2693  0.6159
15290TIP3   OH267360   6.384   0.363  10.833  0.2519  0.2062  0.1574
15290TIP3    H167361   6.448   0.412  10.885  0.3308  0.2870 -0.0142
15290TIP3    H267362   6.417   0.368  10.743  0.6138 -0.7300  0.2310
15291TIP3   OH267363   1.241   0.723   4.884  0.7675 -0.4187  0.6701
15291TIP3    H167364   1.326   0.680   4.884  0.1966 -1.7685 -2.3229
15291TIP3    H267365   1.180   0.655   4.915  0.2879 -0.8435 -1.0962
15292TIP3   OH267366   0.536   4.062  17.166 -0.3094 -0.1211  0.1685
15292TIP3    H167367   0.513   3.973  17.140 -2.0949 -0.5259  2.7332
15292TIP3    H267368   0.612   4.052  17.222  0.7624  0.2636 -1.1487
15293TIP3   OH267369   3.885   6.102   1.389  0.5306 -0.7930  0.2282
15293TIP3    H167370   3.810   6.093   1.330 -0.2336  1.7489  0.6898
15293TIP3    H267371   3.852   6.075   1.475  0.7544 -1.5755  0.0766
15294TIP3   OH267372   0.192   5.580   4.672  0.4135 -0.4214  0.1533
15294TIP3    H167373   0.248   5.653   4.697 -0.7813  1.4864 -2.3105
15294TIP3    H267374   0.135   5.615   4.604 -2.2200 -2.8868  0.8709
15295TIP3   OH267375   3.723   6.683   4.299 -0.2119 -0.4187  0.0513
15295TIP3    H167376   3.709   6.590   4.279  2.1841 -0.8343 -0.0255
15295TIP3    H267377   3.792   6.710   4.239  0.7467  0.7713  1.6127
15296TIP3   OH267378   5.146   0.343   4.782 -0.1458 -0.4243 -0.2120
15296TIP3    H167379   5.196   0.339   4.864 -1.3969 -0.4760  0.5855
15296TIP3    H267380   5.091   0.265   4.784  0.5226 -0.9689 -1.6235
15297TIP3   OH267381   4.030   0.393  12.983  1.5635  0.0755  0.0040
15297TIP3    H167382   4.091   0.330  12.945  1.0298 -1.3026  1.3060
15297TIP3    H267383   3.966   0.339  13.030 -1.3623  1.3731 -2.1995
15298TIP3   OH267384   4.296   6.287   5.340  0.5183 -0.0460  0.1196
15298TIP3    H167385   4.335   6.332   5.265  0.1261 -1.1121 -0.7454
15298TIP3    H267386   4.353   6.212   5.355 -0.2117 -0.6375 -0.0418
15299TIP3   OH267387   2.349   3.609   4.847  0.4323  0.4982  0.1262
15299TIP3    H167388   2.358   3.517   4.871 -2.1794  0.9212  3.4055
15299TIP3    H267389   2.434   3.648   4.870  0.8085 -0.6970  0.8281
15300TIP3   OH267390   4.191   1.583   0.133  0.2762 -0.3069 -0.6318
15300TIP3    H167391   4.195   1.551   0.043  0.0627  0.0836 -0.7828
15300TIP3    H267392   4.278   1.621   0.149 -0.2768  1.2808 -1.3035
15301TIP3   OH267393   4.616   4.181  14.625  0.6533  0.0705 -0.1238
15301TIP3    H167394   4.659   4.141  14.700  0.8917 -1.4285 -1.0224
15301TIP3    H267395   4.677   4.248  14.595 -0.2272  2.0180  2.0661
15302TIP3   OH267396   0.861   1.288  12.072  0.1130 -0.2859  0.1890
15302TIP3    H167397   0.901   1.371  12.046 -0.6862 -0.0195 -0.2258
15302TIP3    H267398   0.788   1.313  12.128 -1.3889 -0.5572 -1.5323
15303TIP3   OH267399   5.401   1.930   4.344  0.3332  0.3363  0.0870
15303TIP3    H167400   5.475   1.973   4.387  0.1006  1.6150 -0.7277
15303TIP3    H267401   5.378   1.857   4.401  0.7039  1.3449  1.5684
15304TIP3   OH267402   0.618   0.502  16.580 -0.4799 -0.8875  0.6727
15304TIP3    H167403   0.683   0.484  16.648  0.5832 -0.3934 -0.1701
15304TIP3    H267404   0.549   0.550  16.625  0.9173  0.7913  1.1334
15305TIP3   OH267405   0.922   0.932   4.928 -0.2771  0.1562  0.4779
15305TIP3    H167406   0.850   0.879   4.963 -0.6266  0.3594  0.0747
15305TIP3    H267407   0.941   0.894   4.842 -0.9549  1.0490 -0.0978
15306TIP3   OH267408   1.348   3.281  16.313 -0.0490 -0.0470  0.1153
15306TIP3    H167409   1.263   3.238  16.308  0.3260 -0.7613 -0.2847
15306TIP3    H267410   1.354   3.334  16.233  0.6045 -1.3850 -0.7482
15307TIP3   OH267411   5.978   6.319  11.433  0.0833  0.2966 -0.7977
15307TIP3    H167412   5.987   6.404  11.476 -0.1857 -0.4228  0.7527
15307TIP3    H267413   6.024   6.258  11.490 -0.4584 -0.7318 -1.4246
15308TIP3   OH267414   3.563   3.390  14.082 -0.0499  0.4574  0.3290
15308TIP3    H167415   3.529   3.453  14.146 -0.9949  0.7117 -0.4112
15308TIP3    H267416   3.601   3.320  14.136 -1.2007  0.4617  1.1926
15309TIP3   OH267417   6.226   2.342   0.971  0.2010  0.2031  0.2928
15309TIP3    H167418   6.247   2.292   0.892  1.3709  1.4984 -0.2624
15309TIP3    H267419   6.130   2.341   0.976 -0.0614  2.0949 -2.5333
15310TIP3   OH267420   3.655   3.675  12.772  0.7538  0.4101  0.3649
15310TIP3    H167421   3.721   3.616  12.736 -1.3602 -1.6660 -0.3850
15310TIP3    H267422   3.634   3.638  12.858 -2.5171 -1.7957 -1.1750
15311TIP3   OH267423   2.557   4.513  11.404 -0.5586 -0.0811  0.1546
15311TIP3    H167424   2.497   4.569  11.356 -0.1836 -1.3171 -1.9172
15311TIP3    H267425   2.518   4.426  11.399  0.0723 -0.4370  1.1346
15312TIP3   OH267426   1.642   4.459   4.852  0.3582  0.2038  0.3059
15312TIP3    H167427   1.733   4.466   4.880  0.2584  1.3229  0.3944
15312TIP3    H267428   1.625   4.540   4.804 -0.1573 -0.6351 -1.0020
15313TIP3   OH267429   3.584   4.157  13.996  0.1132 -0.0699 -0.3651
15313TIP3    H167430   3.524   4.212  14.046 -0.2848 -0.2269 -0.6637
15313TIP3    H267431   3.585   4.074  14.043 -1.3367 -0.6886 -1.3557
15314TIP3   OH267432   5.100   5.610  15.482  0.8979  0.1637  0.0010
15314TIP3    H167433   5.153   5.621  15.561  1.3194  0.5401 -0.3244
15314TIP3    H267434   5.014   5.584  15.514  1.2246 -0.2695  0.5509
15315TIP3   OH267435   3.659   0.840  14.263 -0.0582 -0.1161  0.1557
15315TIP3    H167436   3.741   0.791  14.263 -0.4122 -0.7164  0.1847
15315TIP3    H267437   3.621   0.821  14.349  0.3103  1.0877  0.6097
15316TIP3   OH267438   4.868   2.919  14.598  0.3772 -0.0355  0.0340
15316TIP3    H167439   4.838   2.903  14.509 -0.6349  2.0753 -0.0711
15316TIP3    H267440   4.951   2.967  14.587  2.1573 -2.8519  0.3115
15317TIP3   OH267441   1.862   1.271   1.583 -0.1373  0.3511  0.2072
15317TIP3    H167442   1.948   1.231   1.567 -0.5937 -1.5110  1.9570
15317TIP3    H267443   1.870   1.311   1.670 -1.6938 -2.0851  1.5772
15318TIP3   OH267444   1.428   3.887  15.822 -0.1274 -0.7777 -0.5195
15318TIP3    H167445   1.457   3.928  15.741 -1.0022 -0.1480 -0.5347
15318TIP3    H267446   1.382   3.807  15.794 -0.1726 -0.7140 -0.6293
15319TIP3   OH267447   4.771   5.878   5.244 -0.1816 -0.2363 -1.3351
15319TIP3    H167448   4.801   5.867   5.334  1.4565 -0.6160 -1.8779
15319TIP3    H267449   4.738   5.791   5.219 -1.4109  0.0779 -0.8631
15320TIP3   OH267450   1.636   3.769  12.763 -0.3861  0.0963 -0.3060
15320TIP3    H167451   1.688   3.847  12.743  1.8086 -1.0800  0.4386
15320TIP3    H267452   1.627   3.724  12.679 -0.1156  0.2754 -0.4312
15321TIP3   OH267453   5.315   5.416  12.106  0.7623  0.0254 -0.0680
15321TIP3    H167454   5.224   5.436  12.132  0.5943 -2.0420  1.1854
15321TIP3    H267455   5.337   5.484  12.042 -0.9188  1.8786  1.1741
15322TIP3   OH267456   3.555   4.179  10.531  0.1464  0.4778 -0.3169
15322TIP3    H167457   3.564   4.234  10.452 -0.8155  1.1396  0.0104
15322TIP3    H267458   3.504   4.233  10.591 -0.3483 -0.5732  0.2285
15323TIP3   OH267459   3.353   6.731   3.006  0.8751 -0.3676  0.5674
15323TIP3    H167460   3.404   6.667   2.957  1.1959 -1.0618  1.7757
15323TIP3    H267461   3.304   6.680   3.071 -1.3606  0.2635 -0.4972
15324TIP3   OH267462   0.617   4.604  15.174  0.1259  0.3828  0.1243
15324TIP3    H167463   0.556   4.575  15.107 -1.0984  1.4536  0.7332
15324TIP3    H267464   0.690   4.542  15.169 -1.9979 -2.4297  0.9312
15325TIP3   OH267465   2.872   1.129   1.401 -0.0616 -0.0520 -0.4054
15325TIP3    H167466   2.881   1.146   1.307  0.6563 -0.7909 -0.4840
15325TIP3    H267467   2.831   1.209   1.436  0.0826  0.4156 -1.2710
15326TIP3   OH267468   4.411   4.318   6.917 -0.1485  0.2193  0.0921
15326TIP3    H167469   4.452   4.389   6.868  2.1117  1.2602  3.1038
15326TIP3    H267470   4.319   4.342   6.923  0.0189  1.3522 -1.3752
15327TIP3   OH267471   6.249   0.002   3.316 -0.1435  0.2072  0.5158
15327TIP3    H167472   6.196   0.004   3.395 -0.4924  0.5248  0.2736
15327TIP3    H267473   6.254  -0.091   3.293  0.1126  0.0920  1.0057
15328TIP3   OH267474   3.702   5.253   2.082  0.0589 -0.3202  0.2765
15328TIP3    H167475   3.789   5.266   2.046  0.4794  0.2052  1.4202
15328TIP3    H267476   3.717   5.215   2.169 -0.8297  0.0465  0.6057
15329TIP3   OH267477   5.242   2.370   2.261  0.2002  0.1323  0.4777
15329TIP3    H167478   5.168   2.397   2.315  0.8909  0.6103  1.2117
15329TIP3    H267479   5.249   2.276   2.274 -1.2853 -0.2096 -0.8961
15330TIP3   OH267480   4.888   1.823   6.354  0.3086 -0.2653 -0.5267
15330TIP3    H167481   4.949   1.770   6.303  0.9748  0.3926 -0.4262
15330TIP3    H267482   4.803   1.809   6.311  0.5764 -0.9250 -0.8676
15331TIP3   OH267483   6.703   1.810  13.321 -0.1671  0.3390  0.3087
15331TIP3    H167484   6.713   1.813  13.226 -0.9217  0.6012  0.2301
15331TIP3    H267485   6.790   1.790  13.354  0.3397  1.3164 -0.3836
15332TIP3   OH267486   2.658   2.313  11.212 -0.3368  0.0979  0.3193
15332TIP3    H167487   2.711   2.265  11.148 -0.3987  1.4027 -0.7537
15332TIP3    H267488   2.721   2.357  11.268 -0.2520  1.1999 -0.6105
15333TIP3   OH267489   6.387   1.794  11.871  0.2961 -0.5083 -0.2678
15333TIP3    H167490   6.401   1.756  11.784 -0.9606  0.1294 -0.7752
15333TIP3    H267491   6.358   1.884  11.854 -0.6713 -0.5964  0.7844
15334TIP3   OH267492   6.328   5.751  12.285  0.0353 -0.1069 -0.2890
15334TIP3    H167493   6.275   5.727  12.361 -0.0075  0.1418 -0.2394
15334TIP3    H267494   6.337   5.669  12.236  0.2719 -0.3242  0.1101
15335TIP3   OH267495   6.653   1.497  14.013  0.2101  0.5208 -0.7194
15335TIP3    H167496   6.701   1.558  13.957  1.5939 -0.3835 -0.5749
15335TIP3    H267497   6.697   1.502  14.097  1.0441 -1.3927 -0.9742
15336TIP3   OH267498   0.772   0.332  16.761 -0.0949 -0.0328  0.2495
15336TIP3    H167499   0.811   0.254  16.801  2.2118  0.4717 -0.8472
15336TIP3    H267500   0.678   0.315  16.760  0.3088 -2.5410  0.5519
15337TIP3   OH267501   5.850   1.499  16.599 -0.3326 -0.3166 -0.8618
15337TIP3    H167502   5.845   1.593  16.614  0.1192  0.0502 -2.7997
15337TIP3    H267503   5.874   1.463  16.684 -0.6469  1.2911 -0.0451
15338TIP3   OH267504   3.335   0.103  14.388 -0.1341 -0.0890 -0.2954
15338TIP3    H167505   3.324   0.195  14.364  0.8985  0.0015 -0.4693
15338TIP3    H267506   3.286   0.093  14.470  0.9003  0.9653  0.4721
15339TIP3   OH267507   6.151   4.151  16.513  0.2557  0.2892  0.2084
15339TIP3    H167508   6.069   4.131  16.467  0.3417 -1.1484  0.6457
15339TIP3    H267509   6.125   4.214  16.580 -0.1806  1.0893 -0.6897
15340TIP3   OH267510   3.756   0.210  14.620  0.0415 -0.2304 -0.0568
15340TIP3    H167511   3.777   0.301  14.644  0.2377 -0.5809  1.1596
15340TIP3    H267512   3.841   0.171  14.600 -0.1614  0.2058 -2.0062
15341TIP3   OH267513   3.096   4.287  13.064  0.1981  0.3690 -0.1931
15341TIP3    H167514   3.026   4.348  13.087  0.9500  1.6612 -1.1597
15341TIP3    H267515   3.151   4.282  13.143 -0.2186  0.4363  0.1017
15342TIP3   OH267516   2.276   1.146  15.104  0.2760  0.0022  0.3577
15342TIP3    H167517   2.354   1.103  15.070 -0.6958  0.1983 -2.3784
15342TIP3    H267518   2.206   1.116  15.046 -1.3054  1.4411  1.4529
15343TIP3   OH267519   5.962   5.551  11.113 -0.2945 -0.3185  0.6099
15343TIP3    H167520   5.871   5.558  11.142 -0.3179  1.3245  0.2531
15343TIP3    H267521   5.972   5.623  11.050  0.4238 -2.2840 -1.6654
15344TIP3   OH267522   1.405   1.654  16.051  0.1014  0.8462  0.3611
15344TIP3    H167523   1.363   1.734  16.022  0.8456  0.2526 -2.7382
15344TIP3    H267524   1.347   1.618  16.117 -0.5598  3.5684  1.3820
15345TIP3   OH267525   3.772   3.912   5.748 -0.2269  0.0732 -0.2054
15345TIP3    H167526   3.798   3.956   5.830 -2.2441 -1.3857  1.3194
15345TIP3    H267527   3.831   3.837   5.742  0.1923  0.4064 -0.3287
15346TIP3   OH267528   0.943   6.709  15.886  0.6806  0.5665 -0.3407
15346TIP3    H167529   0.990   6.759  15.819  0.4985  2.3101  0.7691
15346TIP3    H267530   0.850   6.729  15.871  0.4330 -0.9422 -1.0180
15347TIP3   OH267531   1.388   2.417  14.000 -0.8902  0.2962  0.7430
15347TIP3    H167532   1.306   2.391  14.043 -1.6363  0.6178 -0.4512
15347TIP3    H267533   1.401   2.508  14.025 -1.4189  0.5370  0.1466
15348TIP3   OH267534   0.813   4.959   3.026 -0.2542 -0.3740 -0.4856
15348TIP3    H167535   0.746   5.001   2.973  0.8834  0.2536 -1.4484
15348TIP3    H267536   0.793   4.865   3.019 -0.9704 -0.2026 -0.8314
15349TIP3   OH267537   5.503   2.616  16.657  0.3185  0.1901  0.1838
15349TIP3    H167538   5.566   2.626  16.729  0.0336  0.2619  0.4232
15349TIP3    H267539   5.423   2.656  16.690 -0.1943 -0.9193  0.3082
15350TIP3   OH267540   6.220   6.183  12.450 -0.4429 -0.1171 -0.4221
15350TIP3    H167541   6.202   6.246  12.380  0.1857 -1.1038 -1.4988
15350TIP3    H267542   6.291   6.224  12.501  0.0595  0.0020 -1.1922
15351TIP3   OH267543   6.587   2.251   1.978  0.7629  0.1219 -0.5314
15351TIP3    H167544   6.598   2.301   1.897  2.3830 -0.3559 -0.6413
15351TIP3    H267545   6.515   2.191   1.960 -1.0370  2.1620 -0.4960
15352TIP3   OH267546   6.337   6.042   1.710 -0.4144  0.4001  0.1837
15352TIP3    H167547   6.280   6.097   1.656  0.5357  1.7162  0.4562
15352TIP3    H267548   6.419   6.036   1.661  0.3607  1.3691  1.2816
15353TIP3   OH267549   0.270   3.872  14.908 -0.1115  0.2291  0.3937
15353TIP3    H167550   0.281   3.954  14.860  2.0686 -0.8204 -1.0692
15353TIP3    H267551   0.181   3.844  14.888 -0.0379  0.9973 -1.1734
15354TIP3   OH267552   1.650   3.207   0.258  0.1999 -0.1466  0.3494
15354TIP3    H167553   1.695   3.134   0.303  1.1983  0.8082  0.9578
15354TIP3    H267554   1.643   3.275   0.325 -0.7150  0.3336 -0.2185
15355TIP3   OH267555   0.133   2.393   5.505  0.4793  0.2616  0.8655
15355TIP3    H167556   0.149   2.466   5.445  0.6762 -1.0472 -0.7365
15355TIP3    H267557   0.040   2.397   5.524  0.2690  0.2523 -0.1415
15356TIP3   OH267558   4.557   6.740  10.433 -0.1784  0.0176 -0.1273
15356TIP3    H167559   4.566   6.661  10.485 -1.6599 -0.1580 -0.1060
15356TIP3    H267560   4.645   6.778  10.432  0.4905 -1.4454  0.1208
15357TIP3   OH267561   4.285   5.226   1.098  0.4138 -0.3315 -0.1947
15357TIP3    H167562   4.252   5.264   1.016  0.3464 -1.3965 -0.6765
15357TIP3    H267563   4.339   5.296   1.136  0.1753  0.2994 -0.9787
15358TIP3   OH267564   1.658   6.293   5.148  0.1197  0.0325  0.2262
15358TIP3    H167565   1.742   6.276   5.105  0.1731  2.3857 -0.7307
15358TIP3    H267566   1.666   6.249   5.233  2.2233 -0.0258  0.0661
15359TIP3   OH267567   1.103   6.340  11.607  0.3301 -0.1206  0.1217
15359TIP3    H167568   1.066   6.322  11.520  0.1751  0.1509  0.1327
15359TIP3    H267569   1.035   6.388  11.653 -1.1309 -3.3367  1.6886
15360TIP3   OH267570   2.738   5.298   3.712  0.1476 -0.1443 -0.7087
15360TIP3    H167571   2.812   5.335   3.664  0.6161 -0.0689  0.0695
15360TIP3    H267572   2.777   5.249   3.783 -0.5586  2.0512  1.3298
15361TIP3   OH267573   6.306   0.767  13.244  0.2959 -0.0715 -0.1021
15361TIP3    H167574   6.357   0.837  13.203 -0.6999  0.0777 -1.1382
15361TIP3    H267575   6.366   0.693  13.250  1.3516  0.8318  0.9619
15362TIP3   OH267576   1.296   6.311   1.796 -0.7240 -0.2726  0.0475
15362TIP3    H167577   1.371   6.352   1.839 -1.7515  1.1247  0.5551
15362TIP3    H267578   1.234   6.294   1.866 -0.3631 -2.7296 -0.1429
15363TIP3   OH267579   3.031   0.496  12.760 -0.5620  0.4223 -0.9106
15363TIP3    H167580   3.025   0.423  12.698  1.5425 -0.3836 -0.2680
15363TIP3    H267581   2.943   0.534  12.762 -2.0456 -2.7286 -0.4971
15364TIP3   OH267582   0.423   5.482   5.193 -0.5836  0.1256  0.0710
15364TIP3    H167583   0.378   5.487   5.277  0.1214 -0.0191  0.4596
15364TIP3    H267584   0.511   5.450   5.214 -0.2602  0.5076 -0.6674
15365TIP3   OH267585   2.831   6.703  12.437 -0.6602  0.2307  0.1844
15365TIP3    H167586   2.904   6.761  12.415 -0.5870 -0.6184 -2.1175
15365TIP3    H267587   2.864   6.615  12.419 -2.1921 -0.1712 -0.8493
15366TIP3   OH267588   0.769   1.296  15.512  0.2177 -0.2015  0.2127
15366TIP3    H167589   0.800   1.360  15.575 -0.0547  0.2893 -0.1498
15366TIP3    H267590   0.675   1.288  15.530  0.1112  0.0496 -0.2283
15367TIP3   OH267591   6.386   3.567   0.391  0.0837 -0.6213 -0.8474
15367TIP3    H167592   6.403   3.652   0.431 -2.3159 -0.2724 -0.4224
15367TIP3    H267593   6.439   3.566   0.312 -0.4065  1.6146 -1.2635
15368TIP3   OH267594   3.581   1.970   2.273  0.1617 -0.5586 -0.3246
15368TIP3    H167595   3.596   2.055   2.314 -2.5227  0.3457 -1.0200
15368TIP3    H267596   3.666   1.947   2.234  2.0222 -0.0664  3.0007
15369TIP3   OH267597   1.739   6.535  16.006  0.9046  0.6237  0.0906
15369TIP3    H167598   1.643   6.533  15.998  0.6532 -2.2915  2.0854
15369TIP3    H267599   1.756   6.613  16.060 -0.3334  1.1364 -0.2106
15370TIP3   OH267600   4.029   5.586   3.665 -0.2056 -0.7703 -0.7416
15370TIP3    H167601   4.048   5.663   3.718 -1.6487 -1.8392  1.4574
15370TIP3    H267602   4.103   5.580   3.604 -0.1002  2.3460 -1.0554
15371TIP3   OH267603   3.395   3.093   0.150  0.5831 -0.1459 -0.0577
15371TIP3    H167604   3.362   3.168   0.199 -0.7098 -1.3860  1.0290
15371TIP3    H267605   3.490   3.106   0.147  0.3865  1.4767  0.1623
15372TIP3   OH267606   2.066   4.028  16.975  0.2227 -0.1137 -0.6871
15372TIP3    H167607   2.119   4.025  17.055 -0.8104 -0.4160 -0.0014
15372TIP3    H267608   2.086   4.113  16.936  0.3731  0.2387  0.1411
15373TIP3   OH267609   2.065   3.329   3.891  0.4966 -0.1715  0.6733
15373TIP3    H167610   2.040   3.379   3.969 -0.0345 -0.0418  0.4223
15373TIP3    H267611   1.986   3.324   3.838  1.1486  0.8571 -0.4692
15374TIP3   OH267612   5.082   1.537   3.725  0.0363 -0.6162 -0.1974
15374TIP3    H167613   4.989   1.535   3.748  0.2188 -1.7252  0.4812
15374TIP3    H267614   5.122   1.469   3.779  0.9823 -1.2289 -1.6163
15375TIP3   OH267615   0.661   3.056  12.705  0.4799  0.4453  0.1984
15375TIP3    H167616   0.739   3.010  12.737  1.7574  0.5388 -2.4431
15375TIP3    H267617   0.663   3.140  12.750  0.8198 -0.2689  1.5580
15376TIP3   OH267618   1.156   3.306  13.747 -0.3227 -0.0561  0.1396
15376TIP3    H167619   1.209   3.258  13.810  0.4752  0.9881  0.3039
15376TIP3    H267620   1.075   3.326  13.794 -1.2840 -2.4041 -0.3928
15377TIP3   OH267621   2.750   2.262   5.324 -0.8100  0.0854 -0.4124
15377TIP3    H167622   2.844   2.256   5.308 -0.6263  1.4263  0.0186
15377TIP3    H267623   2.733   2.356   5.333 -1.9175 -0.2092  1.0200
15378TIP3   OH267624   2.905   6.377  10.962 -0.1646 -0.2983  0.0054
15378TIP3    H167625   2.890   6.361  11.055  0.1027 -3.3649 -0.3794
15378TIP3    H267626   2.856   6.307  10.918  1.0347  0.0859 -2.0652
15379TIP3   OH267627   4.029   4.006   4.563  0.3013  0.1370 -0.5664
15379TIP3    H167628   4.095   4.031   4.499  0.0882  1.1746 -0.3966
15379TIP3    H267629   3.951   4.056   4.537 -0.1401 -0.3557 -0.2080
15380TIP3   OH267630   0.598   3.017   0.558 -0.0448  0.1506  0.4752
15380TIP3    H167631   0.597   3.113   0.559 -0.6450  0.1650 -0.4109
15380TIP3    H267632   0.511   2.992   0.589 -0.6874 -0.0419 -1.3289
15381TIP3   OH267633   4.299   2.657  13.402  0.4729 -0.0963 -0.1472
15381TIP3    H167634   4.327   2.567  13.416  0.7778  0.1237  0.7061
15381TIP3    H267635   4.370   2.697  13.352  1.1148  0.1149  0.9090
15382TIP3   OH267636   2.955   0.206  16.669  0.1402  0.0696  0.1561
15382TIP3    H167637   2.933   0.299  16.656 -0.1811  0.0893  0.7764
15382TIP3    H267638   3.048   0.200  16.648  0.3066  0.6599  0.6712
15383TIP3   OH267639   3.785   4.015  11.699  0.0591  0.1757 -0.5556
15383TIP3    H167640   3.769   4.103  11.732  0.3155 -0.9909  3.2414
15383TIP3    H267641   3.725   4.004  11.625 -0.8019  3.0930 -0.3880
15384TIP3   OH267642   3.290   5.801   0.315  0.0031 -0.4298  0.5539
15384TIP3    H167643   3.288   5.795   0.411  1.9707  1.6504  0.8237
15384TIP3    H267644   3.250   5.886   0.296  0.6740 -0.2990 -0.3427
15385TIP3   OH267645   4.101   3.487  15.924 -0.2521  0.3879  0.1363
15385TIP3    H167646   4.101   3.517  15.833  0.4734  0.7848  0.2588
15385TIP3    H267647   4.009   3.489  15.950 -0.6438 -0.9285 -0.9640
15386TIP3   OH267648   5.354   0.085   2.058 -0.3879  0.0936  0.8956
15386TIP3    H167649   5.345  -0.009   2.047 -1.1746  0.3217 -0.6421
15386TIP3    H267650   5.265   0.116   2.073 -0.7263  0.9825 -2.3319
15387TIP3   OH267651   5.954   0.323  13.549 -0.1219  0.2719  0.1637
15387TIP3    H167652   6.028   0.358  13.500 -0.9845 -0.4113 -1.7357
15387TIP3    H267653   5.992   0.298  13.634  1.6127  0.7650 -0.4106
15388TIP3   OH267654   4.197   3.151   4.283 -0.3041 -0.2639  0.4912
15388TIP3    H167655   4.181   3.237   4.322  1.2355 -0.1521  0.9496
15388TIP3    H267656   4.111   3.110   4.279 -1.0393  1.2054  0.4713
15389TIP3   OH267657   6.128   2.234  12.894 -0.0873 -0.5041 -0.5430
15389TIP3    H167658   6.144   2.165  12.958  3.0640 -0.7917 -1.4590
15389TIP3    H267659   6.162   2.200  12.812 -0.4334  1.3228 -1.5102
15390TIP3   OH267660   5.729   6.212  14.513  0.1168 -0.0054 -0.2947
15390TIP3    H167661   5.695   6.124  14.496  0.0705  0.0806 -0.6606
15390TIP3    H267662   5.815   6.213  14.472  0.9473 -0.4925  1.3574
15391TIP3   OH267663   1.500   0.385   2.326 -0.4046 -0.2941  0.8106
15391TIP3    H167664   1.569   0.331   2.289  0.4565  0.5722  1.1223
15391TIP3    H267665   1.420   0.352   2.285  0.2559 -0.8897 -0.0462
15392TIP3   OH267666   0.289   4.869  15.681  0.1354 -0.0409  0.4515
15392TIP3    H167667   0.263   4.893  15.593 -1.1336  0.2270  0.8802
15392TIP3    H267668   0.339   4.788  15.670  0.4015  0.2500 -0.5491
15393TIP3   OH267669   5.345   2.660   2.374 -0.3753 -0.5604  0.2382
15393TIP3    H167670   5.403   2.708   2.433 -0.7552  0.3667 -0.1118
15393TIP3    H267671   5.339   2.573   2.411  1.6528 -0.8530 -0.0029
15394TIP3   OH267672   1.184   3.451  16.509 -0.6111  0.6597 -0.3189
15394TIP3    H167673   1.131   3.519  16.467  0.1427  1.6620  0.3077
15394TIP3    H267674   1.255   3.434  16.447 -0.9464  0.2227 -0.5966
15395TIP3   OH267675   3.896   2.665   5.662 -0.0429 -0.0387  0.5061
15395TIP3    H167676   3.934   2.734   5.608 -0.4632  0.4335  0.8063
15395TIP3    H267677   3.851   2.608   5.600  3.9405 -2.6283 -0.3841
15396TIP3   OH267678   5.440   4.706  14.257  0.2826  0.4342  0.7511
15396TIP3    H167679   5.473   4.622  14.289  0.0091 -0.1695 -0.5158
15396TIP3    H267680   5.519   4.755  14.235  0.4544  0.6318  1.7405
15397TIP3   OH267681   2.942   5.509  16.325  0.7303 -0.4138  0.4554
15397TIP3    H167682   2.999   5.559  16.267  0.2537  0.6924  0.9192
15397TIP3    H267683   2.875   5.571  16.353  0.7715 -0.9967  1.9573
15398TIP3   OH267684   5.184   2.363  13.826  0.5318  0.1267 -0.2169
15398TIP3    H167685   5.168   2.457  13.820  0.1364  0.1578  1.0358
15398TIP3    H267686   5.220   2.339  13.741  0.2500  1.3349 -0.6906
15399TIP3   OH267687   6.451   0.308   0.973  0.1947 -0.4906  0.0403
15399TIP3    H167688   6.457   0.230   1.029  0.8236  0.0033  0.6840
15399TIP3    H267689   6.397   0.369   1.022 -1.2016 -0.8852 -0.9381
15400TIP3   OH267690   2.469   5.043   3.069  0.0508 -0.7030 -0.1748
15400TIP3    H167691   2.497   5.042   3.161  0.5943  0.3203 -0.3122
15400TIP3    H267692   2.513   4.968   3.029 -0.4772 -1.3768  0.4696
15401TIP3   OH267693   1.258   2.146   1.227  0.0372  0.6126 -0.3168
15401TIP3    H167694   1.318   2.123   1.156 -0.2095 -0.4650 -0.1786
15401TIP3    H267695   1.260   2.071   1.286  1.5858  2.1737  1.7724
15402TIP3   OH267696   3.458   6.007   0.082  0.2995 -0.7271  0.3349
15402TIP3    H167697   3.466   5.947   0.008  0.2737 -0.4645  0.1190
15402TIP3    H267698   3.375   5.984   0.124  0.1380 -0.6351  0.0667
15403TIP3   OH267699   5.536   0.523  13.662  0.4890 -0.0821  0.2249
15403TIP3    H167700   5.450   0.534  13.621 -0.4997 -2.0799  1.6064
15403TIP3    H267701   5.542   0.594  13.725 -0.4743 -0.3315  0.6149
15404TIP3   OH267702   5.396   4.936   3.037 -0.2170  0.1762 -0.3147
15404TIP3    H167703   5.306   4.949   3.007 -0.5128  0.2477  0.5805
15404TIP3    H267704   5.424   5.023   3.066 -0.3226 -0.1025  0.6413
15405TIP3   OH267705   5.197   4.029  16.111  0.4203  0.1229  0.7459
15405TIP3    H167706   5.262   3.960  16.125  1.7046  1.5340  2.0647
15405TIP3    H267707   5.216   4.062  16.023  0.9414  0.0009  0.8136
15406TIP3   OH267708   4.345   0.511  12.072 -0.0708 -0.1916 -0.0892
15406TIP3    H167709   4.372   0.597  12.041 -0.2485 -0.4291 -0.9276
15406TIP3    H267710   4.304   0.470  11.996  1.1848 -1.5297 -0.0793
15407TIP3   OH267711   5.734   6.070   0.567  0.2260  0.5458  0.0284
15407TIP3    H167712   5.792   6.021   0.509  0.0077 -3.3596  2.7215
15407TIP3    H267713   5.773   6.157   0.573  4.6225 -1.1917 -0.0261
15408TIP3   OH267714   2.831   0.974  14.502  0.2127 -0.4269  0.5062
15408TIP3    H167715   2.806   0.967  14.594  0.7657 -1.5995  0.5806
15408TIP3    H267716   2.888   1.051  14.499 -0.3997  0.0585  1.0021
15409TIP3   OH267717   6.555   4.019   6.695 -0.2662  0.1739  0.0646
15409TIP3    H167718   6.489   3.961   6.733  0.1081 -0.7598 -0.6714
15409TIP3    H267719   6.518   4.047   6.612  0.7470 -1.3753 -0.9649
15410TIP3   OH267720   5.988   0.199  14.794  0.0830 -0.0375 -0.1073
15410TIP3    H167721   6.051   0.127  14.793 -0.8170 -0.8540 -1.2070
15410TIP3    H267722   5.907   0.160  14.760 -0.0676  1.8129 -2.0911
15411TIP3   OH267723   0.679   4.211  13.471  0.7937  0.5552 -0.2714
15411TIP3    H167724   0.604   4.192  13.413  1.2066  0.0320 -0.6510
15411TIP3    H267725   0.721   4.126  13.482 -0.7207  0.0791  2.9192
15412TIP3   OH267726   4.932   3.869  13.572  0.1191  0.4278  0.4935
15412TIP3    H167727   4.906   3.908  13.489  2.7828  1.8037  0.1965
15412TIP3    H267728   4.931   3.941  13.635  0.6959 -0.0175  1.0282
15413TIP3   OH267729   0.066   6.355   1.130 -0.8243  0.4541  0.1668
15413TIP3    H167730   0.119   6.422   1.172 -1.6372  1.5278 -0.4652
15413TIP3    H267731   0.092   6.359   1.038 -1.1175  0.1301  0.0682
15414TIP3   OH267732   6.511   0.682  16.335  0.2915  0.3715 -0.1986
15414TIP3    H167733   6.464   0.671  16.252 -0.5754  1.7193  0.0807
15414TIP3    H267734   6.574   0.752  16.318  1.0394 -0.2566 -0.0772
15415TIP3   OH267735   5.517   1.986   1.812 -0.2665  0.2080 -0.5606
15415TIP3    H167736   5.565   1.908   1.840  1.3526  0.9794 -1.0814
15415TIP3    H267737   5.444   1.992   1.874  0.3718 -0.9234  0.3546
15416TIP3   OH267738   1.213   0.472  15.460 -0.1402 -0.3666  0.1249
15416TIP3    H167739   1.127   0.503  15.490  0.3856 -0.3242  1.6747
15416TIP3    H267740   1.265   0.552  15.453 -0.1410 -0.4196 -0.5984
15417TIP3   OH267741   5.551   3.596   0.318 -0.7002  0.1367 -0.1057
15417TIP3    H167742   5.638   3.635   0.307 -0.4040 -0.4160  0.2668
15417TIP3    H267743   5.533   3.555   0.234 -0.3691 -0.2035 -0.0147
15418TIP3   OH267744   6.472   1.680  11.651  0.7176 -0.2986 -0.0956
15418TIP3    H167745   6.559   1.670  11.613  0.9395 -0.5739  0.4819
15418TIP3    H267746   6.443   1.590  11.668  0.6925 -0.1713  0.5483
15419TIP3   OH267747   0.390   4.992   2.470  0.5507  0.1737 -0.1886
15419TIP3    H167748   0.358   4.936   2.399  0.5326 -1.6406  1.1841
15419TIP3    H267749   0.315   5.046   2.494  0.3465  0.2845 -1.0293
15420TIP3   OH267750   4.224   5.212  13.019  0.3417 -0.0301 -0.2936
15420TIP3    H167751   4.197   5.248  13.103  1.6110 -0.4344  0.3137
15420TIP3    H267752   4.204   5.281  12.956 -0.0388  0.5279  0.4208
15421TIP3   OH267753   0.603   3.326   0.091 -0.4766 -0.1570 -0.4835
15421TIP3    H167754   0.658   3.255   0.125 -0.8412 -0.3417 -0.2701
15421TIP3    H267755   0.575   3.296   0.004 -2.3817 -1.2701  0.4395
15422TIP3   OH267756   2.384   3.684  15.749  0.1887  0.2777  0.2454
15422TIP3    H167757   2.446   3.740  15.796 -0.7181 -0.3082  2.2377
15422TIP3    H267758   2.386   3.601  15.797  0.7490 -1.1032 -2.0280
15423TIP3   OH267759   2.907   4.387  15.255 -0.0974  0.3128  0.0621
15423TIP3    H167760   2.988   4.391  15.306 -1.1411  0.1603  1.8228
15423TIP3    H267761   2.868   4.303  15.279 -0.2020 -0.1991 -1.7464
15424TIP3   OH267762   0.811   6.385  15.670  0.0014  0.3695 -0.2247
15424TIP3    H167763   0.857   6.451  15.619 -0.0010  0.4991 -0.0596
15424TIP3    H267764   0.719   6.402  15.655 -0.1387 -2.4950 -4.0344
15425TIP3   OH267765   3.606   2.739   5.152 -0.1446 -0.4094  0.2221
15425TIP3    H167766   3.610   2.729   5.057  0.8775 -2.1516  0.4021
15425TIP3    H267767   3.512   2.742   5.172 -0.4119 -1.4902 -0.7442
15426TIP3   OH267768   3.566   5.785   2.875 -0.3300 -0.2752 -0.2887
15426TIP3    H167769   3.595   5.875   2.859  0.1296 -0.3502  0.0805
15426TIP3    H267770   3.643   5.742   2.911 -0.2350 -1.1066 -1.4625
15427TIP3   OH267771   0.628   5.406   4.663 -0.6112  0.1894  0.2657
15427TIP3    H167772   0.641   5.347   4.589 -0.8603  0.7095 -0.2003
15427TIP3    H267773   0.537   5.435   4.655 -0.2508  1.3127 -0.0282
15428TIP3   OH267774   3.744   4.354   1.069  0.1534 -0.2054 -0.9347
15428TIP3    H167775   3.741   4.320   0.979  2.0083 -1.2954 -0.6347
15428TIP3    H267776   3.723   4.278   1.124  1.5593 -0.2023 -0.3615
15429TIP3   OH267777   5.454   0.122   0.045  0.0789  0.1744 -0.1190
15429TIP3    H167778   5.517   0.170   0.099  0.6959 -1.4201  0.6443
15429TIP3    H267779   5.497   0.113  -0.040 -0.2212  1.2846 -0.4121
15430TIP3   OH267780   2.160   1.207  14.848 -0.6262  0.2871 -0.0644
15430TIP3    H167781   2.103   1.200  14.771  0.5528  0.2534 -0.9689
15430TIP3    H267782   2.189   1.298  14.847  1.7429 -0.3925 -1.4526
15431TIP3   OH267783   2.109   1.127   1.589  0.0127 -0.0601  0.2943
15431TIP3    H167784   2.179   1.122   1.655  0.7063  0.3169 -0.3963
15431TIP3    H267785   2.112   1.042   1.545  1.3167  0.6072 -0.9854
15432TIP3   OH267786   3.348   2.927  13.718  0.2375  0.1199 -0.2764
15432TIP3    H167787   3.314   3.003  13.764 -1.0449 -1.4444  1.5083
15432TIP3    H267788   3.271   2.888  13.675  0.5184 -1.1307  0.3127
15433TIP3   OH267789   1.411   0.116   0.423 -0.6645  0.4397  0.1755
15433TIP3    H167790   1.345   0.144   0.487 -0.6688 -0.8379  0.7799
15433TIP3    H267791   1.434   0.027   0.452  0.9432  0.6726 -0.3373
15434TIP3   OH267792   0.251   0.490  12.313 -0.3060 -0.3277 -0.9203
15434TIP3    H167793   0.335   0.490  12.267 -0.4106 -1.3175 -1.1580
15434TIP3    H267794   0.186   0.491  12.243 -0.4783 -0.6556 -0.7686
15435TIP3   OH267795   0.291   2.202  15.628 -0.2390  0.1917  0.2728
15435TIP3    H167796   0.357   2.170  15.689 -0.8948  1.1022  1.5031
15435TIP3    H267797   0.312   2.159  15.545  1.2281 -0.3654  0.9031
15436TIP3   OH267798   1.366   0.001   2.541 -0.2125  0.1693 -0.2998
15436TIP3    H167799   1.329  -0.046   2.616  1.4422 -0.1922  0.3469
15436TIP3    H267800   1.407   0.078   2.579 -1.6578  1.4144 -1.1916
15437TIP3   OH267801   4.561   6.637   2.437  0.2896  0.7538 -0.0349
15437TIP3    H167802   4.528   6.591   2.514 -0.1696  0.7651 -0.2217
15437TIP3    H267803   4.648   6.669   2.464 -0.4593  2.0345  0.9855
15438TIP3   OH267804   1.946   0.715   2.134 -0.2922  0.0429  0.2193
15438TIP3    H167805   1.915   0.806   2.142 -1.4563 -0.3445  0.3414
15438TIP3    H267806   1.883   0.664   2.186 -0.4425 -0.9914 -0.9405
15439TIP3   OH267807   1.689   5.668  15.934  0.0270 -0.5097  0.2056
15439TIP3    H167808   1.736   5.658  15.851 -1.7698 -0.4788 -0.8670
15439TIP3    H267809   1.736   5.611  15.995 -0.9327 -3.7797 -1.8554
15440TIP3   OH267810   4.850   4.851  16.980 -0.9644 -0.0521  0.2041
15440TIP3    H167811   4.837   4.882  16.890  2.0479  1.0151  0.0301
15440TIP3    H267812   4.880   4.929  17.028 -1.3647 -0.8763  1.8856
15441TIP3   OH267813   3.962   2.925  15.591  0.5184  0.1494 -0.4045
15441TIP3    H167814   4.032   2.925  15.526 -0.1905  0.5582 -1.1889
15441TIP3    H267815   3.906   2.851  15.566  0.6625 -0.1852  0.2272
15442TIP3   OH267816   2.196   1.391  10.329  0.0292  0.4381 -0.3097
15442TIP3    H167817   2.242   1.463  10.286  2.1654 -0.5730  0.1361
15442TIP3    H267818   2.126   1.433  10.379 -0.3245  1.9437 -1.9810
15443TIP3   OH267819   2.941   3.341   5.434 -0.6785  0.3347 -0.2994
15443TIP3    H167820   2.913   3.350   5.343  0.5141  2.3131 -0.5338
15443TIP3    H267821   2.861   3.352   5.485 -0.8231  4.1478 -1.0008
15444TIP3   OH267822   1.577   5.156  14.194 -0.4704  0.0102  0.0559
15444TIP3    H167823   1.617   5.241  14.209 -1.5883  0.2059  2.2307
15444TIP3    H267824   1.498   5.175  14.144 -0.6290  0.2273  0.3893
15445TIP3   OH267825   3.021   3.648   3.125 -0.1592  0.0953  0.0695
15445TIP3    H167826   3.101   3.640   3.074 -0.0091 -0.7402  0.4281
15445TIP3    H267827   2.957   3.594   3.078 -0.6949  1.2245 -0.5476
15446TIP3   OH267828   1.611   6.003  14.338  0.5657  0.1493 -0.1722
15446TIP3    H167829   1.570   5.982  14.254  2.6659 -0.5439 -1.0935
15446TIP3    H267830   1.660   5.924  14.361  0.7978  0.6812  1.2420
15447TIP3   OH267831   2.275   6.145  13.036 -0.0563  0.0567  0.0319
15447TIP3    H167832   2.288   6.236  13.010 -0.6242  0.0876 -0.1688
15447TIP3    H267833   2.343   6.096  12.989  0.0622  0.3415 -0.0909
15448TIP3   OH267834   4.809   6.430   1.734  0.4117 -0.1294 -0.2938
15448TIP3    H167835   4.904   6.446   1.731  0.5690 -0.9528  0.0911
15448TIP3    H267836   4.800   6.335   1.723 -0.2051 -0.4208  2.2194
15449TIP3   OH267837   5.883   3.823   5.792  0.2970 -0.2688  0.2297
15449TIP3    H167838   5.861   3.904   5.747  0.0753 -0.5342 -0.1475
15449TIP3    H267839   5.883   3.846   5.885  0.6241  0.2533  0.1048
15450TIP3   OH267840   6.627   5.987  15.675  0.4598  0.2563  0.3691
15450TIP3    H167841   6.711   6.010  15.714 -0.6204  0.9595  2.3701
15450TIP3    H267842   6.563   6.037  15.724 -1.1243  0.1245 -1.4523
15451TIP3   OH267843   3.443   1.984  16.792 -0.2474 -0.0709  0.7042
15451TIP3    H167844   3.480   2.012  16.876 -0.3245 -0.7287  0.9609
15451TIP3    H267845   3.349   1.990  16.805 -0.2935 -1.2429  1.0535
15452TIP3   OH267846   2.128   5.190   1.459 -0.8132 -0.1930 -0.1997
15452TIP3    H167847   2.064   5.209   1.390 -0.1774  1.2188 -0.4500
15452TIP3    H267848   2.152   5.276   1.494  2.1450 -0.4689 -1.2481
15453TIP3   OH267849   3.442   3.017   2.177 -0.0346  0.0860 -0.0731
15453TIP3    H167850   3.490   2.999   2.258 -0.2805 -1.1797 -0.1887
15453TIP3    H267851   3.352   2.990   2.196 -0.2070  0.2884 -0.5913
15454TIP3   OH267852   6.381   3.838   4.561 -0.0524 -0.2283 -0.1749
15454TIP3    H167853   6.408   3.881   4.642  1.6649 -1.4682 -0.0369
15454TIP3    H267854   6.314   3.776   4.588 -0.0765 -0.0563  0.1631
15455TIP3   OH267855   1.655   3.200  11.818 -0.1975  0.1030 -0.0462
15455TIP3    H167856   1.717   3.169  11.884 -1.1924 -0.1155  0.7996
15455TIP3    H267857   1.639   3.123  11.763  1.6713  0.6200 -1.4292
15456TIP3   OH267858   3.326   3.470  12.257 -0.6821  0.0215 -0.2309
15456TIP3    H167859   3.408   3.445  12.214  0.3257  2.6558  0.0142
15456TIP3    H267860   3.315   3.404  12.326  1.3752 -0.2760 -0.1022
15457TIP3   OH267861   5.327   4.464   2.023 -0.5865  0.4166  0.8043
15457TIP3    H167862   5.377   4.430   1.949 -0.0024 -1.9488  2.1559
15457TIP3    H267863   5.251   4.405   2.030  0.0721 -0.2928  2.8329
15458TIP3   OH267864   1.131   6.498   2.256 -0.3661  0.2628  0.2653
15458TIP3    H167865   1.130   6.404   2.276 -1.5049  0.0937 -0.4211
15458TIP3    H267866   1.214   6.530   2.290  1.4963 -1.6048 -2.1558
15459TIP3   OH267867   4.873   6.785  11.210 -0.0497  0.1586  0.4624
15459TIP3    H167868   4.816   6.733  11.153 -0.0768 -1.4523  1.8860
15459TIP3    H267869   4.834   6.873  11.210 -0.6432 -0.0675 -1.1247
15460TIP3   OH267870   4.443   1.936  12.407 -0.3205 -0.0737  0.2437
15460TIP3    H167871   4.453   2.014  12.352 -0.4688 -0.3914 -0.2321
15460TIP3    H267872   4.467   1.863  12.350 -1.2010 -0.4722  0.3707
15461TIP3   OH267873   0.500   4.081  11.559 -0.2654 -0.6773  0.1090
15461TIP3    H167874   0.577   4.031  11.534  1.0933  0.8478  1.0328
15461TIP3    H267875   0.515   4.168  11.522 -1.7267 -0.4404  0.0146
15462TIP3   OH267876   1.830   2.220  12.807  0.1779  0.3282  0.2916
15462TIP3    H167877   1.776   2.281  12.857 -0.2580 -0.4943  0.8546
15462TIP3    H267878   1.779   2.200  12.729  0.4319  0.8668 -0.0177
15463TIP3   OH267879   6.270   2.369  14.459 -0.1206 -0.0477  0.3293
15463TIP3    H167880   6.341   2.324  14.413 -1.2373  0.7353 -2.3562
15463TIP3    H267881   6.214   2.298  14.490  1.0978 -0.6269  1.3180
15464TIP3   OH267882   2.037   0.442  11.302  0.0730  0.2234  0.2451
15464TIP3    H167883   2.049   0.478  11.390  1.6532 -0.0888  0.1789
15464TIP3    H267884   2.016   0.519  11.248  4.2059  1.3773 -0.0542
15465TIP3   OH267885   5.893   4.591  16.791 -0.3540  0.2845  0.1101
15465TIP3    H167886   5.976   4.628  16.821  0.1286  0.1794 -1.0198
15465TIP3    H267887   5.826   4.645  16.832  0.3008  1.2364 -0.0308
15466TIP3   OH267888   4.590   3.426  13.682 -0.2635 -0.4606 -0.3531
15466TIP3    H167889   4.499   3.455  13.687 -0.7604 -1.9866 -0.1611
15466TIP3    H267890   4.640   3.506  13.665 -1.7867  0.1698 -2.0567
15467TIP3   OH267891   5.145   1.492  14.763 -0.2483 -0.1752 -0.3194
15467TIP3    H167892   5.201   1.568  14.747  0.3036 -0.1594  1.4183
15467TIP3    H267893   5.063   1.530  14.796  0.3783 -0.3100  1.5118
15468TIP3   OH267894   6.138   5.323  14.723 -0.1785 -0.7156  0.2080
15468TIP3    H167895   6.070   5.356  14.665 -0.7062 -0.2133  1.0987
15468TIP3    H267896   6.219   5.332  14.672 -0.7366 -1.1765 -0.8038
15469TIP3   OH267897   2.334   6.101   2.779 -0.0252 -0.0592  0.0983
15469TIP3    H167898   2.359   6.160   2.851  0.1318 -0.6986  0.5759
15469TIP3    H267899   2.365   6.015   2.806  0.1374 -0.2929 -0.7979
15470TIP3   OH267900   6.522   0.388  12.612 -0.4041 -0.1667 -0.1754
15470TIP3    H167901   6.569   0.394  12.529  0.1476 -1.5453  0.0095
15470TIP3    H267902   6.589   0.361  12.675 -1.0647 -0.3148  0.4713
15471TIP3   OH267903   4.776   3.598  16.767 -0.2010 -0.0755 -0.4280
15471TIP3    H167904   4.865   3.572  16.789 -1.0352 -1.6103  1.3806
15471TIP3    H267905   4.746   3.532  16.705 -0.5036 -0.3245 -0.0215
15472TIP3   OH267906   4.134   0.678  10.629  0.1073  0.4097  0.2588
15472TIP3    H167907   4.198   0.729  10.579  0.3918  0.9501  1.1553
15472TIP3    H267908   4.053   0.729  10.625  0.8580  1.9968  2.7315
15473TIP3   OH267909   1.144   5.422   0.105  0.2302 -0.5712 -0.5858
15473TIP3    H167910   1.093   5.405   0.025  3.0753  0.0307 -2.7034
15473TIP3    H267911   1.115   5.508   0.134 -1.5497 -1.2181 -0.3382
15474TIP3   OH267912   3.246   1.213   3.664 -0.1941  0.3962 -0.3102
15474TIP3    H167913   3.271   1.205   3.756 -0.5025  1.4903 -0.1235
15474TIP3    H267914   3.253   1.124   3.630  1.9202  0.2757  0.2603
15475TIP3   OH267915   0.515   1.037   1.422 -0.2540  0.4226  0.5834
15475TIP3    H167916   0.427   1.025   1.388  0.0813 -1.0732  0.1885
15475TIP3    H267917   0.530   0.963   1.480  0.1752  1.5132  1.9292
15476TIP3   OH267918   0.302   2.316   5.060  0.7741  0.2109 -0.6356
15476TIP3    H167919   0.246   2.393   5.064  2.0005  1.1333 -0.5495
15476TIP3    H267920   0.387   2.346   5.093  0.8095 -1.6557  1.1662
15477TIP3   OH267921   0.424   5.396  16.328 -0.0117 -0.5706 -0.1699
15477TIP3    H167922   0.366   5.352  16.266  0.7237 -0.0039 -1.3006
15477TIP3    H267923   0.381   5.479  16.348 -0.3381 -0.8335  0.2400
15478TIP3   OH267924   6.700   6.752   4.039  0.1169 -0.2761 -0.3483
15478TIP3    H167925   6.765   6.822   4.032 -0.0383 -0.2824 -2.4146
15478TIP3    H267926   6.751   6.672   4.028 -0.1704 -0.2931 -1.6956
15479TIP3   OH267927   3.100   2.237  11.422 -0.1293 -0.3006 -0.1186
15479TIP3    H167928   3.107   2.332  11.414  0.1836 -0.2656  0.4878
15479TIP3    H267929   3.134   2.203  11.340 -1.0034  0.1349 -0.6705
15480TIP3   OH267930   4.639   5.546   6.804  0.1065  0.0057  0.2370
15480TIP3    H167931   4.630   5.544   6.708  2.4937  0.1768 -0.0577
15480TIP3    H267932   4.713   5.489   6.822  2.9098  3.6099  1.4230
15481TIP3   OH267933   0.779   4.454   0.454 -0.3542  0.6394 -0.4375
15481TIP3    H167934   0.692   4.439   0.490  0.6179 -0.8546  1.4862
15481TIP3    H267935   0.835   4.466   0.531  1.7912 -2.2583 -1.3731
15482TIP3   OH267936   3.216   1.121  12.007  0.2110  0.0416  0.2817
15482TIP3    H167937   3.249   1.175  12.079  3.1771 -2.4078  0.9759
15482TIP3    H267938   3.132   1.088  12.038  2.0478 -2.1670  3.4843
15483TIP3   OH267939   2.307   2.599   0.555  0.1949  0.3289  0.2461
15483TIP3    H167940   2.235   2.603   0.617 -0.2084 -0.2454 -0.1749
15483TIP3    H267941   2.310   2.686   0.514  1.2264  1.1177  1.8918
15484TIP3   OH267942   3.347   1.045  16.823 -0.3806 -0.2798  0.8657
15484TIP3    H167943   3.382   0.968  16.779  0.9223 -0.1400  1.6012
15484TIP3    H267944   3.260   1.019  16.852 -0.3049 -1.1672  0.3230
15485TIP3   OH267945   3.506   6.715   3.927 -0.3788  0.0296 -0.7100
15485TIP3    H167946   3.430   6.723   3.870 -1.0064  0.4922  0.1712
15485TIP3    H267947   3.515   6.621   3.943 -1.5577  0.0418  0.1965
15486TIP3   OH267948   6.055   1.316  13.869 -0.5845 -0.3400  0.0639
15486TIP3    H167949   6.084   1.375  13.940 -1.5509  0.0161  0.1766
15486TIP3    H267950   6.065   1.228  13.906 -0.8068 -0.1695  0.5477
15487TIP3   OH267951   6.119   3.223   5.584  0.3705  0.0011  0.2654
15487TIP3    H167952   6.169   3.298   5.615  0.7394 -0.4755  0.8670
15487TIP3    H267953   6.112   3.166   5.661  0.2016 -0.6315 -0.2064
15488TIP3   OH267954   3.029   0.954  17.248  0.0540 -0.2671 -0.5915
15488TIP3    H167955   3.125   0.963  17.245  0.1311 -1.2159 -1.4561
15488TIP3    H267956   3.014   0.874  17.299 -0.4158  1.4098  2.1037
15489TIP3   OH267957   1.502   5.027  12.322 -0.4853  0.2903 -0.2465
15489TIP3    H167958   1.537   4.962  12.262  0.3355  1.9814 -1.7172
15489TIP3    H267959   1.513   5.110  12.276 -1.0629  1.5322  1.7164
15490TIP3   OH267960   2.960   4.032  14.227  0.2481 -0.3725 -0.1738
15490TIP3    H167961   2.875   4.053  14.266  0.1793  1.2520 -1.0851
15490TIP3    H267962   3.024   4.073  14.284  0.3988 -1.2253  0.2760
15491TIP3   OH267963   5.117   0.297   4.024  0.5858 -0.1194 -0.4373
15491TIP3    H167964   5.163   0.237   4.083 -0.0474 -1.1195 -0.9277
15491TIP3    H267965   5.034   0.316   4.068  1.1327  1.1107  0.1146
15492TIP3   OH267966   4.352   0.961  15.294 -0.2669 -0.3898  0.1660
15492TIP3    H167967   4.269   0.966  15.341 -0.8813  0.6561 -0.9535
15492TIP3    H267968   4.342   0.887  15.234 -0.8111  0.3444 -0.6786
15493TIP3   OH267969   6.706   1.058   2.560 -0.4208  0.0509 -0.5429
15493TIP3    H167970   6.658   0.997   2.617 -3.4392 -0.3589 -3.2157
15493TIP3    H267971   6.639   1.118   2.528  1.7320  2.2400 -1.2748
15494TIP3   OH267972   1.612   0.903   5.097  0.1437  0.6198 -0.1225
15494TIP3    H167973   1.570   0.825   5.134  0.2872  0.4640 -0.2897
15494TIP3    H267974   1.566   0.976   5.139 -0.7271  0.4656 -0.7643
15495TIP3   OH267975   2.410   5.579  12.388 -0.0277  0.2186  0.4990
15495TIP3    H167976   2.447   5.495  12.416 -1.3023 -0.2501  0.8870
15495TIP3    H267977   2.380   5.563  12.298  1.0032  0.6978  0.0599
15496TIP3   OH267978   4.554   6.809   4.808  0.0049  0.2708  0.0098
15496TIP3    H167979   4.643   6.783   4.786 -0.2908 -0.5316 -0.2830
15496TIP3    H267980   4.505   6.726   4.811 -0.4717  0.5746  1.3716
15497TIP3   OH267981   2.791   0.852  16.819 -1.1598  0.5762 -0.3923
15497TIP3    H167982   2.711   0.808  16.789  0.1096 -2.7987  0.7064
15497TIP3    H267983   2.779   0.863  16.913 -0.3421 -0.0346 -0.2024
15498TIP3   OH267984   6.073   2.313  13.319  0.1768  0.3929 -0.4301
15498TIP3    H167985   6.091   2.231  13.274  0.8718 -0.2040  0.8752
15498TIP3    H267986   6.009   2.289  13.387  0.3206  0.9368 -0.0988
15499TIP3   OH267987   0.629   5.339  10.874  0.2693  0.0075 -0.3210
15499TIP3    H167988   0.699   5.313  10.934  0.7381  0.1002 -0.8191
15499TIP3    H267989   0.666   5.325  10.787  1.1560  3.7608 -0.7057
15500TIP3   OH267990   5.588   5.291   2.329  0.2198  0.1837 -0.1275
15500TIP3    H167991   5.654   5.285   2.399 -0.8315 -0.2458  0.8683
15500TIP3    H267992   5.550   5.204   2.325  0.5326  0.0865 -1.5531
15501TIP3   OH267993   6.733   1.326   5.032 -0.2172  0.7206  0.0497
15501TIP3    H167994   6.646   1.317   4.995 -0.2137 -1.3481  0.4020
15501TIP3    H267995   6.719   1.367   5.118 -0.6606  1.7580 -0.5062
15502TIP3   OH267996   0.547   5.801   0.200 -0.0315  0.4168  0.1157
15502TIP3    H167997   0.590   5.857   0.264  2.9445  1.0707 -2.2270
15502TIP3    H267998   0.466   5.848   0.178  0.2263  1.5340  1.4142
15503TIP3   OH267999   0.595   2.813   5.868  0.0298 -0.4992  0.0192
15503TIP3    H168000   0.541   2.851   5.938 -0.1475 -2.7343  1.2093
15503TIP3    H268001   0.629   2.732   5.906  4.5776  0.8548 -0.5041
15504TIP3   OH268002   0.098   3.039   4.047  0.2899 -0.5979 -0.6404
15504TIP3    H168003   0.050   3.034   3.965  1.5597 -1.5197 -1.3588
15504TIP3    H268004   0.054   2.976   4.104 -1.9183  1.5288  0.1718
15505TIP3   OH268005   4.839   5.140   1.530  0.2133 -0.1849  0.2440
15505TIP3    H168006   4.834   5.062   1.586  2.1520  0.0021  0.7576
15505TIP3    H268007   4.933   5.154   1.518 -0.1253  1.5838 -0.5441
15506TIP3   OH268008   5.438   4.526   2.697 -0.4445  0.0032 -0.4708
15506TIP3    H168009   5.442   4.603   2.755 -0.7126 -0.0252 -0.4116
15506TIP3    H268010   5.510   4.471   2.726  0.4167  0.7051 -1.2036
15507TIP3   OH268011   3.108   0.677  11.727 -0.0088  0.0666 -0.3858
15507TIP3    H168012   3.049   0.741  11.767  0.0288 -0.7335  0.9902
15507TIP3    H268013   3.063   0.652  11.646 -0.8669  0.5354 -0.0789
15508TIP3   OH268014   5.433   6.228  11.718 -0.0179  0.0370 -0.7635
15508TIP3    H168015   5.380   6.166  11.767  2.4769  0.1199  2.2981
15508TIP3    H268016   5.487   6.174  11.661 -0.6909 -0.2789 -1.1167
15509TIP3   OH268017   3.993   2.712   2.090 -0.1992 -0.6177 -0.5816
15509TIP3    H168018   3.977   2.644   2.024 -0.9062 -1.0178 -0.0108
15509TIP3    H268019   3.908   2.723   2.134 -0.1857  0.8739 -0.8870
15510TIP3   OH268020   5.805   1.533  14.784  0.1102 -0.2339  0.1449
15510TIP3    H168021   5.831   1.616  14.826 -0.4166  0.7027 -1.3108
15510TIP3    H268022   5.880   1.509  14.730  1.1250 -1.8766  2.1093
15511TIP3   OH268023   1.184   5.790   1.997  0.9115  0.2309 -0.6298
15511TIP3    H168024   1.179   5.695   2.006  0.9628  0.3198  0.4867
15511TIP3    H268025   1.151   5.808   1.909  0.3447 -0.7704 -0.6317
15512TIP3   OH268026   1.234   2.553   1.549 -0.2290 -0.2568  0.5144
15512TIP3    H168027   1.154   2.514   1.586 -1.4064  1.9159  0.4619
15512TIP3    H268028   1.266   2.611   1.618  0.5945 -0.1657  0.0597
15513TIP3   OH268029   0.032   2.539  15.024 -0.3309 -0.5944 -0.4840
15513TIP3    H168030  -0.010   2.466  15.070  0.7708 -0.0586  1.4603
15513TIP3    H268031  -0.024   2.554  14.948 -0.1235 -4.0376 -1.5080
15514TIP3   OH268032   4.286   0.300   3.604 -0.0584 -0.3613 -0.0158
15514TIP3    H168033   4.211   0.279   3.660  0.8720  1.9719  2.3542
15514TIP3    H268034   4.267   0.387   3.570  0.3578 -0.9010 -1.7170
15515TIP3   OH268035   1.992   0.120  10.641 -0.0950 -0.2712  0.2896
15515TIP3    H168036   1.907   0.119  10.597 -0.4742  1.1030  0.9464
15515TIP3    H268037   2.006   0.029  10.667  0.0635 -1.1104 -2.4565
15516TIP3   OH268038   5.567   4.725   3.997  0.3285 -0.2911 -0.0077
15516TIP3    H168039   5.642   4.667   4.004  0.2238 -0.3671  0.5837
15516TIP3    H268040   5.504   4.690   4.060 -0.4728 -0.6156 -0.9720
15517TIP3   OH268041   3.573   3.504   2.964  0.4316  0.0846  0.0154
15517TIP3    H168042   3.561   3.447   3.040 -2.3061  0.0683 -0.3136
15517TIP3    H268043   3.506   3.475   2.902  2.0040  0.6674 -2.0997
15518TIP3   OH268044   0.280   1.737  10.921 -0.1338  0.1690  0.2277
15518TIP3    H168045   0.292   1.648  10.888  2.0532  1.2838 -2.4074
15518TIP3    H268046   0.230   1.781  10.852  1.9782  1.8489 -0.3450
15519TIP3   OH268047   5.592   5.987  13.297  0.3597 -0.5639  0.1151
15519TIP3    H168048   5.596   5.987  13.201 -1.4063 -1.0278  0.0111
15519TIP3    H268049   5.618   5.899  13.322  1.8774 -0.1375  0.1602
15520TIP3   OH268050   5.144   5.073  12.210 -0.2078 -0.0860 -0.4930
15520TIP3    H168051   5.225   5.024  12.198 -0.5640 -1.4040  1.8663
15520TIP3    H268052   5.108   5.082  12.121  1.4950 -1.2220 -1.3546
15521TIP3   OH268053   6.556   1.402   4.093 -0.6027  0.1230 -0.3297
15521TIP3    H168054   6.616   1.384   4.166  0.2031 -0.0624 -1.0226
15521TIP3    H268055   6.540   1.317   4.053 -0.6627  0.2887 -0.6580
15522TIP3   OH268056   4.860   6.349  13.982  0.2780 -0.2009 -0.3307
15522TIP3    H168057   4.811   6.367  13.902  0.0218 -1.7782 -0.5578
15522TIP3    H268058   4.808   6.389  14.051 -0.2937 -0.1433 -0.7840
15523TIP3   OH268059   2.346   2.224   0.553  0.3750  0.3192 -0.2972
15523TIP3    H168060   2.352   2.131   0.531 -4.5725 -0.0537 -1.0620
15523TIP3    H268061   2.350   2.226   0.648  2.6627 -0.2887 -0.3057
15524TIP3   OH268062   3.393   4.423   4.015 -0.3297 -0.3913  0.0430
15524TIP3    H168063   3.428   4.511   4.001 -0.1857 -0.4391  0.1045
15524TIP3    H268064   3.409   4.377   3.933 -0.1662 -0.4401  0.1010
15525TIP3   OH268065   6.008   5.931   2.635  0.1649  0.5555  0.1388
15525TIP3    H168066   6.009   5.940   2.540 -0.3555 -0.0084  0.0814
15525TIP3    H268067   6.066   6.001   2.666 -1.1804  2.0046 -0.4792
15526TIP3   OH268068   3.754   1.991  11.959  0.0176 -0.3862 -0.0584
15526TIP3    H168069   3.741   1.907  12.003 -1.7918  0.0111  0.2537
15526TIP3    H268070   3.695   2.051  12.004  0.8875  0.9432 -0.6223
15527TIP3   OH268071   2.655   6.740  13.531  0.1027 -0.3188 -0.4737
15527TIP3    H168072   2.747   6.721  13.546  0.2300  2.4974  3.9936
15527TIP3    H268073   2.610   6.659  13.556  1.2673 -0.7688  0.2817
15528TIP3   OH268074   3.534   4.354  14.154 -0.3097 -0.2542 -0.4022
15528TIP3    H168075   3.598   4.420  14.183 -0.0540 -0.3979 -0.6338
15528TIP3    H268076   3.525   4.295  14.229  1.2760 -1.3388 -0.9943
15529TIP3   OH268077   6.251   0.001   2.797  0.0618 -0.3264  0.4195
15529TIP3    H168078   6.295  -0.078   2.829 -0.8247 -1.0253 -0.0376
15529TIP3    H268079   6.160  -0.010   2.824 -0.6407 -0.7383 -1.8870
15530TIP3   OH268080   3.135   6.293  12.457 -0.2699  0.0638 -0.1313
15530TIP3    H168081   3.220   6.255  12.436  0.2393  0.2776  1.3976
15530TIP3    H268082   3.150   6.340  12.539 -1.4190  1.6708 -0.8022
15531TIP3   OH268083   3.963   1.896  10.646  0.3136  0.3195  0.3964
15531TIP3    H168084   3.882   1.930  10.683 -0.5656 -1.3891  0.1383
15531TIP3    H268085   3.939   1.812  10.607  2.2737 -0.4292  0.6505
15532TIP3   OH268086   0.321   1.790  14.908 -0.2018 -0.1701 -0.6317
15532TIP3    H168087   0.257   1.726  14.875 -0.4270 -0.8560  1.0621
15532TIP3    H268088   0.389   1.737  14.948  0.5916  0.6199 -0.9111
15533TIP3   OH268089   1.554   4.084  13.813  0.1361 -0.1587 -0.7815
15533TIP3    H168090   1.522   4.174  13.801 -1.0714 -0.5626 -0.7882
15533TIP3    H268091   1.503   4.050  13.887  0.9734 -0.6670 -0.4272
15534TIP3   OH268092   2.836   1.206   4.463 -0.7258  0.1839  0.1039
15534TIP3    H168093   2.783   1.127   4.448  0.1704 -0.6043  0.9041
15534TIP3    H268094   2.824   1.258   4.384 -0.4729 -1.2744 -0.9504
15535TIP3   OH268095   3.032   2.745  11.851 -0.5353 -0.1524  0.4315
15535TIP3    H168096   3.035   2.688  11.928  0.2257  0.5703  0.9497
15535TIP3    H268097   2.963   2.808  11.870 -0.8377 -0.4156  0.2057
15536TIP3   OH268098   4.669   3.445   0.291 -0.3178 -0.1217  0.5360
15536TIP3    H168099   4.584   3.427   0.330 -0.0388  0.5687  1.5062
15536TIP3    H268100   4.650   3.502   0.217 -0.8989 -1.8069 -0.6610
15537TIP3   OH268101   4.608   0.904   0.369  0.3203  0.1256 -0.0088
15537TIP3    H168102   4.541   0.971   0.353  0.7461  0.6695  0.4482
15537TIP3    H268103   4.691   0.952   0.368  0.5021 -0.0501  2.1155
15538TIP3   OH268104   1.216   4.722  15.144  0.1245 -0.4304  0.7849
15538TIP3    H168105   1.203   4.676  15.061 -0.8617 -0.7380  1.1010
15538TIP3    H268106   1.255   4.805  15.119 -1.9574  0.3224 -0.2003
15539TIP3   OH268107   5.162   1.291  12.525  0.5928  0.0471  0.6046
15539TIP3    H168108   5.159   1.327  12.613  1.8013 -0.9411  1.0819
15539TIP3    H268109   5.130   1.201  12.534  0.0791  0.1516 -0.0930
15540TIP3   OH268110   4.111   1.836   5.679 -0.1185 -0.2860 -0.1439
15540TIP3    H168111   4.037   1.897   5.678 -0.7358 -1.0203 -1.1829
15540TIP3    H268112   4.152   1.847   5.593  0.7850 -0.1244  0.3008
15541TIP3   OH268113   4.532   4.580  12.476 -0.7161  0.1785  0.2168
15541TIP3    H168114   4.573   4.615  12.397 -1.5232 -1.5505 -1.0366
15541TIP3    H268115   4.576   4.496  12.491 -1.9135 -0.4383  0.4025
15542TIP3   OH268116   4.436   1.609   4.094  0.7663  0.1453 -0.3997
15542TIP3    H168117   4.401   1.587   4.180  0.1205  1.2771 -0.3601
15542TIP3    H268118   4.402   1.697   4.075  2.1753  0.5810 -1.1124
15543TIP3   OH268119   1.872   0.582  17.274  0.0404 -0.4388 -0.0931
15543TIP3    H168120   1.965   0.560  17.279 -0.0605 -0.8206  0.2039
15543TIP3    H268121   1.828   0.497  17.264 -0.3640 -0.3952  1.0829
15544TIP3   OH268122   6.348   1.278  11.061 -0.3077  0.2793 -0.2426
15544TIP3    H168123   6.386   1.195  11.035  0.1771  0.4533 -0.1056
15544TIP3    H268124   6.316   1.317  10.980  0.8294  0.6376 -0.5424
15545TIP3   OH268125   1.461   0.242   2.980  0.1753 -0.2505 -0.2616
15545TIP3    H168126   1.424   0.329   2.994  1.8724  1.0181 -2.8028
15545TIP3    H268127   1.524   0.230   3.051 -0.0244  0.6513  0.0746
15546TIP3   OH268128   6.279   5.886  11.421 -0.0647 -0.0220  0.2722
15546TIP3    H168129   6.258   5.858  11.510 -0.7911 -1.2366 -0.2562
15546TIP3    H268130   6.272   5.806  11.369  2.5089  0.1830 -0.5418
15547TIP3   OH268131   6.812   1.803  15.828 -0.8614  0.0282 -0.4134
15547TIP3    H168132   6.835   1.714  15.804 -2.6127 -0.4797 -0.3321
15547TIP3    H268133   6.717   1.808  15.816 -1.3326  0.8604  2.7203
15548TIP3   OH268134   1.948   5.865  15.501 -0.1648  0.0966  0.1191
15548TIP3    H168135   2.000   5.853  15.580  0.2031 -0.4638 -0.1951
15548TIP3    H268136   1.977   5.794  15.443 -2.0861 -0.9443  0.3530
15549TIP3   OH268137   5.027   1.053   1.339 -0.5151  0.1092  0.2361
15549TIP3    H168138   5.064   1.033   1.425 -0.7409 -1.3589  0.0208
15549TIP3    H268139   5.052   0.978   1.284 -0.3939  1.0046 -0.9851
15550TIP3   OH268140   0.159   4.862  14.891 -0.0069 -0.1403  0.0134
15550TIP3    H168141   0.134   4.945  14.849  1.2634  0.5029  0.4822
15550TIP3    H268142   0.150   4.879  14.985  1.3304 -0.1513  0.1629
15551TIP3   OH268143   3.769   1.919   6.262 -0.0333  0.7576  0.1491
15551TIP3    H168144   3.774   1.846   6.324  2.6393  1.3039  0.7000
15551TIP3    H268145   3.741   1.993   6.316 -2.9793  0.2240 -0.4550
15552TIP3   OH268146   6.130   4.933  15.413 -0.3490  0.6518 -0.7125
15552TIP3    H168147   6.135   4.837  15.416  0.5026  0.7117  0.3883
15552TIP3    H268148   6.153   4.955  15.323  0.0917 -0.1542 -0.8099
15553TIP3   OH268149   1.942   6.456  10.777  0.0527  0.0043  0.3535
15553TIP3    H168150   1.854   6.458  10.813 -1.2496  0.1757 -2.5633
15553TIP3    H268151   1.987   6.389  10.828 -2.7704 -2.4197 -0.0751
15554TIP3   OH268152   1.235   1.235  11.442  0.4791  0.0934 -0.4650
15554TIP3    H168153   1.173   1.165  11.422 -0.7262  0.7330  0.8630
15554TIP3    H268154   1.242   1.286  11.361 -1.1950  0.3511 -0.4716
15555TIP3   OH268155   6.435   3.687   6.487 -0.2565 -0.2242 -0.3482
15555TIP3    H168156   6.400   3.715   6.402 -0.5006 -0.1340 -0.2170
15555TIP3    H268157   6.469   3.599   6.470 -0.6104 -0.3433 -0.4596
15556TIP3   OH268158   5.112   5.506  12.265  0.7957  0.3248  0.7149
15556TIP3    H168159   5.137   5.553  12.344 -0.2343 -0.9602  1.8512
15556TIP3    H268160   5.047   5.561  12.223  0.7042  0.6068  1.2299
15557TIP3   OH268161   5.411   4.083  13.340 -0.3206  0.2377 -0.1047
15557TIP3    H168162   5.458   4.162  13.367 -0.3688 -0.2972  1.6173
15557TIP3    H268163   5.478   4.029  13.298 -0.3833  1.3413 -1.7589
15558TIP3   OH268164   1.311   1.676  11.827 -0.0794  0.0664  0.0744
15558TIP3    H168165   1.243   1.615  11.856 -0.5527  0.9861  0.9659
15558TIP3    H268166   1.388   1.653  11.879  0.4608 -1.2414 -1.2211
15559TIP3   OH268167   0.466   6.558  16.711  0.4067 -0.1257 -0.5440
15559TIP3    H168168   0.380   6.589  16.684 -0.2953 -0.5805  1.0359
15559TIP3    H268169   0.501   6.512  16.635 -0.9725 -0.3893 -1.0368
15560TIP3   OH268170   4.771   5.935  11.157  0.3239  0.3065 -0.2234
15560TIP3    H168171   4.683   5.972  11.148  0.6082  2.1478  2.9656
15560TIP3    H268172   4.829   6.011  11.158  1.5650 -0.5943  0.8881
15561TIP3   OH268173   4.991   0.107   5.602  0.1420  0.7819 -0.4494
15561TIP3    H168174   5.085   0.123   5.596  0.1980  0.3958 -0.6134
15561TIP3    H268175   4.968   0.065   5.519 -0.2145  1.0633 -0.4951
15562TIP3   OH268176   3.746   4.553  12.718 -0.3796 -0.6726 -0.1002
15562TIP3    H168177   3.655   4.558  12.749 -0.5658 -2.2706 -0.2983
15562TIP3    H268178   3.770   4.461  12.728  0.2288 -0.8846 -2.7380
15563TIP3   OH268179   0.723   5.731  16.389 -0.0454 -0.2067  0.1117
15563TIP3    H168180   0.774   5.811  16.394  0.9636 -0.7895 -0.5885
15563TIP3    H268181   0.685   5.721  16.477 -2.2330  2.3051 -0.4118
15564TIP3   OH268182   0.093   3.626  11.768 -0.0213  0.0774  0.7121
15564TIP3    H168183   0.011   3.671  11.786 -0.0185  0.9828 -1.2517
15564TIP3    H268184   0.075   3.534  11.784 -1.5451  0.2217 -0.0210
15565TIP3   OH268185   0.838   6.336  15.325  0.4648  0.0907  0.3502
15565TIP3    H168186   0.906   6.325  15.258 -0.9846 -0.1187 -1.1742
15565TIP3    H268187   0.829   6.249  15.364 -0.3272 -0.4152 -0.9019
15566TIP3   OH268188   1.487   1.939   2.613 -0.0386 -0.5273  0.2314
15566TIP3    H168189   1.522   1.916   2.699  1.1961  0.7342  0.0812
15566TIP3    H268190   1.553   1.995   2.573 -1.5524  0.6846 -0.6797
15567TIP3   OH268191   2.854   0.951  13.327  0.4343 -0.0156 -0.2478
15567TIP3    H168192   2.906   1.027  13.353 -0.0794 -0.6615  3.1639
15567TIP3    H268193   2.763   0.977  13.341  0.2833 -1.4772  2.1287
15568TIP3   OH268194   6.184   6.097  11.890  0.0884  0.1421 -0.0751
15568TIP3    H168195   6.175   6.168  11.953 -0.7357 -1.7169  2.0951
15568TIP3    H268196   6.267   6.112  11.847  0.7147  1.5187  1.5116
15569TIP3   OH268197   4.635   3.375  13.960  0.0655 -0.3391 -0.3787
15569TIP3    H168198   4.600   3.451  13.915 -0.5304 -0.1092  0.4473
15569TIP3    H268199   4.719   3.405  13.996  0.2023 -0.3146 -0.7107
15570TIP3   OH268200   0.609   4.992   0.562  0.1092 -0.2642 -0.7570
15570TIP3    H168201   0.665   4.919   0.535 -0.5214 -0.6798 -0.9823
15570TIP3    H268202   0.520   4.955   0.559  0.0190 -0.5574  2.5245
15571TIP3   OH268203   2.239   1.352  16.455  0.0405 -0.3894  0.5030
15571TIP3    H168204   2.320   1.372  16.408 -0.8044  1.3179 -0.3303
15571TIP3    H268205   2.267   1.304  16.533  1.9879  1.2324  0.8723
15572TIP3   OH268206   0.839   4.720   4.955  0.5794  0.0936 -0.3090
15572TIP3    H168207   0.801   4.637   4.927  0.0204  0.8995 -2.0711
15572TIP3    H268208   0.768   4.784   4.946  1.0364  0.8164  0.8788
15573TIP3   OH268209   5.107   3.373  10.470  0.3190 -0.2326  0.2745
15573TIP3    H168210   5.135   3.459  10.502  1.4875 -0.9406  1.1981
15573TIP3    H268211   5.122   3.377  10.375  1.5520  0.1663  0.4695
15574TIP3   OH268212   1.802   0.921   2.268  0.3495 -0.1006  0.9932
15574TIP3    H168213   1.762   1.005   2.245 -0.6580 -0.9156 -0.4091
15574TIP3    H268214   1.881   0.945   2.317  1.0466  1.7584 -0.8515
15575TIP3   OH268215   3.013   3.701  14.737 -0.1844 -0.4005 -0.8013
15575TIP3    H168216   2.988   3.641  14.807  0.4955 -0.7030 -0.8086
15575TIP3    H268217   3.063   3.770  14.780  0.1651 -0.5428 -0.9781
15576TIP3   OH268218   6.719   2.891  11.561 -0.4429  0.1811 -0.0774
15576TIP3    H168219   6.787   2.922  11.621  1.3319 -1.0685 -1.3178
15576TIP3    H268220   6.750   2.804  11.534 -2.9317 -0.7437 -0.1527
15577TIP3   OH268221   4.525   6.419  12.321 -0.3917 -0.1488 -0.2254
15577TIP3    H168222   4.525   6.394  12.228 -0.8590 -1.1654  0.0389
15577TIP3    H268223   4.584   6.356  12.362 -0.6226 -0.0500  0.2605
15578TIP3   OH268224   3.536   3.242  15.671 -0.2214  0.3436  0.1710
15578TIP3    H168225   3.536   3.259  15.576  0.6407 -0.9530 -0.0891
15578TIP3    H268226   3.620   3.275  15.701  0.1240 -0.5361  0.2088
15579TIP3   OH268227   3.486   2.613  10.364  0.3929  0.1277  1.1720
15579TIP3    H168228   3.527   2.539  10.320  0.7465 -0.2791  2.1562
15579TIP3    H268229   3.402   2.624  10.319 -0.4844 -2.0212  2.1493
15580TIP3   OH268230   5.142   3.399   4.730 -0.3284 -0.5262 -0.4290
15580TIP3    H168231   5.067   3.340   4.733 -1.1343  0.5085  0.6928
15580TIP3    H268232   5.189   3.374   4.650 -0.7332 -2.5408 -0.0914
15581TIP3   OH268233   0.451   2.275   2.640  0.2153 -0.2224  0.5492
15581TIP3    H168234   0.421   2.201   2.692 -1.3783 -0.8641 -1.1844
15581TIP3    H268235   0.525   2.241   2.589 -0.0869 -0.4267  0.2485
15582TIP3   OH268236   3.190   5.551  16.220 -0.0853 -0.3259 -0.0216
15582TIP3    H168237   3.219   5.460  16.219  0.6275 -0.1445  1.3892
15582TIP3    H268238   3.251   5.597  16.162  1.6401 -0.2155  1.7658
15583TIP3   OH268239   4.245   4.875  13.554  0.5546  0.3736 -0.4426
15583TIP3    H168240   4.262   4.786  13.526  1.2379  0.5440 -0.5768
15583TIP3    H268241   4.242   4.871  13.649  0.5709  0.2058 -0.4504
15584TIP3   OH268242   4.227   6.336   2.367 -0.4052  0.3999 -0.0721
15584TIP3    H168243   4.202   6.428   2.372 -0.3247  0.4499 -0.5565
15584TIP3    H268244   4.317   6.337   2.337  0.1590  0.2145  1.5256
15585TIP3   OH268245   3.136   2.370  12.083 -0.1357  0.0792  0.0692
15585TIP3    H168246   3.227   2.357  12.056 -0.2634 -0.5144 -0.0987
15585TIP3    H268247   3.122   2.465  12.079  0.0452  0.0596 -1.3279
15586TIP3   OH268248   2.806   5.251  14.396  0.0358 -0.4497  0.0597
15586TIP3    H168249   2.888   5.294  14.375 -0.6915  0.2141 -1.5553
15586TIP3    H268250   2.819   5.160  14.370  1.1970 -1.0742  2.4784
15587TIP3   OH268251   4.784   5.660   0.091  0.1043  1.1007  0.1346
15587TIP3    H168252   4.757   5.603   0.018  1.7529  0.2866  0.1217
15587TIP3    H268253   4.777   5.748   0.055 -0.7799  0.8151 -0.4371
15588TIP3   OH268254   3.026   3.174  11.297 -0.6330 -0.0866 -0.4242
15588TIP3    H168255   3.004   3.127  11.216 -1.6111  1.2149 -0.9573
15588TIP3    H268256   3.119   3.194  11.288 -0.4971 -0.8562 -0.7604
15589TIP3   OH268257   4.208   5.639  15.422  0.1653  0.0954 -0.2649
15589TIP3    H168258   4.220   5.598  15.336  0.8091  2.0358 -1.1610
15589TIP3    H268259   4.255   5.582  15.483 -0.0156 -1.1362 -1.2270
15590TIP3   OH268260   2.450   3.126   1.456  0.1602 -0.0747  0.1521
15590TIP3    H168261   2.365   3.143   1.496 -0.2776  0.5330 -1.0040
15590TIP3    H268262   2.431   3.082   1.374  1.0174 -0.7336  0.2854
15591TIP3   OH268263   6.013   1.478  13.023 -0.3976  0.1553 -0.6816
15591TIP3    H168264   6.018   1.481  13.118  0.3037  1.7084 -0.7329
15591TIP3    H268265   5.978   1.392  13.003  0.6158 -0.6733  0.9325
15592TIP3   OH268266   3.399   4.990   1.032 -0.1091  0.3822  0.3325
15592TIP3    H168267   3.475   4.933   1.048  1.7623  2.6964  0.2641
15592TIP3    H268268   3.324   4.938   1.062  1.1962 -2.8026 -1.3519
15593TIP3   OH268269   4.738   2.266   5.606 -0.2119 -0.3823 -0.0830
15593TIP3    H168270   4.656   2.311   5.629  0.9721  3.5491 -2.5308
15593TIP3    H268271   4.711   2.196   5.546 -1.8345  0.2744 -0.1703
15594TIP3   OH268272   4.295   0.001   4.070 -0.2768  0.2076 -0.0726
15594TIP3    H168273   4.293  -0.070   4.134  1.3890 -0.2419 -0.4817
15594TIP3    H268274   4.246   0.072   4.112  0.7346 -0.0772  1.7135
15595TIP3   OH268275   1.030   1.896  10.730  0.4087  0.0033 -0.2015
15595TIP3    H168276   1.039   1.977  10.780  1.5026 -1.2771  1.8228
15595TIP3    H268277   1.108   1.894  10.674  1.1088 -0.2705  0.7562
15596TIP3   OH268278   2.422   5.823   1.924  0.7114 -0.2347 -0.1876
15596TIP3    H168279   2.361   5.749   1.921  2.0680 -1.3835 -2.2037
15596TIP3    H268280   2.487   5.798   1.990 -0.5753  0.7129  1.5142
15597TIP3   OH268281   4.463   5.131  14.455 -0.1685  0.6375  0.3670
15597TIP3    H168282   4.368   5.122  14.469 -0.5314 -0.5437 -2.2836
15597TIP3    H268283   4.481   5.223  14.474 -2.2287  1.3585 -0.8472
15598TIP3   OH268284   4.166   6.423   3.226 -0.2073  0.2030  0.2496
15598TIP3    H168285   4.100   6.369   3.182 -1.1384  0.6215  1.0913
15598TIP3    H268286   4.250   6.382   3.202 -0.7333 -0.1181 -1.1378
15599TIP3   OH268287   2.440   3.964   1.114 -0.0237 -0.0995  0.6637
15599TIP3    H168288   2.357   4.010   1.120 -1.2601 -2.2412  1.3127
15599TIP3    H268289   2.496   4.020   1.061 -1.2732  2.2381  1.6884
15600TIP3   OH268290   0.205   4.862  11.456  0.1780  0.0124  0.2439
15600TIP3    H168291   0.282   4.908  11.489  0.6309 -0.6926  0.1777
15600TIP3    H268292   0.197   4.785  11.513  0.9147 -1.1777 -1.2074
15601TIP3   OH268293   2.338   4.952  12.343  0.2751  0.0492  0.4298
15601TIP3    H168294   2.329   4.891  12.270 -2.9012  1.4420 -0.5261
15601TIP3    H268295   2.255   4.999  12.345  1.5511  2.4756  2.8066
15602TIP3   OH268296   5.825   1.008  14.914 -0.2703  0.2828 -0.5836
15602TIP3    H168297   5.770   1.084  14.935 -3.2815 -2.1124  1.0600
15602TIP3    H268298   5.884   1.000  14.989 -3.2303 -1.5757  1.7921
15603TIP3   OH268299   0.965   5.011  14.845 -0.2092  0.4000 -0.3544
15603TIP3    H168300   0.969   4.915  14.837  2.9158  0.4164 -0.3063
15603TIP3    H268301   0.956   5.042  14.755  0.8704  0.0355 -0.6136
15604TIP3   OH268302   6.208   1.037   3.426  0.0840  0.0994  0.3491
15604TIP3    H168303   6.209   1.100   3.354 -0.7307  0.8561  0.9895
15604TIP3    H268304   6.299   1.007   3.432  0.0546 -0.5292 -1.4477
15605TIP3   OH268305   4.506   5.717   1.441  0.0152  0.3969  0.4713
15605TIP3    H168306   4.580   5.666   1.474 -0.0138  0.7633  1.1178
15605TIP3    H268307   4.430   5.680   1.486 -0.1077  0.4819  0.3339
15606TIP3   OH268308   4.546   2.088  16.424 -0.2199 -0.4824  0.2299
15606TIP3    H168309   4.505   2.027  16.362  1.8281 -1.4385 -0.2565
15606TIP3    H268310   4.472   2.134  16.464 -1.8050 -2.7170  0.0544
15607TIP3   OH268311   4.362   3.252  11.617 -0.6203 -0.4012  0.0397
15607TIP3    H168312   4.379   3.208  11.534 -2.1998 -1.4674  0.2448
15607TIP3    H268313   4.366   3.345  11.597  1.2196 -0.5976 -0.7340
15608TIP3   OH268314   5.210   5.961  13.682 -0.4757  0.2105  0.2050
15608TIP3    H168315   5.212   5.911  13.763  1.6722  0.0791  0.1332
15608TIP3    H268316   5.278   5.921  13.627 -2.9419 -0.7804 -2.3733
15609TIP3   OH268317   6.502   5.440  15.838 -0.6566 -0.1003 -0.2376
15609TIP3    H168318   6.475   5.530  15.856 -0.8398  0.2996 -2.2416
15609TIP3    H268319   6.419   5.392  15.830 -0.5912 -0.2076 -0.2616
15610TIP3   OH268320   4.640   2.440   4.438  0.2156 -0.5446 -0.4733
15610TIP3    H168321   4.658   2.408   4.350  1.1066 -0.1179 -0.4564
15610TIP3    H268322   4.546   2.457   4.439 -0.2447 -2.7986 -0.5992
15611TIP3   OH268323   5.687   3.101  11.174  0.2022 -0.4174  0.0024
15611TIP3    H168324   5.742   3.121  11.250  0.3979 -2.4087  0.4330
15611TIP3    H268325   5.723   3.019  11.139 -1.8688 -1.2619 -0.2971
15612TIP3   OH268326   2.343   2.282  15.734  0.0531 -0.3461  0.4141
15612TIP3    H168327   2.348   2.321  15.647 -1.0475 -0.4277  0.3092
15612TIP3    H268328   2.381   2.195  15.724  2.1633  0.4922  0.5619
15613TIP3   OH268329   1.568   2.213  16.083 -0.3490 -0.6832 -0.0374
15613TIP3    H168330   1.519   2.284  16.123  0.3666 -0.1555 -0.0664
15613TIP3    H268331   1.654   2.217  16.125  0.7282  0.4418 -2.1980
15614TIP3   OH268332   2.453   1.227  15.737 -0.4547 -0.3293 -0.1004
15614TIP3    H168333   2.394   1.153  15.752 -0.4458 -0.6467 -1.5437
15614TIP3    H268334   2.437   1.254  15.647 -0.9322  1.8869  0.5977
15615TIP3   OH268335   0.424   2.836  12.965 -0.3026 -0.0346  0.4518
15615TIP3    H168336   0.357   2.773  12.993 -0.4783 -0.3306 -0.5653
15615TIP3    H268337   0.409   2.913  13.020 -0.6281 -0.5812  1.1408
15616TIP3   OH268338   6.638   2.946   2.182  0.7140 -0.1779  0.4526
15616TIP3    H168339   6.689   2.887   2.125  0.3525 -0.7207  0.6806
15616TIP3    H268340   6.551   2.906   2.185  0.6932 -0.0834  1.2787
15617TIP3   OH268341   0.063   3.616   0.373  0.4277 -0.4949  0.0240
15617TIP3    H168342   0.141   3.618   0.429  1.8918 -0.2056 -1.9389
15617TIP3    H268343   0.057   3.526   0.342 -0.4899 -0.7005  0.7439
15618TIP3   OH268344   4.227   1.176   4.762  0.0156  0.5013 -1.4209
15618TIP3    H168345   4.297   1.213   4.708  0.8020 -1.2374 -1.6562
15618TIP3    H268346   4.270   1.158   4.846 -0.1134 -0.6330 -1.5872
15619TIP3   OH268347   5.711   4.291   4.135 -0.4261 -0.4181  0.4338
15619TIP3    H168348   5.685   4.356   4.201  1.3376 -0.3202  1.0862
15619TIP3    H268349   5.776   4.236   4.180 -0.9560 -1.8653 -0.4978
15620TIP3   OH268350   6.203   4.977   4.535 -0.7999 -0.0666  0.3320
15620TIP3    H168351   6.255   4.984   4.615 -2.4702  1.2613  1.3521
15620TIP3    H268352   6.231   5.052   4.482  1.8764 -2.1037 -1.4045
15621TIP3   OH268353   6.123   4.310  14.728  0.2103  0.6046  0.1988
15621TIP3    H168354   6.084   4.379  14.675  0.0905  0.7154  0.4291
15621TIP3    H268355   6.049   4.256  14.756  0.4644 -0.7254 -1.5112
15622TIP3   OH268356   1.332   3.892  14.816 -0.0055  0.2918 -0.0284
15622TIP3    H168357   1.423   3.916  14.831 -0.1680 -0.4572  2.5364
15622TIP3    H268358   1.300   3.862  14.901 -1.4967 -3.2728 -1.6234
15623TIP3   OH268359   3.171   0.293   5.861 -0.1247 -0.0240 -0.1028
15623TIP3    H168360   3.122   0.367   5.826  0.2700  0.8083  1.0354
15623TIP3    H268361   3.228   0.332   5.927  0.3541 -1.3049  0.2592
15624TIP3   OH268362   0.824   6.714   2.229  0.8673 -0.3094 -0.4335
15624TIP3    H168363   0.774   6.648   2.278 -1.1931  1.1990 -0.3468
15624TIP3    H268364   0.827   6.680   2.140  1.3269 -1.3106 -0.0502
15625TIP3   OH268365   1.978   1.351   5.650 -0.6394  0.0157 -0.6200
15625TIP3    H168366   2.055   1.346   5.707  0.8287 -0.6063 -2.5297
15625TIP3    H268367   2.008   1.399   5.573 -2.0894 -0.4441 -1.5197
15626TIP3   OH268368   6.062   6.561  16.681 -0.1263  0.3707 -0.2561
15626TIP3    H168369   6.019   6.635  16.639 -1.6758 -0.5150 -0.3241
15626TIP3    H268370   6.057   6.580  16.775  0.1891  0.7084 -0.3070
15627TIP3   OH268371   4.989   0.372  13.083  0.5560 -0.8229 -0.2079
15627TIP3    H168372   5.023   0.420  13.159  0.6609 -1.6311  0.2687
15627TIP3    H268373   4.983   0.438  13.014 -1.0223  0.3084  0.9255
15628TIP3   OH268374   6.234   3.134   4.373 -0.4169  0.1068 -0.1100
15628TIP3    H168375   6.178   3.106   4.446 -2.4857  1.0890 -1.2394
15628TIP3    H268376   6.264   3.053   4.333 -2.5439 -0.5147 -0.5512
15629TIP3   OH268377   5.631   1.255   3.399  0.2592  0.1062  0.4136
15629TIP3    H168378   5.686   1.317   3.446 -0.2268  1.3634 -0.6080
15629TIP3    H268379   5.678   1.238   3.317  0.4473 -0.9867  0.7344
15630TIP3   OH268380   3.233   0.565  16.341  0.1547  0.5633 -0.3112
15630TIP3    H168381   3.192   0.499  16.285  0.9229  0.5178 -0.8404
15630TIP3    H268382   3.206   0.542  16.430 -1.1024  0.6473 -0.6532
15631TIP3   OH268383   1.896   3.326   3.048 -0.3323  0.7917 -0.3325
15631TIP3    H168384   1.868   3.240   3.080 -0.6017  1.7769  2.3382
15631TIP3    H268385   1.985   3.311   3.016  1.3598  0.1159  3.9110
15632TIP3   OH268386   2.298   0.653  15.593  0.3394 -0.2325 -0.3357
15632TIP3    H168387   2.211   0.663  15.629  0.4457 -2.5946  0.7993
15632TIP3    H268388   2.357   0.669  15.667  0.6823 -2.0379 -0.1685
15633TIP3   OH268389   3.640   3.962  14.739  0.0620  0.4024  0.1727
15633TIP3    H168390   3.691   3.908  14.679  0.2193  0.8610 -0.1051
15633TIP3    H268391   3.570   3.999  14.685 -1.7543 -1.7289  0.9110
15634TIP3   OH268392   5.398   5.019  14.153 -0.2009 -0.2913 -0.6186
15634TIP3    H168393   5.454   4.948  14.122 -0.9674 -0.6624 -1.1960
15634TIP3    H268394   5.401   5.012  14.249  2.4120  1.0325 -0.5295
15635TIP3   OH268395   2.467   1.586   5.787  0.1115  0.1109  0.3423
15635TIP3    H168396   2.395   1.639   5.755  1.8900  1.1178 -2.3423
15635TIP3    H268397   2.473   1.607   5.880 -3.1405 -0.2455  0.7278
15636TIP3   OH268398   5.655   0.635   3.883 -0.2365 -0.1005  0.9519
15636TIP3    H168399   5.637   0.722   3.849 -1.9702 -1.0956 -0.8786
15636TIP3    H268400   5.576   0.611   3.931  0.9570  0.0187  3.0939
15637TIP3   OH268401   2.237   5.230  12.698  0.9252 -0.2775  0.5288
15637TIP3    H168402   2.195   5.309  12.662  1.5497 -0.7743 -1.4323
15637TIP3    H268403   2.190   5.213  12.779 -1.6728  0.0618 -0.7923
15638TIP3   OH268404   6.643   1.402   4.616  0.1745 -0.1027 -0.0593
15638TIP3    H168405   6.636   1.492   4.585 -1.6878 -0.1095  0.2199
15638TIP3    H268406   6.585   1.352   4.558  0.9303 -1.0758 -0.0072
15639TIP3   OH268407   2.652   6.451  10.816  0.1368 -0.5617  0.1380
15639TIP3    H168408   2.600   6.372  10.826 -1.6163  0.4727 -0.4314
15639TIP3    H268409   2.588   6.522  10.812  1.6234  0.8314 -0.0373
15640TIP3   OH268410   0.443   0.054   0.427  0.2492 -1.0814 -0.1786
15640TIP3    H168411   0.413   0.098   0.507 -1.7400 -3.0750  0.2868
15640TIP3    H268412   0.363   0.018   0.388  1.3986 -1.7097 -2.1136
15641TIP3   OH268413   1.711   1.319  11.651  0.4162 -0.1752  0.2079
15641TIP3    H168414   1.703   1.409  11.620 -2.1059 -0.4523 -0.1514
15641TIP3    H268415   1.778   1.323  11.719  1.4999  1.6383 -0.8920
15642TIP3   OH268416   4.056   2.414  15.078 -0.0951 -0.0528 -0.2781
15642TIP3    H168417   3.988   2.479  15.092 -0.5772 -0.5662 -0.1826
15642TIP3    H268418   4.011   2.330  15.083  0.4310 -0.3866 -0.8424
15643TIP3   OH268419   5.548   1.756  11.013 -0.2301 -0.4594  0.1194
15643TIP3    H168420   5.562   1.832  11.070 -0.2558 -0.8914  0.7161
15643TIP3    H268421   5.579   1.785  10.927 -0.3446  0.2629  0.3072
15644TIP3   OH268422   0.837   3.371   1.410  0.0568 -0.6865  0.6635
15644TIP3    H168423   0.787   3.380   1.491  0.0391 -1.1040  0.7023
15644TIP3    H268424   0.878   3.457   1.396  0.2263 -0.6747  1.2236
15645TIP3   OH268425   4.786   0.081  12.139  0.1743  0.2420 -0.0489
15645TIP3    H168426   4.695   0.061  12.163 -0.0961  0.4932 -0.8184
15645TIP3    H268427   4.807   0.160  12.190 -0.3148  0.6457 -0.4548
15646TIP3   OH268428   1.338   2.926  16.444 -0.1411 -0.1099  0.0798
15646TIP3    H168429   1.407   2.977  16.487 -0.9442  0.0128  1.2797
15646TIP3    H268430   1.329   2.847  16.499  2.2820 -2.5143 -2.6631
15647TIP3   OH268431   0.976   5.745   5.646 -0.4720 -0.9037 -0.0576
15647TIP3    H168432   0.980   5.792   5.562  0.5761  1.7167  1.3287
15647TIP3    H268433   0.893   5.698   5.643 -2.1765  1.8887 -1.2893
15648TIP3   OH268434   4.694   3.815  14.461 -0.3575 -0.5525 -0.0805
15648TIP3    H168435   4.701   3.720  14.472 -0.7501 -0.4839  0.8476
15648TIP3    H268436   4.602   3.835  14.478  0.2368  0.3098  2.6588
15649TIP3   OH268437   4.129   5.730   5.439 -0.3901  0.2809  0.2921
15649TIP3    H168438   4.184   5.734   5.361 -1.2396 -0.5946 -0.3699
15649TIP3    H268439   4.180   5.776   5.507 -0.8063  3.6075 -1.4340
15650TIP3   OH268440   1.603   2.835   4.129 -0.0378 -0.6534  0.0837
15650TIP3    H168441   1.690   2.810   4.162  1.4225  2.2398 -1.2296
15650TIP3    H268442   1.558   2.870   4.206  1.8557  2.3384 -0.0179
15651TIP3   OH268443   2.469   0.567   3.276 -0.1704  0.0230 -0.1892
15651TIP3    H168444   2.556   0.602   3.258 -0.4280  1.6176  1.3867
15651TIP3    H268445   2.470   0.547   3.370 -1.3922 -0.1936 -0.2066
15652TIP3   OH268446   4.707   0.151  14.564  0.1420 -0.2525 -0.6138
15652TIP3    H168447   4.693   0.085  14.496  1.0717 -0.4229 -0.6602
15652TIP3    H268448   4.686   0.234  14.522 -0.6830 -0.4731 -0.6650
15653TIP3   OH268449   1.407   4.172  15.889  0.0065  0.4613 -0.2471
15653TIP3    H168450   1.433   4.080  15.893  0.2279  0.5720  1.3500
15653TIP3    H268451   1.483   4.217  15.852  1.4546  0.4876  2.4849
15654TIP3   OH268452   6.083   4.631   5.086 -0.2823 -0.4825  0.4470
15654TIP3    H168453   6.004   4.685   5.092  0.8379  1.3705 -0.4831
15654TIP3    H268454   6.097   4.621   4.992  1.9961  1.5308  0.4679
15655TIP3   OH268455   4.886   3.894   5.258  0.5345  0.3269  0.1028
15655TIP3    H168456   4.913   3.812   5.299 -1.8757 -1.4589 -1.6497
15655TIP3    H268457   4.902   3.960   5.326  2.3431 -1.5473  1.6621
15656TIP3   OH268458   0.911   2.154   1.705  0.2646 -0.1666 -0.2005
15656TIP3    H168459   0.823   2.187   1.722 -0.5726 -2.2812 -0.1284
15656TIP3    H268460   0.947   2.135   1.792  1.0282  1.2192 -0.1996
15657TIP3   OH268461   0.495   2.105  15.780 -0.3191 -0.2821 -0.4384
15657TIP3    H168462   0.561   2.171  15.759 -0.6955  0.2258 -0.0762
15657TIP3    H268463   0.543   2.023  15.782 -0.0229 -0.1702 -1.8912
15658TIP3   OH268464   1.200   2.891  11.204 -0.3081 -0.1179 -0.6589
15658TIP3    H168465   1.212   2.984  11.181 -0.4082  0.6750  2.1439
15658TIP3    H268466   1.280   2.849  11.174  1.1685  1.5106  0.7637
15659TIP3   OH268467   5.176   5.403  16.794  0.9226 -0.0002  0.6223
15659TIP3    H168468   5.263   5.431  16.823  1.1375  0.0739 -0.0827
15659TIP3    H268469   5.169   5.313  16.826  0.1798  0.8239  2.9962
15660TIP3   OH268470   0.888   6.473  11.716 -0.0656 -0.3125 -0.4949
15660TIP3    H168471   0.793   6.465  11.707 -0.4613  2.3373  0.3302
15660TIP3    H268472   0.904   6.568  11.716  2.4977 -0.6641  0.1805
15661TIP3   OH268473   2.130   1.977   3.693 -0.1882 -1.0271 -0.3029
15661TIP3    H168474   2.079   1.978   3.774  0.7060 -1.1099  0.2834
15661TIP3    H268475   2.139   1.884   3.671  0.2575 -1.0562 -0.0289
15662TIP3   OH268476   0.362   5.098   0.691 -0.4804 -0.5865 -0.5092
15662TIP3    H168477   0.360   5.158   0.616 -0.1810 -1.5162 -1.2845
15662TIP3    H268478   0.455   5.094   0.716 -0.3483 -1.4610 -1.0895
15663TIP3   OH268479   4.264   0.487  14.176  0.0339 -0.0399 -0.9305
15663TIP3    H168480   4.308   0.424  14.120 -1.9642 -3.2733  0.8500
15663TIP3    H268481   4.181   0.505  14.132  0.1755  0.6661 -0.9356
15664TIP3   OH268482   0.083   5.646  11.423  0.3015  0.2351  0.4344
15664TIP3    H168483   0.019   5.631  11.492 -2.0209 -0.0199 -1.6474
15664TIP3    H268484   0.092   5.742  11.419 -0.7684  0.3337  0.0862
15665TIP3   OH268485   2.226   0.989   0.174 -0.7511 -0.6762  0.3689
15665TIP3    H168486   2.219   0.974   0.079  0.4939  0.2308  0.1018
15665TIP3    H268487   2.148   1.040   0.196  0.4456  1.8567 -0.8197
15666TIP3   OH268488   6.046   5.666  14.753 -0.3070  0.1496  0.0661
15666TIP3    H168489   6.048   5.589  14.696 -1.6588 -0.2556  0.5223
15666TIP3    H268490   6.027   5.739  14.695 -0.8078 -0.1351 -0.1380
15667TIP3   OH268491   6.578   2.048   4.000 -0.2382  0.4730 -0.5408
15667TIP3    H168492   6.550   2.133   3.967 -1.4589  1.1511  1.9610
15667TIP3    H268493   6.673   2.050   3.993 -0.3543  0.7967 -3.1776
15668TIP3   OH268494   0.816   4.013   3.548  0.2757 -0.7330  0.2593
15668TIP3    H168495   0.826   4.085   3.485 -0.9214 -0.4178  0.4069
15668TIP3    H268496   0.756   4.047   3.614  0.0396 -1.7158  0.5680
15669TIP3   OH268497   4.254   2.153   0.138 -0.0288 -1.1107 -0.3033
15669TIP3    H168498   4.264   2.244   0.165 -0.7186 -0.5850 -1.7352
15669TIP3    H268499   4.184   2.119   0.193  0.3741 -0.8581  0.3857
15670TIP3   OH268500   3.715   5.625  16.798  1.1415 -0.0216 -0.0701
15670TIP3    H168501   3.786   5.595  16.742  2.3391  1.5675  0.4934
15670TIP3    H268502   3.670   5.546  16.826  2.5464 -1.0589 -0.6571
15671TIP3   OH268503   6.708   1.284  16.129  0.9947  0.4446 -0.3431
15671TIP3    H168504   6.648   1.300  16.202  0.5069 -0.2943 -0.5826
15671TIP3    H268505   6.750   1.369  16.114  0.4195  0.8276  0.1880
15672TIP3   OH268506   5.773   2.558  12.686 -0.3347 -0.6571  0.2036
15672TIP3    H168507   5.837   2.608  12.635 -2.1134  1.9788  0.3165
15672TIP3    H268508   5.824   2.518  12.756  1.2625  1.2436  0.2144
15673TIP3   OH268509   0.887   4.881  14.329  0.3953 -0.3679 -0.5947
15673TIP3    H168510   0.974   4.916  14.348  0.0204  0.4175 -0.2575
15673TIP3    H268511   0.866   4.828  14.406 -0.9428  2.4679  1.1307
15674TIP3   OH268512   1.282   1.918   1.363 -0.1181 -0.0705  0.5382
15674TIP3    H168513   1.376   1.915   1.346 -0.1786  1.3759 -0.2730
15674TIP3    H268514   1.246   1.848   1.309  0.4781 -0.5734  0.7831
15675TIP3   OH268515   2.706   2.344  13.076 -0.0181 -0.5520  0.6545
15675TIP3    H168516   2.680   2.254  13.098  0.9550 -1.2722 -0.9435
15675TIP3    H268517   2.739   2.380  13.157  0.7887 -2.1046  1.0585
15676TIP3   OH268518   6.634   4.244  13.588  0.0797  0.7090 -0.4880
15676TIP3    H168519   6.629   4.336  13.613  2.7128  0.7437  0.2221
15676TIP3    H268520   6.672   4.246  13.500 -0.6373  0.3132 -0.8125
15677TIP3   OH268521   5.843   3.141   4.423  0.1761 -0.3626  0.4797
15677TIP3    H168522   5.749   3.143   4.404 -0.0216  0.7129  1.4639
15677TIP3    H268523   5.856   3.058   4.468 -0.3271 -0.4847  0.4115
15678TIP3   OH268524   2.117   3.366  15.084 -0.1949  0.1948  0.0013
15678TIP3    H168525   2.154   3.346  15.170  0.4800 -1.3171 -0.5958
15678TIP3    H268526   2.029   3.328  15.086  0.7170 -2.1425 -0.7757
15679TIP3   OH268527   3.754   3.957  16.513 -0.9674 -0.7833  0.0579
15679TIP3    H168528   3.810   3.943  16.436 -0.1102 -0.4322  0.5969
15679TIP3    H268529   3.744   4.052  16.518  0.0116 -0.7035  1.0612
15680TIP3   OH268530   2.139   0.314   5.968  0.2449  0.2307  0.4984
15680TIP3    H168531   2.101   0.382   5.912 -1.6429 -0.3689  0.9785
15680TIP3    H268532   2.213   0.358   6.011  2.1495  0.5489 -2.7932
15681TIP3   OH268533   3.408   1.225  15.497 -0.5477  0.2753  0.0040
15681TIP3    H168534   3.451   1.237  15.582 -0.8603  0.0495  0.1964
15681TIP3    H268535   3.474   1.251  15.433 -0.8578  2.0934  0.3561
15682TIP3   OH268536   0.084   3.076  15.327  0.9433  0.2909  0.6273
15682TIP3    H168537   0.104   3.119  15.243  1.7190 -0.2220  0.5334
15682TIP3    H268538   0.144   3.001  15.329  0.9125  0.2911  1.6383
15683TIP3   OH268539   3.862   4.603  16.718  0.4819  1.1507  0.2498
15683TIP3    H168540   3.935   4.546  16.694 -0.7233 -0.2605 -0.2177
15683TIP3    H268541   3.863   4.605  16.814 -0.6369 -1.3676  0.3934
15684TIP3   OH268542   4.030   5.810   4.938 -0.6208 -0.1255  0.0889
15684TIP3    H168543   4.028   5.736   4.998 -0.7358 -1.2111 -1.2127
15684TIP3    H268544   4.096   5.787   4.873  2.7033  2.9125  2.0674
15685TIP3   OH268545   5.457   4.485  11.331  0.0934  0.1163  0.1298
15685TIP3    H168546   5.458   4.459  11.423 -0.8936 -1.0939 -0.1775
15685TIP3    H268547   5.534   4.443  11.293  0.8433  1.1045  0.4967
15686TIP3   OH268548   1.862   5.042  10.924  0.4097  0.4796  0.4920
15686TIP3    H168549   1.932   5.070  10.864 -1.3248  1.8244 -1.0378
15686TIP3    H268550   1.885   5.081  11.008  0.4047  2.8598 -0.5316
15687TIP3   OH268551   5.032   4.255  14.613  0.1540 -0.3156  0.2715
15687TIP3    H168552   5.120   4.222  14.635  0.8255  0.2534 -1.3545
15687TIP3    H268553   4.973   4.183  14.634  1.3089 -1.6645 -0.8723
15688TIP3   OH268554   4.712   3.188  13.715 -0.3514 -0.8957 -0.1768
15688TIP3    H168555   4.800   3.212  13.743  0.1929 -1.2823 -1.4669
15688TIP3    H268556   4.660   3.267  13.729  0.4062 -0.3748 -0.2337
15689TIP3   OH268557   4.694   1.628  15.309 -0.0102  0.0174  0.3583
15689TIP3    H168558   4.635   1.575  15.362  0.4451  0.7835  1.6704
15689TIP3    H268559   4.643   1.706  15.286 -0.5825 -0.8148 -1.3222
15690TIP3   OH268560   3.961   1.137   3.428 -0.1240  0.4193  0.1822
15690TIP3    H168561   4.048   1.156   3.393  0.4139 -0.7730  0.8321
15690TIP3    H268562   3.906   1.125   3.351 -0.3319  3.6056 -0.2955
15691TIP3   OH268563   2.987   3.664   3.410 -0.7338  0.3491 -0.1987
15691TIP3    H168564   2.982   3.669   3.314  0.1088 -0.4184 -0.2944
15691TIP3    H268565   2.900   3.635   3.437 -1.0961  0.9266 -0.6953
15692TIP3   OH268566   5.337   1.778   2.060  0.1198 -0.5958  0.5171
15692TIP3    H168567   5.391   1.699   2.053 -0.3108 -0.7725 -1.2951
15692TIP3    H268568   5.332   1.811   1.970 -1.8978  0.0095  0.8220
15693TIP3   OH268569   2.252   3.629   1.546 -0.6143 -0.0142 -0.3349
15693TIP3    H168570   2.218   3.545   1.513 -1.5857 -0.3038  1.3218
15693TIP3    H268571   2.218   3.693   1.483  0.1699 -0.8281 -1.6521
15694TIP3   OH268572   5.678   5.063  12.744  0.0212 -0.5268  0.1783
15694TIP3    H168573   5.620   4.991  12.769 -1.1554  0.6270  0.9264
15694TIP3    H268574   5.666   5.071  12.650  2.0738 -2.8652 -0.3969
15695TIP3   OH268575   1.709   0.256  11.513 -0.1328  0.3006  0.1492
15695TIP3    H168576   1.797   0.222  11.498 -1.0370 -1.3077 -2.1281
15695TIP3    H268577   1.674   0.202  11.583  0.0994 -0.2713 -0.1690
15696TIP3   OH268578   4.662   6.104   5.117  0.2283  0.2635  0.1960
15696TIP3    H168579   4.734   6.166   5.108 -0.2594  1.0785  1.6488
15696TIP3    H268580   4.705   6.021   5.136  0.8656  0.2076 -1.3128
15697TIP3   OH268581   2.768   3.937  15.699 -0.0414 -0.3141 -0.0026
15697TIP3    H168582   2.753   3.900  15.786 -1.2456 -0.5173 -0.2910
15697TIP3    H268583   2.856   3.907  15.675 -0.4253 -1.8133  0.3708
15698TIP3   OH268584   5.044   6.285  14.821 -0.0079  0.1003 -0.4728
15698TIP3    H168585   5.078   6.272  14.732 -1.1441 -0.4940 -0.8472
15698TIP3    H268586   5.059   6.377  14.839  0.1974  0.2418 -1.3136
15699TIP3   OH268587   5.917   5.477   2.477  0.0816 -0.0865 -0.0029
15699TIP3    H168588   5.893   5.472   2.570 -0.2619  0.8186 -0.0357
15699TIP3    H268589   5.973   5.554   2.470  1.2006 -0.9094 -0.3317
15700TIP3   OH268590   2.649   6.215   1.057  0.0460  0.1689  0.0861
15700TIP3    H168591   2.643   6.290   1.116  0.4528 -0.1942  0.6065
15700TIP3    H268592   2.619   6.141   1.110 -0.1545 -0.0673 -0.3548
15701TIP3   OH268593   6.668   2.872  13.654 -0.3833  0.0197 -0.3223
15701TIP3    H168594   6.673   2.790  13.606  0.2280  0.1893 -0.5542
15701TIP3    H268595   6.587   2.866  13.704 -1.1890 -0.0331 -1.5998
15702TIP3   OH268596   3.547   2.298  13.814 -0.0953 -0.5293 -0.5616
15702TIP3    H168597   3.633   2.283  13.853  0.3657  0.2076 -1.2430
15702TIP3    H268598   3.484   2.267  13.879  0.6377  0.6260  0.7282
15703TIP3   OH268599   6.463   4.264  15.260  0.4557 -0.0187 -0.5486
15703TIP3    H168600   6.525   4.200  15.295  0.4001  0.1520 -0.1267
15703TIP3    H268601   6.502   4.293  15.178  0.3810 -0.7422 -0.8397
15704TIP3   OH268602   1.007   6.672   3.217  0.3184  0.1531 -0.0471
15704TIP3    H168603   1.061   6.599   3.245  1.1338  1.0567  0.8434
15704TIP3    H268604   1.009   6.670   3.122 -0.1153 -1.2758 -0.0535
15705TIP3   OH268605   4.922   5.478  12.516 -0.1576 -0.0590 -0.3874
15705TIP3    H168606   4.993   5.467  12.453  0.1034 -1.4460  0.1036
15705TIP3    H268607   4.856   5.414  12.489 -0.0811 -0.6152  0.6578
15706TIP3   OH268608   1.297   2.572  11.820 -0.3005  0.0064  0.3315
15706TIP3    H168609   1.368   2.608  11.768 -0.6216  0.5826  0.2895
15706TIP3    H268610   1.290   2.630  11.896 -1.9395  1.0653 -0.5740
15707TIP3   OH268611   4.050   3.482  12.219  0.2959  0.1570 -0.0083
15707TIP3    H168612   4.035   3.441  12.135  1.0928 -0.2909  0.0613
15707TIP3    H268613   4.032   3.575  12.204  1.2492  0.2164 -0.8958
15708TIP3   OH268614   1.615   2.467  13.786 -0.2760  0.0616 -0.2111
15708TIP3    H168615   1.541   2.407  13.799 -0.5786  0.2678 -0.9516
15708TIP3    H268616   1.584   2.529  13.720  0.3051  0.5853  0.0011
15709TIP3   OH268617   2.975   2.245  15.536 -0.4511  0.0027  0.1774
15709TIP3    H168618   2.998   2.276  15.448 -0.2736 -0.5535  0.0249
15709TIP3    H268619   3.002   2.153  15.537 -0.9811 -0.1524  0.6223
15710TIP3   OH268620   2.924   1.094  16.759 -0.1481  0.0355  0.3427
15710TIP3    H168621   2.856   1.030  16.778 -1.8467  1.1011 -1.6805
15710TIP3    H268622   2.961   1.066  16.675  2.3210 -0.7673  1.5997
15711TIP3   OH268623   4.584   3.780  11.313 -0.2187 -0.5473  0.4528
15711TIP3    H168624   4.494   3.748  11.316 -0.4021  0.0282  2.2178
15711TIP3    H268625   4.577   3.865  11.269  0.0618 -2.0887 -2.8490
15712TIP3   OH268626   0.122   5.164   4.955  0.0394 -0.1633  0.2992
15712TIP3    H168627   0.094   5.202   4.872 -0.1046  0.0946  0.4643
15712TIP3    H268628   0.155   5.238   5.006 -0.4520 -0.2144  0.7073
15713TIP3   OH268629   0.621   6.078   4.158 -0.3710 -0.2844  0.0474
15713TIP3    H168630   0.632   6.160   4.110 -1.1344 -1.4775 -2.3536
15713TIP3    H268631   0.647   6.098   4.248  1.7511  1.9605 -0.9589
15714TIP3   OH268632   4.472   4.796   2.137  0.3309 -0.1576 -0.2100
15714TIP3    H168633   4.416   4.773   2.063 -0.4142 -0.3670  0.4052
15714TIP3    H268634   4.550   4.742   2.125  0.5030  0.2832 -1.1889
15715TIP3   OH268635   5.014   3.805  15.422  0.2553  0.0399 -0.6755
15715TIP3    H168636   4.951   3.847  15.363  1.7233  0.8349 -1.7426
15715TIP3    H268637   4.966   3.794  15.504 -1.4337  0.1167 -1.6029
15716TIP3   OH268638   0.805   6.487   2.715  0.3751  0.5884  0.8734
15716TIP3    H168639   0.861   6.534   2.777  2.1845  0.6122 -0.6873
15716TIP3    H268640   0.857   6.480   2.636 -1.8986  0.6370 -0.7173
15717TIP3   OH268641   4.289   5.556   4.625 -0.0178 -0.1693  0.3332
15717TIP3    H168642   4.253   5.507   4.551  0.8004 -1.7945  0.9455
15717TIP3    H268643   4.383   5.540   4.621  0.0954  0.1252  1.4277
15718TIP3   OH268644   3.436   0.414   5.984 -0.5300 -0.1648 -0.1867
15718TIP3    H168645   3.365   0.455   6.034 -2.1550 -1.4143 -1.3294
15718TIP3    H268646   3.468   0.483   5.926 -1.4252  0.2003 -0.2606
15719TIP3   OH268647   4.961   6.658   2.094 -0.2290  0.2406  0.7225
15719TIP3    H168648   5.016   6.675   2.170  0.5220 -0.5036  0.3606
15719TIP3    H268649   5.003   6.707   2.023 -0.2302 -0.0348  0.5289
15720TIP3   OH268650   3.747   6.039  11.647  0.1279 -0.4010 -0.8943
15720TIP3    H168651   3.795   6.080  11.718 -1.1367  0.6025 -0.5695
15720TIP3    H268652   3.776   6.086  11.568 -0.6065  0.5100 -0.6435
15721TIP3   OH268653   4.251   3.484   1.508  0.2308 -0.5091 -0.0602
15721TIP3    H168654   4.318   3.534   1.554  0.9414 -2.1691  0.8088
15721TIP3    H268655   4.185   3.548   1.482  0.1399  0.6136  2.7033
15722TIP3   OH268656   1.611   1.899   4.902  0.0606 -0.1647 -0.4050
15722TIP3    H168657   1.594   1.815   4.860 -0.2783 -1.2666  1.7900
15722TIP3    H268658   1.608   1.963   4.831 -0.0327 -1.9538 -2.0722
15723TIP3   OH268659   0.978   2.219   1.427 -0.1786  0.2065  0.0922
15723TIP3    H168660   0.944   2.197   1.513  0.4465  0.9031  0.5269
15723TIP3    H268661   1.073   2.219   1.438 -0.0337 -0.8414 -0.8851
15724TIP3   OH268662   0.898   5.606  16.089  0.4156 -0.2771  0.1585
15724TIP3    H168663   0.944   5.529  16.053  3.1927  0.0977  2.5681
15724TIP3    H268664   0.857   5.574  16.169  1.9539  0.7571  1.4142
15725TIP3   OH268665   1.860   0.741  14.496  0.1647 -0.3250 -0.4697
15725TIP3    H168666   1.822   0.704  14.575 -2.0882  1.3176 -0.7071
15725TIP3    H268667   1.872   0.665  14.438  1.1065 -1.4285  1.0995
15726TIP3   OH268668   5.142   1.592   2.504  0.2772 -0.0926  0.0496
15726TIP3    H168669   5.072   1.527   2.498 -0.4454  0.7638 -1.8502
15726TIP3    H268670   5.096   1.676   2.497  1.2024  0.6645  2.2304
15727TIP3   OH268671   2.973   3.873   0.114  0.6620  0.5343  0.3751
15727TIP3    H168672   2.912   3.947   0.119 -1.4024 -1.1473  1.4149
15727TIP3    H268673   3.022   3.888   0.033 -1.9746  1.3956 -1.1845
15728TIP3   OH268674   4.495   1.199  12.996  0.0038 -0.7938 -0.0933
15728TIP3    H168675   4.483   1.284  12.955  0.4375 -1.0341 -0.7317
15728TIP3    H268676   4.577   1.207  13.046  0.7189 -1.1954 -1.1511
15729TIP3   OH268677   4.461   3.258   2.263 -0.3305  0.2671 -0.0276
15729TIP3    H168678   4.442   3.167   2.241 -1.3304  0.4895 -0.1496
15729TIP3    H268679   4.452   3.262   2.358 -2.2233  0.6282 -0.1818
15730TIP3   OH268680   1.807   6.742  17.271 -0.1620 -0.1827  0.0018
15730TIP3    H168681   1.835   6.770  17.358  0.0381 -1.9440  0.5508
15730TIP3    H268682   1.889   6.731  17.222 -0.3253  1.9077 -0.8068
15731TIP3   OH268683   1.219   5.107  14.643  0.6064  0.0289 -0.8199
15731TIP3    H168684   1.246   5.037  14.703 -1.7491 -1.0423 -0.9041
15731TIP3    H268685   1.234   5.188  14.692 -0.9075 -0.7981  1.1599
15732TIP3   OH268686   2.788   0.372  11.875  0.0474  0.5144 -0.1564
15732TIP3    H168687   2.787   0.436  11.804  0.6420  1.1927  0.4243
15732TIP3    H268688   2.720   0.402  11.936 -1.4818 -0.8790 -1.0952
15733TIP3   OH268689   4.919   2.324   4.421 -0.6860 -0.2656 -0.1824
15733TIP3    H168690   4.993   2.276   4.385  1.0925  2.4856 -0.4838
15733TIP3    H268691   4.847   2.261   4.422  1.2872 -2.6620 -1.1359
15734TIP3   OH268692   6.330   4.101  11.620  0.2962  0.1589 -0.3762
15734TIP3    H168693   6.396   4.034  11.603 -0.2752 -0.9109  1.3572
15734TIP3    H268694   6.273   4.098  11.543  2.1149  1.0178 -1.8549
15735TIP3   OH268695   0.820   0.139   2.899 -0.6579  0.3709  0.1704
15735TIP3    H168696   0.899   0.193   2.906 -0.2490 -0.4571  3.5174
15735TIP3    H268697   0.853   0.050   2.884 -0.8954  0.0320  1.5175
15736TIP3   OH268698   1.176   1.954   0.962 -0.0363 -0.4585  0.0550
15736TIP3    H168699   1.147   1.905   1.039 -0.1293  0.0736  0.3621
15736TIP3    H268700   1.095   1.983   0.921  0.0351  1.0609  0.9314
15737TIP3   OH268701   0.374   0.677   5.429  0.4481  0.1694  0.2247
15737TIP3    H168702   0.410   0.741   5.491 -0.1714  0.1806  0.5802
15737TIP3    H268703   0.397   0.712   5.343  0.3705  0.7275  0.4242
15738TIP3   OH268704   1.634   3.250   3.568 -0.3897 -0.7750 -0.7529
15738TIP3    H168705   1.596   3.183   3.625 -1.6092  0.0683 -0.5342
15738TIP3    H268706   1.595   3.234   3.482  1.3474 -1.9612 -1.3858
15739TIP3   OH268707   1.636   6.641   2.734 -0.4977 -0.3084 -0.2145
15739TIP3    H168708   1.666   6.720   2.689 -1.1841  0.4541  0.6191
15739TIP3    H268709   1.593   6.590   2.666 -0.3739  0.2127 -0.6932
15740TIP3   OH268710   2.229   3.282  13.592  0.3620  0.7627  0.3361
15740TIP3    H168711   2.269   3.196  13.603 -0.4120  0.3518 -0.0287
15740TIP3    H268712   2.172   3.293  13.668  1.2812  1.4329  0.9578
15741TIP3   OH268713   4.624   3.050  12.038  0.2892  0.5339  0.0022
15741TIP3    H168714   4.582   3.118  11.984  0.0341 -0.1299 -0.6431
15741TIP3    H268715   4.717   3.067  12.029  0.2090  1.5740  0.8644
15742TIP3   OH268716   4.717   0.343  16.211 -0.4213 -0.0118 -0.1317
15742TIP3    H168717   4.767   0.315  16.135 -0.1396 -0.9570  0.3827
15742TIP3    H268718   4.655   0.408  16.177  1.1181  1.1693 -0.7814
15743TIP3   OH268719   2.441   1.875  13.177  0.3810  0.6887  0.2044
15743TIP3    H168720   2.465   1.959  13.136 -1.0015  0.7096 -0.6464
15743TIP3    H268721   2.502   1.812  13.139  1.2937  1.2546  0.6803
15744TIP3   OH268722   6.572   2.801   4.016 -0.0440  0.7219 -0.2152
15744TIP3    H168723   6.496   2.856   3.997 -0.5872  0.3430  0.7707
15744TIP3    H268724   6.553   2.718   3.973 -0.0539  0.7268 -0.2202
15745TIP3   OH268725   5.807   2.445   2.318 -0.2614 -0.0739 -0.2189
15745TIP3    H168726   5.821   2.350   2.329 -2.0323 -0.2288  1.1248
15745TIP3    H268727   5.834   2.482   2.402 -0.6804  0.4705 -0.3252
15746TIP3   OH268728   3.414   6.257  11.690  0.1081  0.2062 -0.5347
15746TIP3    H168729   3.362   6.321  11.642 -1.0416  0.6724  1.2488
15746TIP3    H268730   3.469   6.309  11.747  1.0586 -0.3583 -0.9137
15747TIP3   OH268731   5.652   1.801   1.949  0.3052 -0.1118 -0.0319
15747TIP3    H168732   5.621   1.711   1.954 -1.2988  0.4410  0.6076
15747TIP3    H268733   5.678   1.823   2.038 -0.1497  0.3260 -0.0003
15748TIP3   OH268734   2.026   3.766   4.213 -0.3532  0.4967 -0.0406
15748TIP3    H168735   1.968   3.838   4.238 -0.0804  0.7181 -0.0384
15748TIP3    H268736   2.072   3.798   4.135 -1.1301 -0.1560 -0.7902
15749TIP3   OH268737   3.172   2.128  11.193  0.1261  0.2479 -0.4089
15749TIP3    H168738   3.159   2.218  11.162  1.1408  0.4476 -0.2802
15749TIP3    H268739   3.132   2.074  11.125  1.8969  0.7003 -1.9064
15750TIP3   OH268740   1.243   0.319   2.196  0.1517 -0.3150 -0.1790
15750TIP3    H168741   1.224   0.233   2.234 -2.5010 -0.3248 -1.2965
15750TIP3    H268742   1.167   0.337   2.140  1.9888  1.5003 -2.2261
15751TIP3   OH268743   1.153   4.196   3.959 -0.4385 -0.2416 -0.5115
15751TIP3    H168744   1.165   4.226   4.049 -0.9456 -0.5850 -0.3207
15751TIP3    H268745   1.107   4.267   3.915 -0.9025 -0.3956 -0.2821
15752TIP3   OH268746   1.890   2.771   3.753  0.3239  0.2801 -0.1074
15752TIP3    H168747   1.971   2.726   3.777  0.6336  0.3282 -1.0402
15752TIP3    H268748   1.906   2.863   3.775  0.7819  0.4006 -0.9301
15753TIP3   OH268749   3.602   2.997  13.015  0.0361  0.1522 -0.4216
15753TIP3    H168750   3.690   2.989  12.978  0.2103  1.1717 -0.2490
15753TIP3    H268751   3.609   3.067  13.080 -0.0841 -2.0875  2.1614
15754TIP3   OH268752   1.843   1.305  13.038 -0.4696  0.2071  0.3793
15754TIP3    H168753   1.882   1.385  13.004 -1.2949  1.0963  1.4227
15754TIP3    H268754   1.843   1.245  12.964 -0.8269  1.5418 -0.7587
15755TIP3   OH268755   6.207   6.804  14.777  0.3935 -0.1129  0.0721
15755TIP3    H168756   6.212   6.731  14.715 -0.4812 -0.6731  0.6332
15755TIP3    H268757   6.298   6.828  14.793  0.6486 -0.3175 -1.0027
15756TIP3   OH268758   4.964   6.141  11.114  0.1239  0.3183  0.4095
15756TIP3    H168759   4.915   6.192  11.179 -1.9611 -0.7372 -0.2386
15756TIP3    H268760   4.946   6.185  11.031 -0.3910 -0.5271  0.0580
15757TIP3   OH268761   3.593   5.050   5.193 -0.1215 -0.1688  0.1137
15757TIP3    H168762   3.529   5.014   5.131 -1.2209 -0.1163  1.1748
15757TIP3    H268763   3.554   5.133   5.221  1.2283  0.6959 -0.4749
15758TIP3   OH268764   5.399   2.248  11.265  0.1940 -0.2089  0.0679
15758TIP3    H168765   5.401   2.335  11.225 -2.3901  0.0958  0.4698
15758TIP3    H268766   5.435   2.190  11.197 -1.0327  0.7426 -1.4652
15759TIP3   OH268767   6.045   4.505  10.762 -0.6272 -0.1071 -0.1493
15759TIP3    H168768   6.017   4.438  10.823 -2.2305 -0.0087 -0.7240
15759TIP3    H268769   6.128   4.538  10.798 -0.0112 -2.0770  0.3497
15760TIP3   OH268770   4.789   6.627   2.860  0.0699 -0.0045 -0.3375
15760TIP3    H168771   4.704   6.670   2.844  0.5634  1.1009 -0.1024
15760TIP3    H268772   4.769   6.534   2.860 -1.5726  0.2463  1.8781
15761TIP3   OH268773   6.131   1.100   0.084  0.1431  0.4155 -0.7704
15761TIP3    H168774   6.081   1.071   0.007  0.1097  0.2214 -0.6751
15761TIP3    H268775   6.068   1.149   0.136  0.0518  0.1719 -0.6511
15762TIP3   OH268776   2.788   3.847   4.780 -0.1429  0.0124 -0.1377
15762TIP3    H168777   2.827   3.768   4.816 -0.2887 -0.0702 -0.1594
15762TIP3    H268778   2.857   3.886   4.726 -0.1767 -0.2716 -0.3913
15763TIP3   OH268779   0.250   1.045   1.378  0.3861  0.7102 -0.3639
15763TIP3    H168780   0.205   1.094   1.448 -0.7663  0.0488 -0.6078
15763TIP3    H268781   0.197   0.966   1.367  0.7843  0.6041 -1.7047
15764TIP3   OH268782   2.133   4.045   1.460 -0.2253 -0.1329  0.3943
15764TIP3    H168783   2.098   4.043   1.549 -1.6164  0.7982 -0.0927
15764TIP3    H268784   2.142   3.953   1.435  0.2473 -0.4048  1.5132
15765TIP3   OH268785   2.789   1.587  15.818 -0.4906 -0.4562 -0.1760
15765TIP3    H168786   2.876   1.593  15.779 -0.6988 -1.0757 -0.7465
15765TIP3    H268787   2.735   1.545  15.751 -0.9712 -1.0802  0.5822
15766TIP3   OH268788   6.796   1.560  11.066 -0.2732 -0.1329 -0.2264
15766TIP3    H168789   6.707   1.552  11.032 -0.3250  2.2761 -0.8886
15766TIP3    H268790   6.848   1.589  10.991  0.7742 -0.1146  0.4811
15767TIP3   OH268791   5.741   2.104   2.761  0.2733  0.3981  0.0428
15767TIP3    H168792   5.729   2.189   2.718 -0.2350  0.0369 -0.5351
15767TIP3    H268793   5.832   2.081   2.742 -0.2641 -0.3280 -1.9429
15768TIP3   OH268794   5.346   6.019   4.310 -0.2882 -0.0067 -0.3972
15768TIP3    H168795   5.336   6.106   4.348  0.9176  0.3206 -0.7873
15768TIP3    H268796   5.273   6.011   4.248 -0.6121  0.5761 -0.1028
15769TIP3   OH268797   0.794   2.634   4.064  0.2069  0.9705  0.3418
15769TIP3    H168798   0.725   2.573   4.090  0.2185  1.1291  0.7451
15769TIP3    H268799   0.752   2.693   4.001  0.3203  0.2540 -0.4305
15770TIP3   OH268800   6.008   4.195   0.531  0.1043 -0.2803 -0.0295
15770TIP3    H168801   5.941   4.263   0.535  1.7741  1.4812 -0.7523
15770TIP3    H268802   6.072   4.220   0.597 -0.0754 -2.1641  0.9307
15771TIP3   OH268803   2.635   4.263  12.407 -0.3420  0.1992 -0.0215
15771TIP3    H168804   2.579   4.330  12.368  0.5678  0.7054 -0.5129
15771TIP3    H268805   2.575   4.196  12.438 -1.5348  2.3003  2.7284
15772TIP3   OH268806   6.264   3.094  11.015  0.6333  0.4979 -0.1230
15772TIP3    H168807   6.230   3.076  11.103  0.7666 -0.6644 -0.2882
15772TIP3    H268808   6.187   3.122  10.965  0.6015  1.3861  0.4180
15773TIP3   OH268809   5.153   3.195  12.321 -0.2888 -0.4758 -0.0032
15773TIP3    H168810   5.095   3.265  12.350  0.0266 -0.1686 -0.1087
15773TIP3    H268811   5.153   3.202  12.225  0.8416  0.2786  0.0390
15774TIP3   OH268812   4.356   3.204  12.839 -0.6689  0.4360  0.2263
15774TIP3    H168813   4.322   3.282  12.883 -0.2045  2.0907 -2.1870
15774TIP3    H268814   4.304   3.197  12.759  1.4973  0.2682 -1.2286
15775TIP3   OH268815   3.155   3.836  12.664 -0.8399 -0.3068  0.7754
15775TIP3    H168816   3.140   3.763  12.605 -2.4674  1.0422 -0.5697
15775TIP3    H268817   3.143   3.799  12.752  0.3304 -2.0414  0.2604
15776TIP3   OH268818   6.003   3.211  14.261 -0.6960  0.1355  0.1055
15776TIP3    H168819   5.970   3.246  14.344 -0.8693  0.5114 -0.1153
15776TIP3    H268820   6.060   3.138  14.286 -1.3073 -0.2121  0.5222
15777TIP3   OH268821   4.659   3.624  14.152  0.0667 -0.3191  0.5791
15777TIP3    H168822   4.603   3.557  14.113  0.8751 -0.8982  0.3873
15777TIP3    H268823   4.603   3.670  14.214 -0.4073 -1.4092  0.9688
15778TIP3   OH268824   1.825   4.283  15.964 -0.4416  0.0332  0.0487
15778TIP3    H168825   1.902   4.339  15.973 -0.2454  0.1643 -2.0473
15778TIP3    H268826   1.853   4.198  16.000  1.1320 -0.2770 -1.7636
15779TIP3   OH268827   0.301   2.562   5.674 -0.4328  0.0097 -0.1527
15779TIP3    H168828   0.229   2.499   5.676 -0.0608 -0.4864  2.7367
15779TIP3    H268829   0.378   2.510   5.699  0.4098  1.0619 -0.5035
15780TIP3   OH268830   4.816   3.523  15.198 -0.0945 -0.2077  0.1714
15780TIP3    H168831   4.830   3.517  15.104  1.1830  0.8316  0.2714
15780TIP3    H268832   4.904   3.521  15.236 -0.6037 -1.3123  1.4126
15781TIP3   OH268833   6.290   1.513   0.076  0.0449  0.2538  0.0995
15781TIP3    H168834   6.380   1.544   0.085  0.0045  0.0527  1.3432
15781TIP3    H268835   6.238   1.576   0.125 -0.6497  0.9660 -1.4853
15782TIP3   OH268836   2.894   5.693   6.134 -0.3046  0.0505  0.7317
15782TIP3    H168837   2.912   5.786   6.115 -1.5510 -0.0601 -1.3706
15782TIP3    H268838   2.805   5.679   6.102  0.4999 -2.2830 -0.7585
15783TIP3   OH268839   2.623   4.024   0.061  0.1042  0.1524 -0.2401
15783TIP3    H168840   2.578   4.105   0.038 -1.3114 -0.7675 -0.8663
15783TIP3    H268841   2.692   4.051   0.121  0.4478  1.9588 -1.3813
15784TIP3   OH268842   6.724   0.655  14.976 -0.1825  0.0262 -0.2548
15784TIP3    H168843   6.630   0.666  14.959 -0.0775 -0.2210 -1.0356
15784TIP3    H268844   6.762   0.639  14.890  0.4460 -0.8441  0.1666
15785TIP3   OH268845   6.097   1.580  12.746  0.5617 -0.2064 -0.1336
15785TIP3    H168846   6.051   1.526  12.810  0.7107 -0.7134 -0.4468
15785TIP3    H268847   6.177   1.608  12.792  1.0443 -1.1980 -0.3390
15786TIP3   OH268848   5.183   1.392  13.618  0.1693  0.1434  0.2674
15786TIP3    H168849   5.198   1.355  13.531 -1.6108 -0.0403  0.0143
15786TIP3    H268850   5.189   1.318  13.678  0.2043  0.0701  0.1728
15787TIP3   OH268851   3.518   5.249   4.768  0.2195 -0.6204  0.0747
15787TIP3    H168852   3.508   5.341   4.745  1.8163 -0.6225 -0.7682
15787TIP3    H268853   3.576   5.214   4.700 -0.1572 -2.1922  0.5281
15788TIP3   OH268854   5.410   2.258   3.568 -0.7489  0.0244  0.0227
15788TIP3    H168855   5.500   2.280   3.592 -0.9931  1.0842  0.0470
15788TIP3    H268856   5.418   2.197   3.495 -0.0053  0.6736 -0.4611
15789TIP3   OH268857   6.547   6.406   0.521  0.3319 -0.3445 -0.0621
15789TIP3    H168858   6.510   6.379   0.606 -2.2671 -2.5180 -1.7091
15789TIP3    H268859   6.492   6.480   0.494 -0.6383 -1.3523 -0.9601
15790TIP3   OH268860   2.530   5.098  11.831  0.3513 -0.1355  0.7919
15790TIP3    H168861   2.484   5.022  11.868 -0.1321  0.0131  0.5003
15790TIP3    H268862   2.483   5.118  11.750  0.3425  0.6113  0.9755
15791TIP3   OH268863   2.467   5.871   2.824  0.2816 -0.4176  0.3387
15791TIP3    H168864   2.479   5.846   2.916  0.0804 -0.8853  0.2432
15791TIP3    H268865   2.463   5.787   2.777 -0.8490 -0.2344  0.0639
15792TIP3   OH268866   4.469   4.565  11.710  0.1051  0.2841 -0.3016
15792TIP3    H168867   4.452   4.519  11.627  0.3364  0.1497 -0.2751
15792TIP3    H268868   4.516   4.501  11.763 -0.8060  0.0591  0.2605
15793TIP3   OH268869   4.886   5.545   0.311  0.2425  0.1945 -0.4528
15793TIP3    H168870   4.974   5.510   0.325  0.8294  2.1110  1.0913
15793TIP3    H268871   4.897   5.610   0.242  0.4572  1.6928  0.9278
15794TIP3   OH268872   3.324   1.746   1.368 -0.1176  0.3061 -0.7932
15794TIP3    H168873   3.332   1.707   1.455  3.5401  0.7446 -0.7651
15794TIP3    H268874   3.339   1.839   1.381 -1.0317  0.6208 -1.7681
15795TIP3   OH268875   4.781   4.737   5.581  0.5701 -0.1736  0.7843
15795TIP3    H168876   4.860   4.790   5.590  0.2081  0.5168  0.0350
15795TIP3    H268877   4.813   4.648   5.566  1.1861 -0.1242  1.7329
15796TIP3   OH268878   4.413   3.310   3.934 -0.1681 -0.1435 -0.1501
15796TIP3    H168879   4.389   3.381   3.874  1.6251  0.1663 -0.5466
15796TIP3    H268880   4.429   3.235   3.876  0.0746 -0.2739  0.0873
15797TIP3   OH268881   5.411   1.397  13.826  0.1670 -0.4040 -0.0406
15797TIP3    H168882   5.324   1.434  13.833  0.5177  0.3305  0.6065
15797TIP3    H268883   5.467   1.471  13.804  0.9684 -0.3740  1.8689
15798TIP3   OH268884   2.210   3.145  14.613 -0.0406  0.2754  0.1468
15798TIP3    H168885   2.164   3.200  14.676  1.0556  1.2194  0.1549
15798TIP3    H268886   2.296   3.131  14.652 -0.1656 -1.1524 -0.0338
15799TIP3   OH268887   1.570   0.663  10.817 -0.1947 -0.1512 -0.0760
15799TIP3    H168888   1.515   0.635  10.744  1.9383  0.2564 -1.9597
15799TIP3    H268889   1.630   0.589  10.830 -0.4765 -0.1665  1.2179
15800TIP3   OH268890   1.923   2.358   4.682 -0.0148  0.3221  0.0960
15800TIP3    H168891   1.937   2.408   4.601  1.0007 -3.0216 -1.9648
15800TIP3    H268892   1.829   2.339   4.683 -0.1674  1.0337  0.1753
15801TIP3   OH268893   5.521   4.936   1.245  0.0566 -0.2057 -0.2489
15801TIP3    H168894   5.615   4.936   1.259 -0.1935 -0.6029  1.7035
15801TIP3    H268895   5.506   4.862   1.187  0.9251 -0.2027 -0.4944
15802TIP3   OH268896   3.809   6.050   3.243  0.6289 -0.3013  0.0161
15802TIP3    H168897   3.771   6.057   3.331 -0.1048  0.0571 -0.3217
15802TIP3    H268898   3.826   5.957   3.232  1.5345 -0.2475  0.8698
15803TIP3   OH268899   5.004   6.043   6.127 -0.3878  0.1458  0.6674
15803TIP3    H168900   5.073   5.976   6.133 -0.7084 -0.1678  0.9521
15803TIP3    H268901   4.936   6.002   6.074  0.0313  0.8049 -0.4108
15804TIP3   OH268902   4.438   3.536   6.360  0.1711  0.3928 -0.3311
15804TIP3    H168903   4.383   3.519   6.283 -0.0586 -1.2227  0.1550
15804TIP3    H268904   4.528   3.534   6.326  0.0848 -0.6008 -0.5378
15805TIP3   OH268905   2.630   0.010   0.526  0.1868  0.5040 -0.3394
15805TIP3    H168906   2.715   0.026   0.568  0.0358  1.4779 -0.3758
15805TIP3    H268907   2.567   0.057   0.581 -0.2744  0.1259 -0.5422
15806TIP3   OH268908   3.982   3.568  14.749 -0.1108 -0.8746  0.1121
15806TIP3    H168909   3.893   3.569  14.712  0.4076 -1.0857 -1.2023
15806TIP3    H268910   3.991   3.480  14.786 -0.4133 -0.8866  0.1618
15807TIP3   OH268911   5.683   0.266   0.132  0.2005 -0.5683 -0.5187
15807TIP3    H168912   5.739   0.193   0.160 -1.4526 -1.4959  0.5888
15807TIP3    H268913   5.661   0.312   0.214 -0.5001 -0.1424 -0.9316
15808TIP3   OH268914   0.403   0.109   1.389 -0.0255 -0.1417  0.5476
15808TIP3    H168915   0.409   0.187   1.444 -0.7770 -0.9759  1.8598
15808TIP3    H268916   0.320   0.119   1.342 -0.6512 -0.6230  1.5135
15809TIP3   OH268917   0.571   6.253   0.434 -0.2119 -0.6552  0.4061
15809TIP3    H168918   0.568   6.349   0.431  0.5163 -0.5212  2.4296
15809TIP3    H268919   0.532   6.230   0.518 -0.8346 -2.1882 -0.2669
15810TIP3   OH268920   5.821   2.126   3.672  0.3719  0.0033 -0.7927
15810TIP3    H168921   5.906   2.114   3.715  0.4717 -0.2345 -1.0545
15810TIP3    H268922   5.765   2.059   3.711 -0.3924  1.6604  1.1439
15811TIP3   OH268923   4.826   5.754   3.735 -0.2492  0.2767 -0.7243
15811TIP3    H168924   4.897   5.694   3.759 -0.4794  0.0101 -0.6925
15811TIP3    H268925   4.781   5.710   3.663 -2.6381 -1.4107  1.5588
15812TIP3   OH268926   3.131   6.668  14.431  0.3546  0.4607  0.1829
15812TIP3    H168927   3.197   6.635  14.369 -0.5494 -0.9325 -0.0927
15812TIP3    H268928   3.082   6.733  14.381 -0.1245 -0.3805 -0.4764
15813TIP3   OH268929   4.830   5.717   2.775 -0.4149 -0.2055  0.2302
15813TIP3    H168930   4.903   5.712   2.836 -0.4236 -0.0606  0.2519
15813TIP3    H268931   4.867   5.687   2.691  0.2127  1.7104 -0.2498
15814TIP3   OH268932   5.423   3.749   6.741 -0.1309  0.7026 -0.2466
15814TIP3    H168933   5.511   3.720   6.765 -0.2518  0.1753 -0.4216
15814TIP3    H268934   5.392   3.683   6.680 -1.0315  0.3414  0.5716
15815TIP3   OH268935   4.955   6.534  12.912  0.3501  0.0968  0.0555
15815TIP3    H168936   4.908   6.617  12.921  0.1115 -0.1759  1.4584
15815TIP3    H268937   4.889   6.473  12.880  1.0171  0.8818 -3.2143
15816TIP3   OH268938   1.288   6.383  13.025  0.1103  0.1026 -0.0429
15816TIP3    H168939   1.270   6.463  13.074 -2.5829 -1.4151  1.7416
15816TIP3    H268940   1.292   6.411  12.933 -0.6860  2.2695  0.5253
15817TIP3   OH268941   0.336   3.499  15.974  0.8210  0.2881 -0.0302
15817TIP3    H168942   0.371   3.493  15.886  1.1231  1.4905 -0.0084
15817TIP3    H268943   0.265   3.563  15.968 -0.1484 -0.7196  0.3084
15818TIP3   OH268944   2.723   6.586  12.135  0.2711 -0.6866  0.2683
15818TIP3    H168945   2.713   6.494  12.110  0.3202 -0.4620 -0.6331
15818TIP3    H268946   2.732   6.632  12.051 -3.5751  0.6456  0.3892
15819TIP3   OH268947   0.093   0.911  12.276 -0.0896  0.3750  0.1047
15819TIP3    H168948   0.073   0.892  12.184  1.6053  0.4906 -0.3372
15819TIP3    H268949   0.189   0.918  12.278 -0.0730  0.0656  1.9561
15820TIP3   OH268950   4.672   6.102  15.075  0.1685  0.5556  0.6639
15820TIP3    H168951   4.689   6.167  15.007  0.8457  0.9087  1.1637
15820TIP3    H268952   4.664   6.019  15.028 -0.4903  0.9572  0.0426
15821TIP3   OH268953   5.859   4.815   1.153 -0.0692 -0.1666  0.4311
15821TIP3    H168954   5.861   4.723   1.181  0.3523 -0.2339  0.1824
15821TIP3    H268955   5.894   4.863   1.227 -0.6092 -0.1700  0.6938
15822TIP3   OH268956   4.989   1.382   2.625 -0.3122 -0.0778  0.0199
15822TIP3    H168957   4.912   1.351   2.576  0.0133 -1.2716  0.2365
15822TIP3    H268958   4.955   1.401   2.713 -0.2373 -1.2606  0.3124
15823TIP3   OH268959   2.188   5.508   4.350 -0.2871  0.3262 -0.0508
15823TIP3    H168960   2.241   5.541   4.423  1.2252  0.2778 -1.0626
15823TIP3    H268961   2.113   5.466   4.391  0.4796  0.3748  1.4681
15824TIP3   OH268962   0.402   1.690   1.826 -0.1734 -0.7557  0.7033
15824TIP3    H168963   0.468   1.725   1.766 -1.0161 -2.1630 -1.1244
15824TIP3    H268964   0.451   1.631   1.884  0.5083 -0.0870  0.8193
15825TIP3   OH268965   5.832   3.530   4.517 -0.5670  0.6530 -0.0956
15825TIP3    H168966   5.797   3.619   4.509 -3.2882 -0.4300 -1.9091
15825TIP3    H268967   5.792   3.496   4.597  1.7896  1.4861  1.5362
15826TIP3   OH268968   5.832   0.483  14.276  0.2477  0.6134 -0.0542
15826TIP3    H168969   5.770   0.411  14.288 -0.3895  1.3583  1.5351
15826TIP3    H268970   5.890   0.476  14.352  1.4888  0.5556 -0.9802
15827TIP3   OH268971   1.216   2.573   2.225  0.2903 -0.2001 -0.3464
15827TIP3    H168972   1.230   2.646   2.165  1.8570  1.7336  2.1328
15827TIP3    H268973   1.302   2.556   2.263 -0.3423 -2.3463  0.2488
15828TIP3   OH268974   2.955   3.711  12.260  1.0171 -0.4086 -0.3633
15828TIP3    H168975   3.038   3.664  12.246  1.3937 -0.5867  1.9489
15828TIP3    H268976   2.945   3.766  12.183  2.8760 -1.0092 -1.0970
15829TIP3   OH268977   0.160   3.680   6.198 -0.1206 -0.2023 -0.5225
15829TIP3    H168978   0.198   3.623   6.264 -1.1481  1.0593  1.2281
15829TIP3    H268979   0.210   3.761   6.204 -0.2327 -0.0671 -1.2886
15830TIP3   OH268980   2.626   0.304  17.243 -0.5246 -0.0479 -0.1844
15830TIP3    H168981   2.609   0.278  17.334  2.4160  1.9032  1.0614
15830TIP3    H268982   2.595   0.229  17.192  2.0342 -3.4678  2.7346
15831TIP3   OH268983   6.384   2.262  15.264 -0.0877 -0.8114 -0.6070
15831TIP3    H168984   6.431   2.345  15.273  0.0736 -0.8617 -0.9426
15831TIP3    H268985   6.351   2.263  15.174 -1.1040 -0.5931 -0.2391
15832TIP3   OH268986   0.349   6.780   6.326  0.1475  0.2604 -0.2065
15832TIP3    H168987   0.278   6.840   6.347  0.3764  1.0240 -1.4580
15832TIP3    H268988   0.311   6.693   6.330 -0.6641  0.6178 -0.1220
15833TIP3   OH268989   1.016   5.968   1.033  0.1003  0.6454 -0.9757
15833TIP3    H168990   0.925   5.989   1.054 -0.8461  0.9913 -4.6737
15833TIP3    H268991   1.046   5.912   1.105 -3.4900 -0.6653 -0.3211
15834TIP3   OH268992   0.633   3.665   4.792  0.2350 -0.2548 -0.1866
15834TIP3    H168993   0.656   3.758   4.786  0.7641 -0.4335 -1.0616
15834TIP3    H268994   0.697   3.629   4.854 -1.7767  0.5019  2.5046
15835TIP3   OH268995   6.241   1.254  17.034  0.3255 -0.1014  0.6870
15835TIP3    H168996   6.334   1.232  17.045 -0.2749 -2.0041  2.6585
15835TIP3    H268997   6.200   1.173  17.005 -0.6073  1.0375 -1.3947
15836TIP3   OH268998   3.684   4.380   2.391 -0.6303 -0.8472  0.3349
15836TIP3    H168999   3.664   4.381   2.485 -1.5941 -0.4849  0.1442
15836TIP3    H269000   3.774   4.410   2.385 -0.9478  0.3260  1.0732
15837TIP3   OH269001   4.901   2.247   2.298  0.4521 -0.4128  0.1150
15837TIP3    H169002   4.895   2.205   2.384 -1.5066  0.7466  0.6034
15837TIP3    H269003   4.869   2.180   2.237 -0.5964 -0.4116  0.6292
15838TIP3   OH269004   5.681   6.346  13.799 -0.2345 -0.1910  0.1086
15838TIP3    H169005   5.753   6.288  13.773 -0.9002 -1.0783  0.2085
15838TIP3    H269006   5.616   6.338  13.730 -0.6757 -0.1695  0.5145
15839TIP3   OH269007   0.852   2.257  17.240 -0.9986 -0.5022 -0.1531
15839TIP3    H169008   0.806   2.177  17.265 -0.5957 -0.6649  0.0720
15839TIP3    H269009   0.849   2.257  17.144 -2.0934 -0.1389 -0.1283
15840TIP3   OH269010   3.891   3.231   3.464  0.3156  0.0083  1.0984
15840TIP3    H169011   3.982   3.238   3.493 -0.1355  0.6575  2.4897
15840TIP3    H269012   3.864   3.322   3.447  0.3296 -0.2928 -0.7455
15841TIP3   OH269013   0.401   0.463   0.373  0.1863  0.1330  0.4302
15841TIP3    H169014   0.470   0.509   0.327 -0.3274 -0.8294 -1.3893
15841TIP3    H269015   0.338   0.531   0.398  0.8044  0.7470  0.3225
15842TIP3   OH269016   3.655   5.094  14.751 -0.8051  0.5263  0.6552
15842TIP3    H169017   3.591   5.047  14.698 -1.9574  1.9090  0.7851
15842TIP3    H269018   3.670   5.036  14.826 -1.4319 -0.0886  0.3187
15843TIP3   OH269019   6.474   4.737   4.724  0.4020  0.0132 -0.5782
15843TIP3    H169020   6.447   4.747   4.632 -1.3458 -0.3766 -0.1485
15843TIP3    H269021   6.432   4.811   4.768  0.5195 -0.2918  0.0452
15844TIP3   OH269022   0.582   3.236  12.435  0.6586  0.2941 -0.2521
15844TIP3    H169023   0.670   3.206  12.456  1.0318 -0.0367 -2.0923
15844TIP3    H269024   0.528   3.158  12.439  1.1361 -0.2254 -2.4398
15845TIP3   OH269025   1.554   0.695   3.662 -1.1187  0.9990 -0.1513
15845TIP3    H169026   1.547   0.654   3.749 -0.7425 -0.1357 -0.6308
15845TIP3    H269027   1.466   0.688   3.625 -1.6286  2.7316  0.6484
15846TIP3   OH269028   6.597   4.393   3.912 -0.6887  0.0716 -0.2872
15846TIP3    H169029   6.519   4.358   3.868  0.2761  0.2290 -2.2722
15846TIP3    H269030   6.665   4.328   3.895 -0.1394  0.4278  0.5270
15847TIP3   OH269031   5.440   0.314   5.994  0.5784  0.3207 -0.0562
15847TIP3    H169032   5.504   0.384   5.983 -0.2549  1.4242  1.7595
15847TIP3    H269033   5.409   0.297   5.905  1.1293  1.9461 -0.6022
15848TIP3   OH269034   4.827   3.284   3.059  0.6979 -0.3695  0.5733
15848TIP3    H169035   4.886   3.263   3.131  0.8753 -1.7349  0.0658
15848TIP3    H269036   4.860   3.233   2.985 -0.2369  0.0122 -0.1294
15849TIP3   OH269037   0.743   5.576   5.717  0.8709  0.8413 -0.1914
15849TIP3    H169038   0.686   5.631   5.770 -0.4097 -0.5682 -0.0208
15849TIP3    H269039   0.811   5.546   5.777  1.0087  1.4276 -0.0498
15850TIP3   OH269040   0.194   2.699  12.980 -0.0362 -0.1751 -0.0010
15850TIP3    H169041   0.149   2.716  13.063  2.0933 -0.6146  1.3309
15850TIP3    H269042   0.173   2.608  12.959  0.4304 -0.4611  0.7496
15851TIP3   OH269043   4.794   3.134  12.402 -0.0689 -0.2356 -0.0117
15851TIP3    H169044   4.823   3.064  12.460 -0.7455 -2.4969 -2.1960
15851TIP3    H269045   4.860   3.203  12.412  1.4266 -1.7627  1.2187
15852TIP3   OH269046   4.015   2.877   1.555 -0.4232 -0.1932 -0.0186
15852TIP3    H169047   4.001   2.799   1.609 -3.2432 -0.1309 -0.4923
15852TIP3    H269048   4.030   2.842   1.467 -1.0391 -0.2462 -0.1104
15853TIP3   OH269049   3.698   2.671   3.542 -0.2174 -0.0407  0.0497
15853TIP3    H169050   3.757   2.596   3.549 -0.7831 -0.4717  0.2530
15853TIP3    H269051   3.622   2.647   3.594 -0.9640  0.1340 -0.9311
15854TIP3   OH269052   3.414   4.102   4.951  0.0942  0.6109 -0.1957
15854TIP3    H169053   3.409   4.197   4.961  0.8347  0.4664  2.0501
15854TIP3    H269054   3.323   4.073   4.949 -0.3855  0.9962  4.5625
15855TIP3   OH269055   0.053   1.768  14.308  0.5873  0.1056  0.3727
15855TIP3    H169056   0.124   1.704  14.315 -0.0870 -0.5973  0.9646
15855TIP3    H269057   0.096   1.852  14.318  1.3762 -0.2985  0.4746
15856TIP3   OH269058   6.184   4.030   2.844  0.7468  0.0457 -1.1238
15856TIP3    H169059   6.103   4.074   2.820 -0.0541 -1.0983 -0.5712
15856TIP3    H269060   6.194   4.048   2.938  1.0576  0.0483 -1.1551
15857TIP3   OH269061   1.621   6.353   3.917  0.0748  0.3494  0.8664
15857TIP3    H169062   1.690   6.288   3.922 -1.0277 -0.9334 -0.0464
15857TIP3    H269063   1.648   6.421   3.979  2.1610 -0.0624  0.4935
15858TIP3   OH269064   0.507   3.434   2.199  0.4771  0.0223  0.6969
15858TIP3    H169065   0.567   3.361   2.218  1.3767  0.9367  1.4685
15858TIP3    H269066   0.548   3.510   2.241 -0.4092  0.9927 -0.1568
15859TIP3   OH269067   5.232   3.798  10.822 -0.5815  0.2879 -0.0712
15859TIP3    H169068   5.286   3.725  10.793 -0.6411  0.1551  0.1518
15859TIP3    H269069   5.210   3.777  10.913 -0.6356  0.5601 -0.0214
15860TIP3   OH269070   6.446   4.403   6.513  0.2288 -0.0400 -0.6704
15860TIP3    H169071   6.383   4.384   6.443 -0.6024 -2.0090  0.5502
15860TIP3    H269072   6.470   4.495   6.498 -0.0737 -0.3018 -3.3896
15861TIP3   OH269073   0.666   5.078  12.834 -0.2863  0.0222  0.3790
15861TIP3    H169074   0.608   5.145  12.798 -0.8953 -1.6796 -2.0681
15861TIP3    H269075   0.622   5.048  12.914 -1.7328  0.2445 -0.2976
15862TIP3   OH269076   2.816   2.212   3.729  0.7272 -0.7075 -0.2676
15862TIP3    H169077   2.827   2.201   3.635 -0.3383  0.1675 -0.5010
15862TIP3    H269078   2.740   2.159   3.751 -1.3035  1.8934 -0.5582
15863TIP3   OH269079   2.769   5.477  11.640  0.3211 -0.4119 -0.1195
15863TIP3    H169080   2.856   5.460  11.677  0.3518 -0.2132 -0.1036
15863TIP3    H269081   2.770   5.569  11.617  0.9165 -0.9139 -2.2730
15864TIP3   OH269082   0.449   6.807   1.823  0.0001  0.1347  0.0441
15864TIP3    H169083   0.401   6.747   1.767 -1.0233 -0.3740  1.4029
15864TIP3    H269084   0.541   6.793   1.800 -0.3780 -0.0767 -1.4425
15865TIP3   OH269085   0.497   0.098  11.738 -0.2186  0.3656 -0.3965
15865TIP3    H169086   0.522   0.105  11.646  2.1897 -2.1222 -0.0527
15865TIP3    H269087   0.401   0.096  11.737 -0.2615  0.8240 -2.7654
15866TIP3   OH269088   1.805   0.917  14.170  0.3973  0.4513 -0.1579
15866TIP3    H169089   1.800   0.970  14.249 -0.7056  0.1171  0.0074
15866TIP3    H269090   1.751   0.963  14.106 -0.4179 -0.3439 -0.0693
15867TIP3   OH269091   0.996   3.610  16.409 -0.4457 -0.4095 -0.3871
15867TIP3    H169092   0.933   3.543  16.437  0.8236 -1.2460  0.6017
15867TIP3    H269093   0.964   3.639  16.324 -0.1175 -3.5990 -1.7523
15868TIP3   OH269094   6.563   5.279   1.133 -0.2605  0.3903  0.3722
15868TIP3    H169095   6.615   5.201   1.152 -0.6155  0.3433  1.1896
15868TIP3    H269096   6.609   5.321   1.061 -1.1001 -1.5679 -1.4078
15869TIP3   OH269097   3.516   3.171   0.846 -0.3638  0.4989  0.5256
15869TIP3    H169098   3.607   3.200   0.839  0.3007 -0.3390  3.9514
15869TIP3    H269099   3.466   3.251   0.861  0.0599  0.7869  0.4160
15870TIP3   OH269100   3.518   0.600   4.945 -0.3127 -0.3618 -0.9159
15870TIP3    H169101   3.477   0.686   4.932  0.5909 -0.0070 -1.5862
15870TIP3    H269102   3.610   0.615   4.921 -0.4795 -1.9245 -2.7718
15871TIP3   OH269103   1.789   6.007   4.741  0.5886 -0.4163  0.5101
15871TIP3    H169104   1.820   6.088   4.782  2.1670 -1.8878  2.4409
15871TIP3    H269105   1.793   6.025   4.647  3.9975  0.7583  0.7270
15872TIP3   OH269106   4.902   0.740  13.791 -0.2922  0.5012 -0.4097
15872TIP3    H169107   4.885   0.723  13.883  1.1042 -0.2136 -0.2643
15872TIP3    H269108   4.815   0.752  13.752 -0.9591 -0.4070  0.7589
15873TIP3   OH269109   3.077   3.774  12.912  0.2476  0.0820 -0.1771
15873TIP3    H169110   2.989   3.801  12.885  0.1990 -2.2762 -2.7889
15873TIP3    H269111   3.064   3.692  12.959  1.0795 -0.8513 -1.5138
15874TIP3   OH269112   5.794   0.088  14.121 -0.0381  0.0735 -0.0818
15874TIP3    H169113   5.820  -0.003  14.106 -1.6312 -0.6962  1.4819
15874TIP3    H269114   5.767   0.119  14.035 -0.1462 -1.1683 -0.5264
15875TIP3   OH269115   2.357   6.764   3.507 -0.5094  0.2240 -0.3982
15875TIP3    H169116   2.410   6.739   3.431 -0.2044 -0.6240  0.0819
15875TIP3    H269117   2.355   6.686   3.562  1.1333  1.4541  1.5543
15876TIP3   OH269118   5.646   2.434   5.564 -0.4678 -0.2194 -0.0376
15876TIP3    H169119   5.631   2.490   5.640  3.2719  0.4699  0.3679
15876TIP3    H269120   5.621   2.489   5.489  0.6120  1.0164  0.4835
15877TIP3   OH269121   1.722   1.021   4.301 -0.2141  0.4622 -0.3861
15877TIP3    H169122   1.720   1.011   4.396  2.1096  0.5900 -0.2688
15877TIP3    H269123   1.724   0.931   4.267 -0.2557  0.4210 -0.2788
15878TIP3   OH269124   2.946   5.316  12.617 -0.1373  0.7542 -0.1945
15878TIP3    H169125   2.874   5.342  12.674 -0.1336 -0.0938  0.2173
15878TIP3    H269126   2.924   5.354  12.531 -1.7425 -0.5353 -0.4143
15879TIP3   OH269127   4.345   4.214  14.259 -0.0979 -0.7804 -0.0430
15879TIP3    H169128   4.326   4.145  14.195  0.8873 -0.7614 -0.3755
15879TIP3    H269129   4.358   4.167  14.341  0.5802 -1.0124 -0.2700
15880TIP3   OH269130   1.664   0.464  15.157 -0.6558  0.6089  0.5236
15880TIP3    H169131   1.586   0.409  15.147 -0.4661  0.0873  1.7110
15880TIP3    H269132   1.713   0.450  15.076 -0.3270 -1.4863  1.0049
15881TIP3   OH269133   6.566   0.465  16.490 -0.0377  0.8471 -0.0421
15881TIP3    H169134   6.567   0.530  16.420  0.4422  1.4588  0.5172
15881TIP3    H269135   6.482   0.477  16.533 -0.5030  0.1977 -0.7554
15882TIP3   OH269136   1.974   6.353   4.884 -0.0500  0.2320 -0.2659
15882TIP3    H169137   1.959   6.448   4.890  0.1303  0.2901 -0.7489
15882TIP3    H269138   2.024   6.341   4.804 -0.6948 -0.3490 -0.5946
15883TIP3   OH269139   4.980   0.094   6.513  0.2249 -0.0384  0.2249
15883TIP3    H169140   5.042   0.134   6.574 -0.3590  2.1461 -0.5112
15883TIP3    H269141   4.918   0.164   6.492 -1.2423 -1.5383 -0.7113
15884TIP3   OH269142   0.615   2.331  11.939  0.4570 -1.0426  0.1462
15884TIP3    H169143   0.571   2.316  11.856 -0.4211 -0.4469  0.4873
15884TIP3    H269144   0.633   2.243  11.973  1.2540 -1.2916 -0.8681
15885TIP3   OH269145   1.990   3.588  16.048 -0.5095 -0.0950 -0.5898
15885TIP3    H169146   1.938   3.564  15.971 -1.3787  0.0929 -0.0630
15885TIP3    H269147   1.930   3.636  16.104 -0.5416 -2.1016  1.2265
15886TIP3   OH269148   2.920   4.699   2.989 -0.4204  0.3484  0.3577
15886TIP3    H169149   2.959   4.722   3.074  0.7623  0.7006 -0.2485
15886TIP3    H269150   2.981   4.737   2.925  0.4247 -2.5677 -0.6991
15887TIP3   OH269151   5.914   4.737  14.250  0.6117  0.1601  0.6247
15887TIP3    H169152   5.881   4.648  14.235 -1.2365  0.6822  1.4036
15887TIP3    H269153   5.949   4.734  14.339  0.1064  0.3316  0.8309
15888TIP3   OH269154   3.088   6.650  13.220 -0.3724  0.8402  0.7406
15888TIP3    H169155   3.030   6.715  13.180  0.1268  1.7841  1.5203
15888TIP3    H269156   3.030   6.575  13.237 -1.0743  1.2705  0.3213
15889TIP3   OH269157   4.631   0.930  14.207  0.0342  0.3658  0.1283
15889TIP3    H169158   4.699   0.980  14.252  1.0540 -0.7130 -0.1634
15889TIP3    H269159   4.586   0.995  14.152  2.6145  0.7018 -1.7863
15890TIP3   OH269160   1.559   5.940   3.825 -0.2086  0.0911 -0.3511
15890TIP3    H169161   1.472   5.963   3.793  0.5027  0.3223 -2.2826
15890TIP3    H269162   1.558   5.845   3.834 -0.7226  0.1162 -0.1280
15891TIP3   OH269163   4.013   3.184   5.010 -0.4576 -0.2769 -0.0137
15891TIP3    H169164   4.006   3.271   4.972 -2.0106 -0.1611  0.4956
15891TIP3    H269165   4.009   3.199   5.105 -2.7686 -1.0069  0.0649
15892TIP3   OH269166   5.228   2.208  14.844  0.2999  0.7101 -0.4795
15892TIP3    H169167   5.292   2.144  14.813  0.4059  0.3689  0.4002
15892TIP3    H269168   5.154   2.200  14.783  0.0286 -0.7450 -0.0035
15893TIP3   OH269169   0.425   2.122   3.462  0.2788  0.1597 -0.4327
15893TIP3    H169170   0.519   2.105   3.462  0.0554 -1.2559  0.6105
15893TIP3    H269171   0.406   2.151   3.551 -0.3546 -0.0638 -0.4908
15894TIP3   OH269172   6.187   4.319  15.899 -0.0103  0.1152 -0.3182
15894TIP3    H169173   6.199   4.248  15.835 -2.0806  0.5799 -1.3107
15894TIP3    H269174   6.196   4.276  15.984  1.4280 -0.7967 -0.8954
15895TIP3   OH269175   3.726   6.425  11.296 -0.2047  0.0515 -0.3171
15895TIP3    H169176   3.634   6.411  11.277  0.0620  0.8917 -2.5880
15895TIP3    H269177   3.764   6.452  11.212  2.0027  0.2406  0.6644
15896TIP3   OH269178   1.555   0.517   6.809  0.2419  0.1393 -0.3982
15896TIP3    H169179   1.511   0.437   6.781 -1.2370  0.9819 -0.5765
15896TIP3    H269180   1.530   0.583   6.744 -1.9676  1.7413  1.8602
15897TIP3   OH269181   1.658   5.636  14.856 -0.2323  0.3399 -0.4507
15897TIP3    H169182   1.660   5.589  14.773  0.0394  0.1718 -0.3510
15897TIP3    H269183   1.749   5.662  14.871 -0.4665  1.3715 -0.7719
15898TIP3   OH269184   3.407   6.745   1.389 -0.0342  0.6887  0.2053
15898TIP3    H169185   3.452   6.673   1.433 -0.4672 -0.5120 -1.2399
15898TIP3    H269186   3.455   6.758   1.308 -2.1231 -0.5481 -1.3363
15899TIP3   OH269187   3.417   3.554  12.560 -0.2521  0.4257 -0.6531
15899TIP3    H169188   3.488   3.564  12.624 -0.8810  0.3418  0.0770
15899TIP3    H269189   3.429   3.466  12.525 -0.5748  0.0331  0.1996
15900TIP3   OH269190   2.203   2.465  12.330 -0.3735  0.6516 -0.5054
15900TIP3    H169191   2.271   2.528  12.356  0.1980  0.0049 -0.3938
15900TIP3    H269192   2.146   2.459  12.407  1.5832 -1.6238  0.9397
15901TIP3   OH269193   5.099   4.850   1.459 -0.1573 -0.5231  0.3111
15901TIP3    H169194   5.094   4.942   1.433 -1.1031  0.1694  2.6214
15901TIP3    H269195   5.104   4.801   1.377  1.3675  1.6119 -0.9571
15902TIP3   OH269196   3.517   0.812  15.430  0.0091 -0.0840 -0.3847
15902TIP3    H169197   3.431   0.772  15.416  0.3969 -1.5743  1.0668
15902TIP3    H269198   3.505   0.904  15.408 -2.4053  0.0958  1.2987
15903TIP3   OH269199   6.680   2.362   5.592  0.5483  0.0903  0.0614
15903TIP3    H169200   6.718   2.359   5.680 -1.3655  0.6922  0.9536
15903TIP3    H269201   6.591   2.328   5.602  0.4543 -0.3121 -1.7531
15904TIP3   OH269202   4.186   2.721  10.902  0.1899 -0.1704 -0.3170
15904TIP3    H169203   4.120   2.718  10.833  0.2189  0.6675 -0.3921
15904TIP3    H269204   4.246   2.790  10.874 -1.3676  2.2988  1.8957
15905TIP3   OH269205   3.029   2.728  12.988 -0.1758  0.0267  0.2647
15905TIP3    H169206   3.021   2.823  12.978 -1.3871  0.0311  1.0696
15905TIP3    H269207   3.103   2.704  12.932  1.0196  1.6191  1.0723
15906TIP3   OH269208   4.763   3.942   0.701 -1.2319 -1.3162 -0.5869
15906TIP3    H169209   4.755   3.901   0.615 -1.2642  0.0123 -1.2400
15906TIP3    H269210   4.851   3.981   0.701 -1.6173 -0.4219 -0.4307
15907TIP3   OH269211   1.408   6.304   0.314  0.4810 -0.8716  0.0408
15907TIP3    H169212   1.498   6.326   0.337 -0.3422  2.3376  0.6411
15907TIP3    H269213   1.354   6.353   0.376 -1.7317 -2.2100 -0.6795
15908TIP3   OH269214   6.089   6.317  14.411 -0.6275  0.2019  0.1683
15908TIP3    H169215   6.165   6.323  14.353 -1.9886 -0.5146 -1.7908
15908TIP3    H269216   6.086   6.224  14.436 -1.6551 -0.1170 -0.9969
15909TIP3   OH269217   2.751   1.778   4.782 -0.0079 -0.1464 -0.1791
15909TIP3    H169218   2.695   1.724   4.726 -0.6091  0.9567 -0.6677
15909TIP3    H269219   2.720   1.868   4.767  0.7872  0.3075  0.8245
15910TIP3   OH269220   6.779   5.520  11.181  0.3265 -0.0322  0.2035
15910TIP3    H169221   6.839   5.506  11.108  0.7352 -1.5756  0.7937
15910TIP3    H269222   6.829   5.570  11.245  0.2418  0.6018 -0.2251
15911TIP3   OH269223   5.251   6.663   3.943 -0.1379  0.3792 -0.1963
15911TIP3    H169224   5.206   6.682   3.860  1.4557  1.6796 -0.8240
15911TIP3    H269225   5.244   6.568   3.953 -2.2526  0.4363 -0.6659
15912TIP3   OH269226   0.482   1.637  17.029 -0.2625 -0.0239  0.2862
15912TIP3    H169227   0.538   1.560  17.038  0.4255  0.2097 -1.4469
15912TIP3    H269228   0.543   1.711  17.023 -0.8547  0.5048  0.6437
15913TIP3   OH269229   2.524   4.969   5.178 -0.3415 -0.1733 -0.6109
15913TIP3    H169230   2.547   4.900   5.117  0.4119 -0.5063  0.0320
15913TIP3    H269231   2.597   4.973   5.239 -1.9507 -1.2624  1.5297
15914TIP3   OH269232   0.276   5.663  12.056  0.5186  0.2514 -0.0937
15914TIP3    H169233   0.304   5.603  12.126  0.3533  0.9165  0.5612
15914TIP3    H269234   0.193   5.698  12.087  0.3655  0.4412 -0.7059
15915TIP3   OH269235   6.586   4.400   2.163 -0.0432  0.2433  0.5964
15915TIP3    H169236   6.601   4.392   2.069  2.2921  0.5015  0.8868
15915TIP3    H269237   6.568   4.310   2.192  0.5335 -0.0342  0.1030
15916TIP3   OH269238   5.157   3.622   5.873  0.0055  0.5756  0.3407
15916TIP3    H169239   5.235   3.571   5.848 -0.1225  0.7733 -0.4767
15916TIP3    H269240   5.131   3.584   5.957 -0.6608 -1.3884 -0.6818
15917TIP3   OH269241   4.071   5.108   1.728  0.2867 -0.0937  0.0782
15917TIP3    H169242   4.107   5.181   1.677 -0.2999 -0.1941 -0.5024
15917TIP3    H269243   4.003   5.072   1.671 -0.0779 -0.4912  0.7662
15918TIP3   OH269244   3.882   1.943   3.136  0.3113  0.4071 -0.2172
15918TIP3    H169245   3.915   1.863   3.096  0.7361  0.1692  0.5869
15918TIP3    H269246   3.956   2.004   3.133  0.9886 -0.2489  1.9214
15919TIP3   OH269247   2.677   2.633  16.450 -0.0546  0.8944  0.1024
15919TIP3    H169248   2.737   2.574  16.404 -0.8591  1.6367 -1.9782
15919TIP3    H269249   2.601   2.579  16.470  1.1512 -0.0362  2.6977
15920TIP3   OH269250   5.519   3.531  15.110  0.0504 -0.0884 -0.5081
15920TIP3    H169251   5.567   3.588  15.049 -0.1629  0.1019 -0.5010
15920TIP3    H269252   5.461   3.591  15.157 -1.8158 -0.5713 -2.0382
15921TIP3   OH269253   5.242   2.928   0.350 -0.0600 -0.0930 -0.0706
15921TIP3    H169254   5.302   2.926   0.275 -0.2492 -2.8705 -0.2617
15921TIP3    H269255   5.155   2.926   0.312 -0.1845 -0.2588  0.2167
15922TIP3   OH269256   6.033   6.425  16.021 -0.0505 -0.2905  0.0361
15922TIP3    H169257   6.036   6.455  15.931 -1.5591  0.2161  0.1335
15922TIP3    H269258   6.124   6.432  16.052  0.2240  0.9244 -0.9765
15923TIP3   OH269259   4.310   3.715   5.547 -0.0319  0.4561  0.0020
15923TIP3    H169260   4.273   3.728   5.634 -1.2765 -1.0898 -0.2568
15923TIP3    H269261   4.294   3.798   5.502 -0.3826  0.8849  0.8824
15924TIP3   OH269262   6.025   1.331   4.076 -0.0897 -0.2019 -0.0079
15924TIP3    H169263   6.058   1.256   4.027  1.6764  0.6769 -0.2143
15924TIP3    H269264   6.021   1.300   4.167 -0.0099 -0.7434 -0.1875
15925TIP3   OH269265   0.621   3.883  16.352 -0.6825 -0.1617 -0.2260
15925TIP3    H169266   0.676   3.891  16.430  0.1705 -0.7683 -0.7409
15925TIP3    H269267   0.552   3.948  16.365  0.9220  1.6385 -0.1861
15926TIP3   OH269268   1.543   1.972  11.527 -0.0367 -0.0239  0.0498
15926TIP3    H169269   1.476   1.985  11.595 -1.3150 -1.1448 -0.9427
15926TIP3    H269270   1.526   1.884  11.493  1.1961  0.1382 -1.0611
15927TIP3   OH269271   4.743   2.265   3.488 -0.3558 -0.3135 -0.3169
15927TIP3    H169272   4.836   2.264   3.512 -0.1878 -1.0668 -0.9423
15927TIP3    H269273   4.729   2.351   3.448 -0.1047  0.0720  0.4059
15928TIP3   OH269274   6.663   5.451  14.993  0.0267 -0.2966  0.0987
15928TIP3    H169275   6.741   5.436  15.047 -0.1037 -1.1577  0.0592
15928TIP3    H269276   6.605   5.502  15.049  0.1273 -0.6895  0.5698
15929TIP3   OH269277   4.320   5.120  12.772  0.4752 -0.3609  0.5648
15929TIP3    H169278   4.411   5.096  12.787  0.2730 -0.7558  1.1642
15929TIP3    H269279   4.295   5.171  12.849  1.4170  3.4262 -1.4013
15930TIP3   OH269280   4.106   5.242  10.837 -0.1735  0.3564 -0.5935
15930TIP3    H169281   4.028   5.187  10.833  0.2476 -0.5475  1.8633
15930TIP3    H269282   4.174   5.192  10.791 -0.5155  0.2116 -0.9436
15931TIP3   OH269283   2.930   5.722  12.639  0.1297  0.4043 -0.1530
15931TIP3    H169284   2.992   5.768  12.696 -1.3754  1.3193  0.8302
15931TIP3    H269285   2.952   5.630  12.648  2.2710  0.7653 -0.9996
15932TIP3   OH269286   1.650   0.601  12.921 -0.2722 -0.3435  0.0306
15932TIP3    H169287   1.705   0.675  12.947 -0.0087 -0.7375  0.6105
15932TIP3    H269288   1.663   0.594  12.826  0.2319 -0.0727  0.0767
15933TIP3   OH269289   6.427   2.248   5.204 -0.1029  0.6207  0.1585
15933TIP3    H169290   6.512   2.290   5.209  0.1507 -0.0321  1.7930
15933TIP3    H269291   6.381   2.276   5.283 -0.0878 -1.7190  1.0962
15934TIP3   OH269292   6.713   5.480  16.728  0.3044 -0.3275  0.0175
15934TIP3    H169293   6.701   5.431  16.646  0.5275  0.8553 -0.7444
15934TIP3    H269294   6.624   5.503  16.754  0.2056 -1.0399  0.3251
15935TIP3   OH269295   4.514   3.113   6.066  0.0174 -0.3156 -0.2218
15935TIP3    H169296   4.457   3.055   6.017  2.3283 -1.8446 -1.2916
15935TIP3    H269297   4.560   3.055   6.127  1.1729  0.6329 -0.1532
15936TIP3   OH269298   2.732   1.688   1.615  0.6038  0.0080  0.1020
15936TIP3    H169299   2.700   1.731   1.695  1.3528  0.4837  0.1617
15936TIP3    H269300   2.670   1.714   1.548 -0.2690 -0.7341  0.6065
15937TIP3   OH269301   2.992   4.641   5.755 -0.2571  0.2655 -0.7249
15937TIP3    H169302   2.990   4.677   5.843 -0.7424  0.2221 -0.7188
15937TIP3    H269303   2.985   4.717   5.697  0.8594  0.3715 -0.7454
15938TIP3   OH269304   5.420   1.139  10.997 -0.1648  0.5922  0.2007
15938TIP3    H169305   5.336   1.117  10.957 -0.2611  0.6970  0.3463
15938TIP3    H269306   5.415   1.103  11.086 -0.0358  0.5554  0.1943
15939TIP3   OH269307   4.938   3.469   3.895 -0.7012  0.2256  0.7465
15939TIP3    H169308   4.866   3.521   3.859 -0.3577 -0.0656 -0.4241
15939TIP3    H269309   4.895   3.404   3.951 -1.7429 -2.0376 -2.3990
15940TIP3   OH269310   5.251   6.672  12.810 -0.1602 -0.0051  0.3094
15940TIP3    H169311   5.327   6.698  12.862  0.5914 -1.6095  0.0906
15940TIP3    H269312   5.257   6.576  12.805 -1.8170 -0.1124 -0.3060
15941TIP3   OH269313   5.804   5.235   0.421  0.3143  0.2582  0.4605
15941TIP3    H169314   5.894   5.234   0.454 -0.2577  0.1183  2.0827
15941TIP3    H269315   5.750   5.254   0.498 -1.1796 -1.3601 -0.1088
15942TIP3   OH269316   6.047   0.142  11.980  0.9740  0.2474  0.3760
15942TIP3    H169317   5.963   0.100  11.960  1.0140  0.8748 -1.1997
15942TIP3    H269318   6.024   0.218  12.035  0.2058  1.7591 -1.9104
15943TIP3   OH269319   5.999   5.083   4.144  0.4931  0.2904  0.6673
15943TIP3    H169320   6.000   5.024   4.220 -1.3075 -1.1057 -0.3043
15943TIP3    H269321   6.021   5.026   4.070 -1.2928  0.7833 -0.3007
15944TIP3   OH269322   4.693   0.240  12.775  0.3784  0.0941 -0.1909
15944TIP3    H169323   4.739   0.290  12.707  0.3930 -1.3583 -1.2959
15944TIP3    H269324   4.601   0.264  12.764  0.3391 -0.3756 -0.9590
15945TIP3   OH269325   4.346   5.834  11.338  0.5608 -0.5589 -0.5005
15945TIP3    H169326   4.305   5.767  11.394  2.7020 -0.9519  0.7119
15945TIP3    H269327   4.332   5.916  11.385  1.7188 -0.7950  0.3237
15946TIP3   OH269328   3.709   5.485   2.308  0.3588 -0.7418 -0.5311
15946TIP3    H169329   3.646   5.515   2.242 -0.8778  0.4611  1.1177
15946TIP3    H269330   3.685   5.394   2.325 -1.1791 -0.2217  0.2729
15947TIP3   OH269331   5.361   3.715  13.604 -0.7464 -0.0554  0.2030
15947TIP3    H169332   5.349   3.621  13.604 -0.8055 -0.0919  2.2169
15947TIP3    H269333   5.456   3.728  13.611 -0.6048  0.0963 -1.4301
15948TIP3   OH269334   3.477   1.526  13.236 -0.5566  0.1281 -0.0771
15948TIP3    H169335   3.499   1.441  13.274  0.5896 -0.4856 -1.9449
15948TIP3    H269336   3.470   1.585  13.311 -2.0325 -1.7048  1.3379
15949TIP3   OH269337   4.025   3.499   4.008 -0.0868 -0.6046 -0.0872
15949TIP3    H169338   3.990   3.456   3.931  2.8984 -0.1552 -1.8751
15949TIP3    H269339   4.052   3.586   3.977  4.4276 -1.5930  0.3197
15950TIP3   OH269340   6.348   6.477   1.857  0.6358 -0.4918  0.0528
15950TIP3    H169341   6.277   6.462   1.919  0.7729 -1.1688  0.0531
15950TIP3    H269342   6.411   6.407   1.875  1.2913  0.0839  0.0379
15951TIP3   OH269343   4.774   4.078   3.793  0.3331  1.3020  0.3551
15951TIP3    H169344   4.862   4.062   3.827  0.1889  0.5898  0.4161
15951TIP3    H269345   4.722   4.007   3.830 -0.2420  1.6573  0.2245
15952TIP3   OH269346   3.219   3.756  14.246 -0.0666  0.1636  0.2134
15952TIP3    H169347   3.139   3.727  14.290 -0.3759 -0.1732 -0.5550
15952TIP3    H269348   3.190   3.780  14.158  0.9892 -2.0744 -0.8333
15953TIP3   OH269349   5.314   6.222  16.608 -0.4918 -0.1649 -0.2024
15953TIP3    H169350   5.370   6.176  16.546  0.1958  0.5494 -0.1154
15953TIP3    H269351   5.264   6.283  16.554  0.1232  0.4728 -0.0482
15954TIP3   OH269352   6.500   1.228   4.463 -0.4856  0.1849 -0.1505
15954TIP3    H169353   6.421   1.249   4.415  0.0393 -0.2479 -1.2325
15954TIP3    H269354   6.484   1.141   4.500 -0.6070  0.1966 -0.1774
15955TIP3   OH269355   1.416   3.300  11.958  0.2535  0.1329 -0.2555
15955TIP3    H169356   1.481   3.292  11.888 -0.1147  1.3685 -0.7671
15955TIP3    H269357   1.341   3.249  11.927  0.0337  0.7954 -0.8684
15956TIP3   OH269358   4.764   2.156  12.553  0.3077  0.2222  0.0133
15956TIP3    H169359   4.808   2.167  12.637  1.9060  0.7177 -0.8463
15956TIP3    H269360   4.721   2.071  12.560 -1.0445  0.9859  1.9223
15957TIP3   OH269361   6.683   5.428  13.406 -0.0509  0.4692 -0.6158
15957TIP3    H169362   6.696   5.514  13.446  0.9544  1.0056 -2.0164
15957TIP3    H269363   6.723   5.436  13.319  1.6253 -1.9371 -0.1463
15958TIP3   OH269364   3.188   5.459  12.664 -0.0366 -0.5524  0.2265
15958TIP3    H169365   3.108   5.429  12.619  0.0600 -1.8124  0.8519
15958TIP3    H269366   3.168   5.449  12.757  0.9379 -1.1785  0.3853
15959TIP3   OH269367   6.322   6.800  16.299 -0.4937 -0.1204  0.2201
15959TIP3    H169368   6.360   6.836  16.379 -0.1238  0.8702 -0.3926
15959TIP3    H269369   6.237   6.766  16.326 -0.8904  1.2872  0.8012
15960TIP3   OH269370   1.867   5.756  16.585 -0.5349 -0.1352 -0.8587
15960TIP3    H169371   1.962   5.751  16.571  0.0521  0.8272  2.0152
15960TIP3    H269372   1.844   5.845  16.558 -0.7445 -0.5194 -1.9945
15961TIP3   OH269373   2.428   5.700   0.304  0.1991 -0.5735  0.3188
15961TIP3    H169374   2.503   5.680   0.360  0.4465  2.0521  1.0745
15961TIP3    H269375   2.352   5.680   0.358  0.4077 -0.5926  0.6119
15962TIP3   OH269376   2.835   6.776  11.549  0.0365  0.0703 -0.0638
15962TIP3    H169377   2.743   6.752  11.537 -0.0700  0.9664 -1.3126
15962TIP3    H269378   2.832   6.853  11.607  0.0836 -0.5120  0.7210
15963TIP3   OH269379   3.411   5.293   5.569  0.3484 -0.1877 -0.1591
15963TIP3    H169380   3.443   5.308   5.481  0.2738 -0.4685 -0.2339
15963TIP3    H269381   3.488   5.267   5.619  0.2134 -1.0352 -0.3788
15964TIP3   OH269382   5.058   1.121  16.769  0.7890 -0.4431  0.1617
15964TIP3    H169383   5.068   1.117  16.674  0.5494 -0.9580  0.1547
15964TIP3    H269384   5.071   1.031  16.798  2.6597 -0.0021  0.8085
15965TIP3   OH269385   4.224   0.479   4.124  0.0982 -0.2144  0.3324
15965TIP3    H169386   4.201   0.391   4.154 -0.7751 -0.0279  0.2262
15965TIP3    H269387   4.258   0.523   4.202 -0.6374 -0.2529  0.6811
15966TIP3   OH269388   4.422   1.033   4.383  0.2066 -0.0644  0.0450
15966TIP3    H169389   4.394   0.954   4.337 -0.2682  0.7786 -1.1620
15966TIP3    H269390   4.479   1.079   4.320 -0.2289  0.9756  0.3855
15967TIP3   OH269391   1.138   4.828  11.819 -0.5074 -0.3477 -0.0581
15967TIP3    H169392   1.051   4.868  11.825 -0.6343 -0.6347  0.0186
15967TIP3    H269393   1.180   4.851  11.902 -0.6228 -0.4741  0.0349
15968TIP3   OH269394   2.330   0.259   0.986  0.1190  0.0556 -0.6313
15968TIP3    H169395   2.387   0.248   1.061 -0.9069  3.0101  0.7428
15968TIP3    H269396   2.248   0.294   1.023 -1.2467 -0.5339 -2.8912
15969TIP3   OH269397   0.102   3.744  17.014  0.4041 -0.6063 -0.4882
15969TIP3    H169398   0.138   3.833  17.007  0.1027 -0.3127  1.3210
15969TIP3    H269399   0.035   3.740  16.945 -0.9051  1.2623  0.5748
15970TIP3   OH269400   3.140   5.675  15.064  0.3812 -0.6917  0.3655
15970TIP3    H169401   3.216   5.729  15.043  1.3134 -1.5327  1.4548
15970TIP3    H269402   3.164   5.630  15.144 -0.8274 -1.8409  0.1155
15971TIP3   OH269403   0.626   2.804  13.784 -0.2909  0.0118  0.2475
15971TIP3    H169404   0.532   2.792  13.770  0.0750 -0.8973 -1.9139
15971TIP3    H269405   0.639   2.898  13.776 -1.0931  0.2335  1.3169
15972TIP3   OH269406   3.082   5.613   2.361 -0.3801  0.5560 -0.0478
15972TIP3    H169407   3.150   5.644   2.301 -0.4398 -0.9568 -0.9431
15972TIP3    H269408   3.124   5.544   2.412 -1.6387 -1.6680 -1.8437
15973TIP3   OH269409   6.736   1.895  13.046 -0.2544  0.1775 -0.2146
15973TIP3    H169410   6.718   1.925  12.957  0.5964  0.5315 -0.2703
15973TIP3    H269411   6.804   1.954  13.078  1.6748 -1.8012 -0.4295
15974TIP3   OH269412   6.468   0.036   1.995 -0.3941 -0.0214 -0.0798
15974TIP3    H169413   6.559   0.006   1.998 -1.0642 -2.2170  1.3610
15974TIP3    H269414   6.436   0.008   1.909  0.1559  0.3129 -0.3947
15975TIP3   OH269415   1.508   6.492   3.146 -0.3242  0.8814 -0.0989
15975TIP3    H169416   1.471   6.403   3.148  1.2379  0.1533 -1.2394
15975TIP3    H269417   1.478   6.528   3.062 -0.1290  1.0571 -0.0933
15976TIP3   OH269418   3.521   6.789  13.521  0.2595 -0.0403 -0.4453
15976TIP3    H169419   3.613   6.763  13.523  0.6926  1.4054 -0.2688
15976TIP3    H269420   3.483   6.736  13.452  0.8954 -1.6305  0.3633
15977TIP3   OH269421   1.070   2.349   0.434 -0.2273 -0.0096  0.9263
15977TIP3    H169422   1.128   2.416   0.470  1.7289  0.1169 -2.1365
15977TIP3    H269423   1.074   2.278   0.498  1.9884  0.6739  1.6609
15978TIP3   OH269424   3.512   4.811  13.158  0.0534 -0.1676 -0.4844
15978TIP3    H169425   3.585   4.867  13.183 -0.3534  0.5627 -0.9283
15978TIP3    H269426   3.498   4.756  13.235  1.9515 -1.2930 -0.8628
15979TIP3   OH269427   5.581   2.724   3.118 -0.5811 -0.2324 -0.2114
15979TIP3    H169428   5.543   2.777   3.048  0.5483  1.7049  0.5682
15979TIP3    H269429   5.538   2.754   3.198  0.9227  0.4274  0.4004
15980TIP3   OH269430   6.357   1.949   0.807  0.2288 -0.2354  0.0767
15980TIP3    H169431   6.308   1.952   0.889  0.9479 -2.2419  0.6431
15980TIP3    H269432   6.338   1.862   0.771  2.2364 -0.5448 -0.3751
15981TIP3   OH269433   3.296   1.902   2.551  0.3310 -0.0119 -0.1706
15981TIP3    H169434   3.304   1.952   2.633  1.7881  0.5965 -0.6591
15981TIP3    H269435   3.384   1.868   2.536  0.4472  1.0730 -2.2193
15982TIP3   OH269436   2.240   6.631  15.493 -0.6424 -0.2586 -0.5392
15982TIP3    H169437   2.218   6.538  15.484 -0.9856 -0.3184  0.7626
15982TIP3    H269438   2.325   6.639  15.450 -1.3919 -0.8042 -2.2349
15983TIP3   OH269439   6.472   1.585  12.477  0.1028  0.0847  0.3702
15983TIP3    H169440   6.400   1.526  12.501 -0.4550  0.3596 -0.5774
15983TIP3    H269441   6.520   1.538  12.409 -1.2646  1.2889 -1.5403
15984TIP3   OH269442   6.278   0.718   4.866  0.4104 -0.2127 -0.2199
15984TIP3    H169443   6.363   0.728   4.909 -0.2813 -1.6014  1.6094
15984TIP3    H269444   6.236   0.803   4.878  1.5304  0.5088 -1.1857
15985TIP3   OH269445   6.186   0.911  16.413 -0.2663  0.1523 -0.2690
15985TIP3    H169446   6.147   0.829  16.380  0.3627  0.2674 -1.3421
15985TIP3    H269447   6.189   0.968  16.336  0.7131  0.6414  0.1222
15986TIP3   OH269448   0.573   2.708  15.211 -0.2390  0.4427 -0.4790
15986TIP3    H169449   0.522   2.639  15.254  0.2892 -0.2900 -0.9908
15986TIP3    H269450   0.645   2.661  15.169 -0.6031  1.1723 -1.9599
15987TIP3   OH269451   6.256   0.408  16.370  0.3663 -0.3572  0.0464
15987TIP3    H169452   6.192   0.350  16.412  0.1518 -1.9835 -2.3021
15987TIP3    H269453   6.268   0.479  16.432 -2.0081 -1.1491  1.5753
15988TIP3   OH269454   3.397   2.241  17.289 -0.1252  0.1716  0.6298
15988TIP3    H169455   3.321   2.206  17.242  0.0107 -1.6834  1.7253
15988TIP3    H269456   3.398   2.334  17.265 -0.9389 -0.3614 -1.8037
15989TIP3   OH269457   0.092   4.675  13.071 -0.4031 -0.3212  0.8481
15989TIP3    H169458   0.066   4.758  13.031  0.2954 -0.9631 -1.0471
15989TIP3    H269459   0.018   4.616  13.055  0.6753 -1.1588 -1.4349
15990TIP3   OH269460   1.928   5.576  13.375 -0.4412  0.3163  0.2909
15990TIP3    H169461   1.947   5.533  13.459 -0.5376  0.0568  0.1830
15990TIP3    H269462   1.903   5.504  13.318  2.9660 -0.0657 -0.9860
15991TIP3   OH269463   2.098   6.801   2.536  0.1325 -0.2319 -0.1034
15991TIP3    H169464   2.133   6.832   2.453  2.3804 -0.6199  0.6335
15991TIP3    H269465   2.047   6.874   2.570 -0.1626  0.2062 -1.4385
15992TIP3   OH269466   0.325   0.025   1.020  0.4549 -0.0809  0.0810
15992TIP3    H169467   0.239   0.057   0.992  0.5107  0.0783  0.0903
15992TIP3    H269468   0.379   0.030   0.942  1.4012  3.0520  0.8219
15993TIP3   OH269469   4.305   5.422  13.909  0.7661  0.1561  0.2405
15993TIP3    H169470   4.241   5.493  13.913  0.4667 -0.0872 -0.2065
15993TIP3    H269471   4.323   5.401  14.001 -1.4004 -1.2020  0.4187
15994TIP3   OH269472   4.055   6.069  14.144 -0.0851  0.6889  0.0351
15994TIP3    H169473   4.006   6.019  14.209 -1.0603  0.4799 -0.8378
15994TIP3    H269474   4.098   6.139  14.195  0.6982 -0.5569  1.1595
15995TIP3   OH269475   3.164   3.762  15.273 -0.0480 -0.2882 -0.2643
15995TIP3    H169476   3.092   3.700  15.268  0.2639 -0.7818  0.9757
15995TIP3    H269477   3.225   3.732  15.206 -1.6411  1.0574 -2.4134
15996TIP3   OH269478   3.362   4.097   3.584 -0.0593  0.0492  0.3802
15996TIP3    H169479   3.285   4.052   3.619 -0.3237  1.0947  1.1772
15996TIP3    H269480   3.395   4.038   3.516  0.1792 -1.8238  2.0239
15997TIP3   OH269481   6.604   4.520   5.129  0.4200  0.0204 -0.3178
15997TIP3    H169482   6.594   4.495   5.221 -0.8074  1.6517  0.0447
15997TIP3    H269483   6.586   4.614   5.128 -1.4599 -0.2662 -2.4916
15998TIP3   OH269484   4.097   2.157   1.701  0.6063 -0.3931  0.4426
15998TIP3    H169485   4.042   2.092   1.745  1.6350 -1.3219  0.4300
15998TIP3    H269486   4.154   2.191   1.770 -0.1803  0.8064  0.5268
15999TIP3   OH269487   0.760   5.898  16.076  0.6267  0.0432 -0.1173
15999TIP3    H169488   0.718   5.812  16.072  0.4385  0.1036  0.4326
15999TIP3    H269489   0.766   5.917  16.169  2.2862 -0.1601 -0.1535
16000TIP3   OH269490   4.749   0.680   0.331  0.3498  0.0929 -0.6908
16000TIP3    H169491   4.836   0.716   0.345  0.9426 -0.6645 -2.2747
16000TIP3    H269492   4.690   0.755   0.343  1.1687  0.5550  0.6287
16001TIP3   OH269493   3.161   2.449   1.818  0.7301 -0.2407 -0.1939
16001TIP3    H169494   3.219   2.398   1.874  1.6812  0.4631 -0.5106
16001TIP3    H269495   3.129   2.519   1.874  0.6095 -0.3102 -0.1738
16002TIP3   OH269496   5.961   5.937   5.102  0.5288  0.0186 -0.0790
16002TIP3    H169497   6.056   5.939   5.089  0.6387 -0.3271  0.6228
16002TIP3    H269498   5.947   5.989   5.181 -0.0111  1.1849 -0.9060
16003TIP3   OH269499   3.508   1.693   0.415 -0.3420  0.0682 -0.1370
16003TIP3    H169500   3.575   1.746   0.458 -0.2102 -0.3829  0.2229
16003TIP3    H269501   3.478   1.747   0.342  1.3574 -0.2546 -1.1196
16004TIP3   OH269502   4.525   6.080   2.130  0.8834  0.6984  0.2735
16004TIP3    H169503   4.475   6.048   2.205 -0.1071  0.4827 -0.4638
16004TIP3    H269504   4.503   6.173   2.125  1.3841  0.8404  0.5670
16005TIP3   OH269505   2.050   2.964   5.532  0.0314 -0.3937 -0.0863
16005TIP3    H169506   1.978   3.016   5.569 -1.3068 -2.1243 -0.1310
16005TIP3    H269507   2.036   2.876   5.566  2.2032 -0.7876 -0.0717
16006TIP3   OH269508   3.110   5.904  15.622 -0.2483  0.0316  0.0655
16006TIP3    H169509   3.141   5.899  15.531  0.0425  0.4446  0.1370
16006TIP3    H269510   3.090   5.997  15.635  0.2274  0.0677  0.5858
16007TIP3   OH269511   0.667   1.912   4.390  0.1683  0.2333  0.4008
16007TIP3    H169512   0.649   1.934   4.299 -1.8186 -0.0351  0.6950
16007TIP3    H269513   0.656   1.995   4.437  2.7932  0.7463  0.2507
16008TIP3   OH269514   0.905   1.405  13.770  0.7213  0.1926 -0.4029
16008TIP3    H169515   0.990   1.446  13.786  0.0359  1.0116  1.4883
16008TIP3    H269516   0.842   1.465  13.811 -0.6240 -1.1643 -0.4226
16009TIP3   OH269517   6.255   5.012  13.709 -0.4116 -0.2554 -0.0259
16009TIP3    H169518   6.257   4.929  13.757  0.1679 -0.6763 -0.7448
16009TIP3    H269519   6.241   4.986  13.618 -0.2291  0.4349 -0.2562
16010TIP3   OH269520   5.766   0.064   6.768  0.4723  0.2114 -0.3738
16010TIP3    H169521   5.707   0.138   6.781  2.3925  1.9775 -1.0794
16010TIP3    H269522   5.843   0.086   6.821  1.4082 -0.8951 -1.2244
16011TIP3   OH269523   3.050   4.964   3.762 -0.7263  0.1277 -0.2403
16011TIP3    H169524   3.122   5.027   3.754 -0.2903 -0.2919  0.2635
16011TIP3    H269525   3.039   4.929   3.674  1.2369 -1.4663  0.0681
16012TIP3   OH269526   2.483   1.508  17.050  0.2139  0.5124  0.1718
16012TIP3    H169527   2.532   1.579  17.008  0.6408  0.6052  0.8038
16012TIP3    H269528   2.536   1.430  17.035 -0.1548  0.3622 -0.3512
16013TIP3   OH269529   3.519   3.675   6.286  0.2951  0.0386  0.6818
16013TIP3    H169530   3.480   3.762   6.284  0.4421  0.1487  1.9251
16013TIP3    H269531   3.445   3.615   6.286  0.1650  0.1982  1.1323
16014TIP3   OH269532   1.119   6.580   3.665 -0.3923  0.7098  0.2813
16014TIP3    H169533   1.091   6.498   3.706 -1.3800  0.9093  0.0136
16014TIP3    H269534   1.119   6.644   3.736  1.0097  0.3678  0.6375
16015TIP3   OH269535   0.134   1.033  16.456  0.0066  0.7040  0.3724
16015TIP3    H169536   0.157   1.124  16.439  0.1458  0.7418  0.7554
16015TIP3    H269537   0.195   0.982  16.402  0.1191  0.8323  0.3790
16016TIP3   OH269538   4.006   5.908  15.230  0.2961  0.3418  0.1942
16016TIP3    H169539   3.933   5.845  15.232  1.1644 -0.7300 -0.7461
16016TIP3    H269540   3.964   5.992  15.211 -0.7989 -0.0681  0.6763
16017TIP3   OH269541   1.368   0.866   1.487 -0.3268 -0.1882  0.2041
16017TIP3    H169542   1.406   0.917   1.559 -0.9716 -0.8204  1.0221
16017TIP3    H269543   1.386   0.917   1.409  0.7853  0.3048  0.7589
16018TIP3   OH269544   0.591   1.370  16.253 -0.0855 -0.8066 -0.2288
16018TIP3    H169545   0.565   1.458  16.226 -3.2337 -1.3068  0.7173
16018TIP3    H269546   0.556   1.362  16.342  0.1627 -2.9842 -0.2834
16019TIP3   OH269547   3.169   0.833  16.206 -0.8605  0.5761  0.5431
16019TIP3    H169548   3.159   0.739  16.224  1.0503  0.2744  0.3311
16019TIP3    H269549   3.159   0.875  16.291 -0.4529  0.0321  0.8710
16020TIP3   OH269550   3.255   1.149  16.123 -0.5026  0.5376  0.0126
16020TIP3    H169551   3.255   1.245  16.129  1.6502  0.4664  3.4095
16020TIP3    H269552   3.163   1.125  16.138 -0.5946  2.0320  2.4118
16021TIP3   OH269553   6.211   3.189   2.378 -0.5629  0.1634  0.8804
16021TIP3    H169554   6.244   3.198   2.468 -1.3412  0.5464  1.1364
16021TIP3    H269555   6.287   3.210   2.323  0.0967 -0.6741  1.4311
16022TIP3   OH269556   0.682   4.347   2.571 -0.6681  0.0596 -0.7926
16022TIP3    H169557   0.601   4.397   2.569 -0.4819  0.3859 -0.3798
16022TIP3    H269558   0.695   4.317   2.481 -0.3933  1.3693 -1.2019
16023TIP3   OH269559   4.618   3.292  13.360 -0.2635 -0.9624 -0.2489
16023TIP3    H169560   4.572   3.304  13.444  2.2994  0.2766  1.0941
16023TIP3    H269561   4.561   3.335  13.296 -1.3966 -0.2096  1.1833
16024TIP3   OH269562   0.125   5.587   0.434 -0.4519 -0.3623  0.3702
16024TIP3    H169563   0.042   5.570   0.480 -1.3401 -0.1935 -1.1045
16024TIP3    H269564   0.126   5.682   0.423 -0.4702 -0.4445 -0.3513
16025TIP3   OH269565   2.641   2.314  10.401 -0.0564 -0.6526 -0.4071
16025TIP3    H169566   2.611   2.261  10.475  0.3587 -1.8071 -1.0263
16025TIP3    H269567   2.644   2.403  10.435 -1.9889 -0.8093  0.3205
16026TIP3   OH269568   5.940   1.040   4.409  0.2936  0.1199 -0.3049
16026TIP3    H169569   5.877   1.083   4.351  0.6916 -0.0471 -0.8689
16026TIP3    H269570   5.898   0.957   4.432 -0.0030  0.3261 -0.0928
16027TIP3   OH269571   4.443   2.574   0.008 -0.2605 -0.2147  0.0429
16027TIP3    H169572   4.488   2.537  -0.069  0.3218  1.4633 -0.4535
16027TIP3    H269573   4.506   2.565   0.079  1.2790  2.7532 -0.7927
16028TIP3   OH269574   2.961   0.432   1.121 -0.2007 -0.0596 -0.4600
16028TIP3    H169575   3.024   0.372   1.081 -2.0575 -0.9322 -2.2649
16028TIP3    H269576   2.898   0.374   1.165 -0.2923  0.7351  0.4940
16029TIP3   OH269577   6.187   2.231   1.669 -0.5271  0.0828 -0.2082
16029TIP3    H169578   6.134   2.173   1.614 -2.2901  1.1271  0.3085
16029TIP3    H269579   6.129   2.305   1.689  1.1208  1.2497  0.4648
16030TIP3   OH269580   5.766   4.558  17.200  0.0823 -0.4445 -0.0700
16030TIP3    H169581   5.763   4.481  17.256  0.8340 -0.1676  0.3750
16030TIP3    H269582   5.685   4.555  17.149  0.4428 -1.9279 -0.6089
16031TIP3   OH269583   6.671   0.992  12.411  0.0294 -0.5415 -0.1271
16031TIP3    H169584   6.748   0.969  12.359 -0.4128  0.7592 -1.4122
16031TIP3    H269585   6.706   1.044  12.484  0.3623  0.1593 -0.7786
16032TIP3   OH269586   2.319   3.842   2.566 -0.3622  0.4112  0.0198
16032TIP3    H169587   2.277   3.909   2.620  0.0241  0.7199 -0.0614
16032TIP3    H269588   2.401   3.882   2.536  0.4956 -0.5372  1.0014
16033TIP3   OH269589   1.823   1.266   5.212 -0.1902 -0.0695 -0.0583
16033TIP3    H169590   1.784   1.283   5.297  1.1487  1.4607  0.3031
16033TIP3    H269591   1.916   1.253   5.231  0.3083  1.3049 -1.3477
16034TIP3   OH269592   4.893   2.098   2.538 -0.5131 -0.3973 -0.7412
16034TIP3    H169593   4.857   2.020   2.580 -0.5615  0.6262  1.2607
16034TIP3    H269594   4.987   2.094   2.556 -0.4301 -0.2535 -1.1196
16035TIP3   OH269595   6.545   2.136  14.664 -0.4963 -0.1473  0.3240
16035TIP3    H169596   6.627   2.088  14.654 -0.4884  0.0453 -0.5444
16035TIP3    H269597   6.477   2.068  14.657 -0.5109  0.0210 -1.4862
16036TIP3   OH269598   4.441   0.169   6.292 -0.0464 -0.1932  0.3531
16036TIP3    H169599   4.435   0.138   6.382  0.0604 -0.1936  0.3595
16036TIP3    H269600   4.514   0.231   6.292 -2.5227  2.9766  1.1766
16037TIP3   OH269601   4.481   5.523  14.849 -0.0513  0.0569 -0.6075
16037TIP3    H169602   4.488   5.437  14.890  0.8633  0.1077 -0.6270
16037TIP3    H269603   4.430   5.576  14.910 -0.3840 -0.4199 -0.4695
16038TIP3   OH269604   6.762   4.885  12.990 -0.5887 -0.0693 -0.0411
16038TIP3    H169605   6.697   4.868  12.922 -0.3976 -1.4510  0.0862
16038TIP3    H269606   6.711   4.912  13.066 -0.7923  1.6773 -0.7544
16039TIP3   OH269607   2.766   5.327  13.765  0.2720 -0.5160  0.3193
16039TIP3    H169608   2.673   5.324  13.743  0.2929 -0.5623  0.2414
16039TIP3    H269609   2.769   5.385  13.842  0.4469  1.3635 -1.0511
16040TIP3   OH269610   3.062   1.426   3.803 -0.2226  0.4803 -0.0253
16040TIP3    H169611   3.156   1.440   3.813 -0.0525 -1.9230  3.6736
16040TIP3    H269612   3.054   1.371   3.725  1.4159  0.7087 -0.3905
16041TIP3   OH269613   0.420   5.258   2.315 -0.2349 -0.2068 -0.6299
16041TIP3    H169614   0.331   5.248   2.279 -1.2441  2.1812  0.9301
16041TIP3    H269615   0.443   5.170   2.346 -1.7978 -1.0107 -1.5929
16042TIP3   OH269616   3.338   1.500   3.568 -0.6098  0.0497  0.1755
16042TIP3    H169617   3.393   1.556   3.622 -1.9246  1.6132 -0.0262
16042TIP3    H269618   3.328   1.420   3.619  1.7154 -0.2722  0.2487
16043TIP3   OH269619   0.638   5.289  13.171  0.4345 -0.1022 -0.0484
16043TIP3    H169620   0.573   5.254  13.232 -1.0961 -0.8566 -1.9894
16043TIP3    H269621   0.715   5.234  13.185 -1.1152 -2.8046 -1.3128
16044TIP3   OH269622   6.812   0.389  13.676  0.5799  0.2687  0.2674
16044TIP3    H169623   6.768   0.306  13.694 -0.4101  0.9311  0.9945
16044TIP3    H269624   6.807   0.438  13.758 -1.8062  2.3550 -0.9859
16045TIP3   OH269625   2.606   2.008  14.283  0.3438  0.1058 -0.1753
16045TIP3    H169626   2.655   1.944  14.232 -0.7483  0.0915 -1.2413
16045TIP3    H269627   2.605   2.087  14.229 -0.0535  0.3860  0.2303
16046TIP3   OH269628   4.285   2.053   2.656  0.4391 -0.8030  0.2563
16046TIP3    H169629   4.348   2.124   2.659 -0.4944  0.0778 -0.5210
16046TIP3    H269630   4.279   2.023   2.747  0.0089  0.8736  0.8181
16047TIP3   OH269631   0.020   1.354  14.405 -0.7810  0.1724  0.3417
16047TIP3    H169632  -0.007   1.262  14.415  0.7604 -0.5100 -1.1702
16047TIP3    H269633   0.077   1.370  14.480 -1.8713  0.2521  1.1787
16048TIP3   OH269634   6.715   6.052  13.885 -0.3677 -0.4310 -0.0394
16048TIP3    H169635   6.672   6.023  13.965 -1.8585 -1.8160 -1.2885
16048TIP3    H269636   6.789   6.105  13.916  0.7549 -3.1237  2.3303
16049TIP3   OH269637   3.279   1.859  15.307 -0.0107 -0.3068  0.1443
16049TIP3    H169638   3.295   1.796  15.377  1.0163 -1.6039 -1.1935
16049TIP3    H269639   3.213   1.817  15.252  1.6323 -0.8934 -1.4817
16050TIP3   OH269640   2.635   0.654  13.689  0.2019  0.3599  0.2599
16050TIP3    H169641   2.725   0.625  13.701 -0.5089 -1.2754  2.2060
16050TIP3    H269642   2.598   0.593  13.625 -0.0354 -0.2263  0.9397
16051TIP3   OH269643   6.343   6.022   2.169  0.5339  0.1320  1.0777
16051TIP3    H169644   6.427   5.999   2.129  0.8289  1.5995  0.7780
16051TIP3    H269645   6.351   6.116   2.188 -1.6466  0.7261 -0.5602
16052TIP3   OH269646   0.265   6.544   4.459  0.1338 -0.2019 -0.1469
16052TIP3    H169647   0.213   6.617   4.426  0.7060  1.0462  1.5574
16052TIP3    H269648   0.217   6.466   4.433 -2.3728  0.8833  0.9628
16053TIP3   OH269649   2.827   4.501  11.850 -0.4754 -0.1749  0.7830
16053TIP3    H169650   2.759   4.475  11.788  0.5725 -3.1742  0.7003
16053TIP3    H269651   2.883   4.560  11.801 -1.1391 -0.3932 -0.2716
16054TIP3   OH269652   1.934   3.371   5.832  0.5189  0.2515 -0.0907
16054TIP3    H169653   1.995   3.372   5.758  1.1711 -2.0681  0.3528
16054TIP3    H269654   1.973   3.431   5.896  1.0956  0.5807 -0.7353
16055TIP3   OH269655   0.954   0.488   1.269  0.3521  0.1088 -0.0661
16055TIP3    H169656   1.009   0.504   1.193 -0.1964 -0.0978 -0.5165
16055TIP3    H269657   0.937   0.576   1.304  1.5858  0.1255  0.5443
16056TIP3   OH269658   2.547   5.604  17.182  0.0167 -0.1487  0.7071
16056TIP3    H169659   2.513   5.652  17.258  0.3470  0.7457  0.2905
16056TIP3    H269660   2.474   5.548  17.155  0.4952 -2.0475  2.9123
16057TIP3   OH269661   3.048   2.218   1.718 -0.8360  0.0208 -0.2734
16057TIP3    H169662   3.122   2.157   1.727 -0.9069 -0.1539 -0.8320
16057TIP3    H269663   3.079   2.298   1.759 -0.5466 -0.2287  0.0070
16058TIP3   OH269664   1.974   1.655  14.868 -0.1817  0.1198  0.2683
16058TIP3    H169665   1.898   1.642  14.925 -1.4209  0.9688 -1.0979
16058TIP3    H269666   2.040   1.594  14.901 -1.2826 -0.3209  1.7873
16059TIP3   OH269667   2.299   4.361   5.790  0.0169 -0.1079  0.4082
16059TIP3    H169668   2.272   4.446   5.755 -1.4197 -0.4683  0.5833
16059TIP3    H269669   2.390   4.351   5.761 -0.2671  0.8103 -0.9111
16060TIP3   OH269670   3.576   6.573  10.792  0.6776  0.1730  0.5168
16060TIP3    H169671   3.642   6.547  10.728  0.4612 -0.9282  0.7189
16060TIP3    H269672   3.531   6.492  10.814 -0.9493  0.9453  0.1691
16061TIP3   OH269673   4.629   0.999   3.492 -0.1475 -0.1089 -0.2140
16061TIP3    H169674   4.602   1.008   3.401 -0.2461 -0.1321 -0.1873
16061TIP3    H269675   4.587   1.073   3.537 -2.7239 -1.8084  0.4181
16062TIP3   OH269676   5.805   5.296  11.935  0.2506  0.3031  0.2173
16062TIP3    H169677   5.751   5.347  11.995 -0.6327 -0.4828  0.1067
16062TIP3    H269678   5.788   5.335  11.849 -0.1962  0.0144  0.1737
16063TIP3   OH269679   2.095   1.221  16.909 -0.2114 -0.1840 -0.2298
16063TIP3    H169680   2.108   1.165  16.985 -0.0076  0.8446  0.5140
16063TIP3    H269681   2.170   1.281  16.910 -2.5870  3.0820  1.6401
16064TIP3   OH269682   6.363   5.088   5.763  0.1757  0.4701  0.4589
16064TIP3    H169683   6.273   5.082   5.793 -0.2629  2.1265 -0.4274
16064TIP3    H269684   6.394   4.997   5.761 -2.2980 -0.4510 -1.7564
16065TIP3   OH269685   3.841   5.164  15.802  0.0628  0.1690 -0.2655
16065TIP3    H169686   3.894   5.162  15.882  0.3873 -1.0892 -0.4884
16065TIP3    H269687   3.754   5.191  15.832 -0.2977 -1.9872  0.8500
16066TIP3   OH269688   5.091   4.231  11.269  0.1049 -0.1518  0.3728
16066TIP3    H169689   5.171   4.239  11.218  0.8158 -0.1323  1.4598
16066TIP3    H269690   5.068   4.138  11.264  1.5959 -0.6659  2.0672
16067TIP3   OH269691   0.152   5.342  16.141 -0.2882 -0.3375  0.0743
16067TIP3    H169692   0.072   5.391  16.160  0.6167  1.0853  0.3324
16067TIP3    H269693   0.204   5.400  16.087 -0.3052 -2.0865 -1.9524
16068TIP3   OH269694   4.325   3.600  11.216 -0.0696  0.3663 -0.0859
16068TIP3    H169695   4.395   3.535  11.209  0.4443  0.8281  0.6807
16068TIP3    H269696   4.250   3.559  11.173  0.7419 -0.0267 -1.1631
16069TIP3   OH269697   3.868   1.732  11.781 -0.0560  0.7834 -0.2909
16069TIP3    H169698   3.864   1.746  11.686  0.2912  0.0129 -0.4250
16069TIP3    H269699   3.777   1.729  11.809 -0.1615  0.8813 -0.6195
16070TIP3   OH269700   6.046   3.437   2.281  0.1289  0.4372 -0.2119
16070TIP3    H169701   6.005   3.469   2.361 -0.9644  0.2241 -0.6648
16070TIP3    H269702   6.073   3.347   2.302  1.4243  0.9649  0.4450
16071TIP3   OH269703   0.983   6.343  11.371 -0.2079  0.3231 -0.4873
16071TIP3    H169704   1.005   6.310  11.284 -2.0027 -0.9295 -0.5299
16071TIP3    H269705   0.918   6.412  11.355 -1.7645 -1.0121 -0.1137
16072TIP3   OH269706   1.491   2.069  12.919  0.4498  0.3721  1.0227
16072TIP3    H169707   1.546   1.997  12.887 -0.7696  0.2264 -0.8834
16072TIP3    H269708   1.443   2.098  12.842 -0.7236  1.7802  2.2361
16073TIP3   OH269709   0.160   3.449   2.777  0.2160  0.3049  0.3095
16073TIP3    H169710   0.196   3.462   2.864 -0.8657 -1.6601  1.1070
16073TIP3    H269711   0.227   3.398   2.730 -0.3149 -0.9731  0.8997
16074TIP3   OH269712   1.302   5.109   3.889  0.1715  0.0876 -0.2837
16074TIP3    H169713   1.318   5.072   3.976 -1.1185 -0.4784 -0.2642
16074TIP3    H269714   1.354   5.055   3.830 -1.9775 -2.1609 -0.3084
16075TIP3   OH269715   2.778   5.635   5.636  0.3384 -0.0948 -0.7056
16075TIP3    H169716   2.694   5.677   5.655  0.2368 -0.4808 -0.2945
16075TIP3    H269717   2.772   5.612   5.543  0.1728  0.2824 -0.7931
16076TIP3   OH269718   1.940   4.293   0.755 -0.0293 -0.2246  0.2705
16076TIP3    H169719   1.989   4.287   0.837  1.4875  0.0407 -0.5791
16076TIP3    H269720   2.006   4.316   0.689 -1.2818 -0.0098 -0.9542
16077TIP3   OH269721   2.509   0.144  14.935 -0.3442  0.2463 -0.1354
16077TIP3    H169722   2.454   0.073  14.904 -1.3092  0.9549 -0.0753
16077TIP3    H269723   2.597   0.106  14.942 -0.8867 -0.9815  0.0928
16078TIP3   OH269724   2.711   2.800  12.782 -0.4995  0.1053 -0.2360
16078TIP3    H169725   2.750   2.783  12.868 -1.2372 -1.3536 -0.1708
16078TIP3    H269726   2.628   2.843  12.802  0.0348  1.2019 -0.2977
16079TIP3   OH269727   6.403   1.638   0.932 -0.3716 -0.0676  0.1375
16079TIP3    H169728   6.331   1.609   0.989  0.5781 -2.1520  0.3455
16079TIP3    H269729   6.474   1.577   0.950  0.8700  0.8695 -1.3689
16080TIP3   OH269730   3.460   0.792   4.398 -0.1843 -0.0548  0.4485
16080TIP3    H169731   3.507   0.710   4.380 -0.1885 -0.1040  0.6549
16080TIP3    H269732   3.429   0.821   4.313 -0.1411 -0.2448  0.3671
16081TIP3   OH269733   0.110   5.968   4.601 -0.2240 -0.0763  0.4624
16081TIP3    H169734   0.104   6.059   4.630 -2.7712  0.1633 -0.5734
16081TIP3    H269735   0.198   5.961   4.562  0.3798  1.6375  1.4162
16082TIP3   OH269736   5.681   3.041   5.592  0.2746 -0.6032  0.9310
16082TIP3    H169737   5.660   3.096   5.516 -2.3453 -0.0335  1.9544
16082TIP3    H269738   5.765   3.002   5.571  0.5360  1.0296 -1.4173
16083TIP3   OH269739   4.081   3.632   3.589 -0.0565 -0.3343  0.3242
16083TIP3    H169740   4.048   3.626   3.499 -0.9715  0.5166  0.5844
16083TIP3    H269741   4.169   3.593   3.585 -0.2479 -0.6917 -0.8436
16084TIP3   OH269742   2.760   5.454  12.767 -0.1104  0.3601  0.1513
16084TIP3    H169743   2.666   5.469  12.766 -0.2011 -0.0315 -1.9686
16084TIP3    H269744   2.793   5.507  12.840 -2.0001  0.1427  1.2096
16085TIP3   OH269745   5.072   6.431   5.634  0.6971  0.1779  0.2135
16085TIP3    H169746   5.049   6.340   5.617  1.6737 -0.7033  3.0076
16085TIP3    H269747   5.166   6.429   5.652  0.6397  1.6322  0.8067
16086TIP3   OH269748   2.845   3.205  15.349 -0.8107 -0.2307 -0.6777
16086TIP3    H169749   2.849   3.138  15.416 -2.2690  0.0950 -0.2117
16086TIP3    H269750   2.898   3.277  15.383  1.6765 -1.4846 -1.6755
16087TIP3   OH269751   5.333   2.809  12.653 -0.1842 -0.2616  0.2543
16087TIP3    H169752   5.261   2.746  12.660 -0.6800  0.4095  1.6799
16087TIP3    H269753   5.412   2.757  12.671 -0.1332 -1.2024 -2.2518
16088TIP3   OH269754   2.513   4.859   2.465 -0.3699 -0.8838 -0.2714
16088TIP3    H169755   2.599   4.853   2.423  0.1401 -0.1446  0.6173
16088TIP3    H269756   2.464   4.919   2.409  0.6496  0.9297  0.6886
16089TIP3   OH269757   3.926   2.834  12.621 -0.4659 -0.4718  0.2091
16089TIP3    H169758   3.873   2.823  12.543 -3.0451  2.4834  1.3114
16089TIP3    H269759   3.913   2.753  12.671 -0.4177 -1.5520 -1.4645
16090TIP3   OH269760   0.949   0.061   1.807 -0.1357  0.4294 -0.1333
16090TIP3    H169761   1.044   0.066   1.822 -0.0947 -3.9499  2.8975
16090TIP3    H269762   0.913   0.132   1.860  1.3723  0.1458  1.3659
16091TIP3   OH269763   4.532   3.248  14.614  0.0994  0.6105 -0.1568
16091TIP3    H169764   4.466   3.264  14.682 -1.4673 -1.0142 -1.1821
16091TIP3    H269765   4.567   3.334  14.593 -1.3818  1.4789  0.7789
16092TIP3   OH269766   2.168   5.070   0.957  0.3253 -0.2968 -0.0826
16092TIP3    H169767   2.095   5.119   0.994  0.5775 -0.4618  0.6565
16092TIP3    H269768   2.194   5.011   1.027  0.2290 -1.2682 -0.8535
16093TIP3   OH269769   5.311   3.346   3.513 -0.4347 -0.0919  0.4006
16093TIP3    H169770   5.335   3.402   3.587  0.0590  0.5851 -0.2506
16093TIP3    H269771   5.353   3.387   3.438 -1.8800 -0.1012 -0.4496
16094TIP3   OH269772   2.581   2.657  14.396 -0.7889 -0.4943  0.4596
16094TIP3    H169773   2.644   2.648  14.467  1.4655  2.9454 -0.8392
16094TIP3    H269774   2.590   2.577  14.344  0.6640 -1.1538  1.6668
16095TIP3   OH269775   1.945   0.849   4.058  0.0589  0.2715  0.4743
16095TIP3    H169776   1.910   0.811   3.978 -1.3730 -0.4254  1.3982
16095TIP3    H269777   1.881   0.827   4.125  1.3199  0.6723  1.8566
16096TIP3   OH269778   2.737   1.845   0.760 -0.6972 -1.1022  0.3701
16096TIP3    H169779   2.770   1.760   0.791  1.8756  0.2225  1.6412
16096TIP3    H269780   2.657   1.859   0.810 -2.4724 -3.6893 -1.4932
16097TIP3   OH269781   6.264   0.744   0.700  0.2782  0.2665 -0.3240
16097TIP3    H169782   6.258   0.777   0.610 -0.3128 -1.2851 -0.8977
16097TIP3    H269783   6.221   0.659   0.696  0.2753  0.1630  1.4419
16098TIP3   OH269784   3.278   0.420   2.892 -0.1619  0.2153 -0.3923
16098TIP3    H169785   3.371   0.421   2.914  0.4762  1.9184 -2.7210
16098TIP3    H269786   3.273   0.368   2.812 -0.7003  2.4506 -1.8974
16099TIP3   OH269787   6.696   1.179   3.691  0.0527 -0.7767 -0.4038
16099TIP3    H169788   6.716   1.089   3.663  1.6011 -0.0607 -1.8087
16099TIP3    H269789   6.775   1.228   3.669 -0.8107  0.9546  0.2332
16100TIP3   OH269790   5.637   0.660  12.966 -0.3519 -0.7463 -0.3324
16100TIP3    H169791   5.692   0.667  12.888  0.0792 -2.0177 -0.1696
16100TIP3    H269792   5.640   0.747  13.006  1.1212 -0.6574 -0.5951
16101TIP3   OH269793   3.135   2.748  16.156 -0.5593 -0.5300 -0.2822
16101TIP3    H169794   3.149   2.656  16.134  0.4192 -0.7249  0.9846
16101TIP3    H269795   3.208   2.795  16.115  0.2369 -0.6533  0.9343
16102TIP3   OH269796   6.545   0.757   4.755  0.7024 -0.3850  0.1912
16102TIP3    H169797   6.571   0.771   4.846  1.0421  0.0470  0.0354
16102TIP3    H269798   6.498   0.674   4.755  1.2216 -0.6847  0.6629
16103TIP3   OH269799   0.458   6.044   3.939 -0.4271  0.0489 -0.5247
16103TIP3    H169800   0.369   6.079   3.937 -0.8870 -1.0572  0.3015
16103TIP3    H269801   0.490   6.062   4.027  0.0622  0.1550 -0.7172
16104TIP3   OH269802   6.350   0.366   1.386 -0.0886 -0.2207 -0.4841
16104TIP3    H169803   6.315   0.385   1.473  0.0652  0.6246 -0.6074
16104TIP3    H269804   6.306   0.284   1.361 -1.0090  0.1367 -0.0938
16105TIP3   OH269805   4.406   0.094   4.564  0.7413  0.7759 -0.4505
16105TIP3    H169806   4.319   0.060   4.585  1.2407 -0.2548  0.0693
16105TIP3    H269807   4.458   0.077   4.643  2.0593 -1.0234 -1.6112
16106TIP3   OH269808   2.404   2.241   1.886  0.2123  0.2780 -0.0578
16106TIP3    H169809   2.471   2.284   1.939 -0.3981 -0.0104  0.9623
16106TIP3    H269810   2.345   2.312   1.859  0.1939  0.3354  0.1372
16107TIP3   OH269811   3.021   5.221  15.508  0.0320  0.3406 -0.5626
16107TIP3    H169812   2.942   5.259  15.545 -0.3402 -1.3396  0.5044
16107TIP3    H269813   3.083   5.217  15.581  0.3364 -0.3001 -0.8416
16108TIP3   OH269814   1.591   1.829   0.941 -0.1350  1.5080 -0.8083
16108TIP3    H169815   1.653   1.776   0.890 -0.6618  1.1566 -1.0841
16108TIP3    H269816   1.537   1.765   0.987 -1.2269  1.7716 -1.6684
16109TIP3   OH269817   0.908   0.153   2.224 -0.4231 -1.0518 -0.1612
16109TIP3    H169818   0.995   0.153   2.265  1.2107 -1.9246 -3.3237
16109TIP3    H269819   0.870   0.069   2.250 -0.7008 -0.3736  1.8134
16110TIP3   OH269820   0.559   3.590   4.271 -0.5737  0.8711 -0.8614
16110TIP3    H169821   0.622   3.523   4.245 -1.4544 -0.8078  1.1014
16110TIP3    H269822   0.564   3.591   4.367 -2.3510  1.8680 -0.7448
16111TIP3   OH269823   1.786   1.487   6.656 -0.3300 -0.7480 -0.1703
16111TIP3    H169824   1.716   1.524   6.601 -1.5175  1.1682  2.3910
16111TIP3    H269825   1.867   1.519   6.616 -1.1415  0.5961 -0.8196
16112TIP3   OH269826   0.926   0.495  13.594 -0.0621  0.3944 -0.3168
16112TIP3    H169827   0.880   0.579  13.591  0.3010  0.6316  0.3965
16112TIP3    H269828   0.858   0.429  13.586 -0.4086  0.7582 -0.3517
16113TIP3   OH269829   1.587   2.560   1.136 -0.2745  0.5006 -0.1997
16113TIP3    H169830   1.508   2.531   1.182  0.0529 -0.4599 -0.2076
16113TIP3    H269831   1.605   2.647   1.171 -2.0845  1.3194 -1.1682
16114TIP3   OH269832   3.358   6.173   2.716  0.0604  0.4104  0.4156
16114TIP3    H169833   3.274   6.145   2.682  0.7524 -0.4479 -0.6592
16114TIP3    H269834   3.381   6.250   2.664  1.1737 -0.9715 -1.2544
16115TIP3   OH269835   4.672   6.280   3.253 -0.0224  0.4241 -0.5188
16115TIP3    H169836   4.734   6.254   3.185 -0.2155  0.9233 -0.8928
16115TIP3    H269837   4.621   6.201   3.271  0.6101  0.0560 -0.3222
16116TIP3   OH269838   1.339   5.087  13.352 -0.1187  0.6904  0.1106
16116TIP3    H169839   1.427   5.081  13.316 -0.0249 -2.0556  0.5834
16116TIP3    H269840   1.294   5.150  13.296  1.2225 -0.2321 -2.1089
16117TIP3   OH269841   3.470   0.155   6.078  0.1196 -0.4992 -0.0298
16117TIP3    H169842   3.466   0.245   6.047  0.4683 -0.4102  0.1797
16117TIP3    H269843   3.451   0.102   6.000  1.0673 -0.2765 -0.4342
16118TIP3   OH269844   1.108   4.811   2.846 -0.1936 -0.2174 -0.3374
16118TIP3    H169845   1.028   4.818   2.793  0.4858  0.6591 -1.2935
16118TIP3    H269846   1.165   4.880   2.811  1.1984 -1.2018 -0.0498
16119TIP3   OH269847   2.573   4.030   5.185 -0.6711 -0.0865  0.1818
16119TIP3    H169848   2.604   4.030   5.095  0.9089 -2.8465  0.5901
16119TIP3    H269849   2.478   4.021   5.179 -0.7896  1.6112 -1.1392
16120TIP3   OH269850   6.370   6.786  12.627  0.2366  0.5884  0.1370
16120TIP3    H169851   6.344   6.703  12.667  0.3180  0.9423  0.9681
16120TIP3    H269852   6.442   6.763  12.568  0.7841  0.1572  0.9458
16121TIP3   OH269853   5.901   6.287   0.604  0.3341  0.1900  0.4126
16121TIP3    H169854   5.965   6.252   0.666 -0.1180  1.7654  1.8432
16121TIP3    H269855   5.858   6.359   0.651  0.4795  1.9750 -1.9858
16122TIP3   OH269856   0.244   4.115  16.001 -0.3734 -0.1075  1.0693
16122TIP3    H169857   0.229   4.191  15.945 -0.2556  0.1342  1.3626
16122TIP3    H269858   0.286   4.051  15.944 -0.5520  0.0144  0.7981
16123TIP3   OH269859   1.601   3.917  16.789  0.2397  0.5885  0.5056
16123TIP3    H169860   1.553   3.952  16.865 -1.0162 -0.0611  0.0475
16123TIP3    H269861   1.547   3.942  16.714  0.8862  0.2474 -0.0825
16124TIP3   OH269862   3.906   4.889   0.612  0.3536  0.4479  0.5603
16124TIP3    H169863   3.920   4.978   0.579 -0.6224  0.9222  1.3680
16124TIP3    H269864   3.865   4.843   0.539  2.7230  0.0157 -0.6099
16125TIP3   OH269865   1.435   1.133  16.496 -0.1508  0.3461 -0.7237
16125TIP3    H169866   1.514   1.080  16.487  0.3051  1.1659 -1.8265
16125TIP3    H269867   1.363   1.072  16.475  0.3035 -0.0294 -1.2381
16126TIP3   OH269868   2.626   1.943   0.092 -0.4818  0.1730 -0.3202
16126TIP3    H169869   2.681   1.970   0.165 -0.9829 -0.4135  0.2875
16126TIP3    H269870   2.608   2.024   0.044  0.7801  0.3917 -0.4534
16127TIP3   OH269871   6.102   0.061   3.596  0.0767 -0.4499 -0.0820
16127TIP3    H169872   6.057   0.100   3.521 -0.3494 -0.6026  0.0936
16127TIP3    H269873   6.033   0.042   3.659  0.3260 -1.1113  0.0039
16128TIP3   OH269874   2.103   6.281   2.467  0.3493  0.0833 -0.3572
16128TIP3    H169875   2.040   6.235   2.523 -1.7824  1.1936 -1.7262
16128TIP3    H269876   2.112   6.225   2.391  0.5137  0.2349 -0.4490
16129TIP3   OH269877   0.327   0.722  11.316 -0.0472 -0.0860  0.2239
16129TIP3    H169878   0.334   0.633  11.282 -0.1629 -0.0695  0.1596
16129TIP3    H269879   0.355   0.778  11.244 -0.1832 -0.0575  0.1948
16130TIP3   OH269880   0.830   6.259  16.194  0.4555 -0.3181  0.0934
16130TIP3    H169881   0.837   6.274  16.099 -1.0203  0.8269  0.1295
16130TIP3    H269882   0.877   6.332  16.234 -0.5426  0.2806  0.2243
16131TIP3   OH269883   2.869   5.921   2.393  0.1407  0.3910 -0.4932
16131TIP3    H169884   2.845   5.829   2.399  1.2335 -0.0246 -2.0111
16131TIP3    H269885   2.828   5.961   2.470 -0.7749 -1.2485 -0.0734
16132TIP3   OH269886   0.919   0.160   4.997  0.3716  0.5429  0.1465
16132TIP3    H169887   0.948   0.227   5.059 -0.0990  0.5514  0.3659
16132TIP3    H269888   0.837   0.127   5.034  0.9101 -0.5927  0.3550
16133TIP3   OH269889   3.781   0.236   3.495  0.1969 -0.3021 -0.3861
16133TIP3    H169890   3.837   0.163   3.470 -1.4634 -1.5588 -0.6272
16133TIP3    H269891   3.827   0.313   3.462  1.2719 -1.3598 -1.5010
16134TIP3   OH269892   0.985   3.772   5.034 -0.2806 -0.0516  0.4931
16134TIP3    H169893   0.975   3.833   4.961 -1.0427  0.6790  1.1876
16134TIP3    H269894   1.063   3.721   5.012  0.8258  1.6834  0.2611
16135TIP3   OH269895   1.520   3.898  11.022  0.0394 -0.2192  0.6543
16135TIP3    H169896   1.564   3.982  11.034 -1.7134  0.7127  0.8526
16135TIP3    H269897   1.428   3.916  11.040 -0.5623 -1.9285 -0.4663
16136TIP3   OH269898   2.689   4.739   1.165 -0.4341 -0.1341  0.4127
16136TIP3    H169899   2.640   4.799   1.108 -0.5003  0.4587  1.0831
16136TIP3    H269900   2.672   4.653   1.128 -1.8423  0.0726  0.5189
16137TIP3   OH269901   0.607   5.178   0.837 -0.0540 -0.3690  0.3741
16137TIP3    H169902   0.581   5.250   0.893 -0.1032 -1.0677  1.2772
16137TIP3    H269903   0.620   5.104   0.897 -1.4367 -1.5160 -0.6549
16138TIP3   OH269904   1.766   2.305  13.300  0.0727 -0.1732 -0.7056
16138TIP3    H169905   1.803   2.360  13.230  0.7736  1.4997  0.8900
16138TIP3    H269906   1.842   2.276  13.350 -0.5334  0.3719  0.5645
16139TIP3   OH269907   1.008   1.063   0.019 -0.4484 -0.4311 -0.7628
16139TIP3    H169908   1.086   1.022  -0.018  1.7849 -0.8559  3.6507
16139TIP3    H269909   0.995   1.018   0.102 -2.3211  2.9447  1.0111
16140TIP3   OH269910   4.727   5.160  15.439  0.6465 -0.3738 -0.1380
16140TIP3    H169911   4.649   5.170  15.384 -1.0223  2.3112  2.4255
16140TIP3    H269912   4.784   5.231  15.411  0.8199 -0.4460  0.0376
16141TIP3   OH269913   0.001   2.790  11.255 -0.0448 -0.8506  0.2881
16141TIP3    H169914   0.069   2.771  11.191  1.0775  2.3543  0.3595
16141TIP3    H269915  -0.078   2.803  11.203  0.5961  0.5570 -0.3646
16142TIP3   OH269916   1.820   2.642   2.415  0.0405 -0.3164  0.0102
16142TIP3    H169917   1.783   2.568   2.463 -3.2782  1.2100  0.0592
16142TIP3    H269918   1.866   2.602   2.341  0.3561 -2.4578  1.2836
16143TIP3   OH269919   5.385   1.035  13.517  0.3744 -0.0476 -0.2337
16143TIP3    H169920   5.453   0.976  13.549  0.6394  0.0666 -0.5827
16143TIP3    H269921   5.369   1.094  13.591  1.3423  0.5304 -0.4599
16144TIP3   OH269922   2.411   1.400  13.895  0.0575  0.1174  0.0965
16144TIP3    H169923   2.345   1.464  13.869 -1.9644 -1.2030  1.6263
16144TIP3    H269924   2.479   1.452  13.938 -1.7269  1.2730  1.7094
16145TIP3   OH269925   2.573   1.064  11.520  0.1678 -0.0002 -0.0483
16145TIP3    H169926   2.555   1.069  11.426 -1.4829 -0.5819  0.2062
16145TIP3    H269927   2.503   1.009  11.555  0.6354  0.3743  1.5569
16146TIP3   OH269928   5.604   1.615  13.739 -0.9719  0.5070  0.8568
16146TIP3    H169929   5.560   1.676  13.679 -0.0190  1.5621  1.1961
16146TIP3    H269930   5.697   1.622  13.715 -0.9856 -2.2084 -0.3400
16147TIP3   OH269931   4.878   2.164  17.078  0.2798  0.5476  0.2737
16147TIP3    H169932   4.882   2.221  17.002  0.0939 -0.6422 -0.6570
16147TIP3    H269933   4.795   2.186  17.120 -0.0531  0.5786 -0.3884
16148TIP3   OH269934   2.910   2.773   2.293  0.0682  0.1821  0.0948
16148TIP3    H169935   2.833   2.729   2.256 -0.5884  1.5160 -0.1753
16148TIP3    H269936   2.924   2.730   2.377  1.6214 -2.9705 -1.6121
16149TIP3   OH269937   2.243   2.675  12.810 -0.2914 -0.1247 -0.0760
16149TIP3    H169938   2.312   2.618  12.775 -1.2251 -1.6497  0.5116
16149TIP3    H269939   2.291   2.743  12.857  0.8437 -0.7032 -0.3568
16150TIP3   OH269940   2.563   1.386  14.161 -0.2295 -0.5353  0.5563
16150TIP3    H169941   2.482   1.339  14.184 -1.1396  0.3871 -0.6518
16150TIP3    H269942   2.609   1.326  14.103 -0.3268 -0.8232  0.7716
16151TIP3   OH269943   3.756   5.920  13.665  0.1506  0.1228 -0.0605
16151TIP3    H169944   3.756   5.830  13.697 -0.3159 -0.6672 -2.1499
16151TIP3    H269945   3.749   5.912  13.570 -2.1540  2.3833 -0.2095
16152TIP3   OH269946   4.045   2.503   0.351 -0.2554 -0.1296  0.2257
16152TIP3    H169947   3.998   2.419   0.355  1.9822 -1.4632  0.2051
16152TIP3    H269948   4.072   2.511   0.260 -2.9719  2.1985 -0.5259
16153TIP3   OH269949   0.051   0.461   0.617 -0.6447 -0.0830 -0.4970
16153TIP3    H169950  -0.033   0.418   0.601 -0.1911 -0.5081 -1.8427
16153TIP3    H269951   0.056   0.531   0.553  0.1380 -0.2257 -0.6074
16154TIP3   OH269952   5.591   4.763  13.141  0.1912 -0.8086  0.2741
16154TIP3    H169953   5.623   4.673  13.147  1.5919 -0.4638 -1.2190
16154TIP3    H269954   5.496   4.755  13.146  0.2869 -2.3862  0.0569
16155TIP3   OH269955   0.905   2.653  14.165 -0.2131 -0.0596  0.0281
16155TIP3    H169956   0.826   2.705  14.145  0.7285  0.7006 -1.8995
16155TIP3    H269957   0.887   2.567  14.128 -0.6145 -0.2774  0.6993
16156TIP3   OH269958   0.739   1.050   3.332 -0.5990 -0.2486 -0.0396
16156TIP3    H169959   0.778   1.132   3.303  1.4419 -0.9042  0.6231
16156TIP3    H269960   0.745   0.992   3.256 -1.2219 -0.0505 -0.2411
16157TIP3   OH269961   3.101   4.454   2.716 -0.4434  0.1304 -0.5398
16157TIP3    H169962   3.079   4.363   2.738 -1.4795  0.8098  1.4980
16157TIP3    H269963   3.140   4.449   2.628 -1.4981 -2.1371 -0.9535
16158TIP3   OH269964   0.310   3.644   0.495 -0.5983 -0.5948  0.3306
16158TIP3    H169965   0.363   3.723   0.485 -2.2015  0.4222 -0.4404
16158TIP3    H269966   0.365   3.574   0.459  0.9332  0.0981  1.2261
16159TIP3   OH269967   3.757   4.237   1.648 -0.4866 -0.2585 -0.1628
16159TIP3    H169968   3.817   4.289   1.701 -0.8921 -0.3859  0.4264
16159TIP3    H269969   3.766   4.148   1.681  0.0190 -0.5348 -1.0013
16160TIP3   OH269970   3.024   4.059   3.423  0.4948  0.0799  0.0072
16160TIP3    H169971   3.011   4.067   3.517 -0.8716  3.1588 -0.2993
16160TIP3    H269972   2.936   4.054   3.387  0.8861  1.2080 -1.1841
16161TIP3   OH269973   2.901   3.158   0.223  0.0139 -0.4223 -0.4332
16161TIP3    H169974   2.933   3.247   0.241  0.2815 -0.8205  1.2557
16161TIP3    H269975   2.807   3.168   0.213  0.2300  0.2925 -2.1127
16162TIP3   OH269976   3.834   0.464  14.697  0.0977 -0.5992 -0.1525
16162TIP3    H169977   3.863   0.526  14.630 -1.0384  0.1002 -0.0400
16162TIP3    H269978   3.845   0.512  14.780  0.1184 -0.9024  0.0193
16163TIP3   OH269979   2.439   2.515   5.677  0.1161  0.0837  0.6497
16163TIP3    H169980   2.366   2.521   5.738  0.1740  0.7685  0.6572
16163TIP3    H269981   2.399   2.509   5.591 -0.0347 -2.8981  0.8223
16164TIP3   OH269982   0.918   0.172  14.713  0.1302 -0.1099 -0.4224
16164TIP3    H169983   0.932   0.267  14.713  2.3003 -0.2356  2.7899
16164TIP3    H269984   0.861   0.157  14.788 -0.2384 -1.3546 -0.9384
16165TIP3   OH269985   1.985   3.427   1.966  0.0633 -0.8508  0.4301
16165TIP3    H169986   2.048   3.358   1.944  1.3297 -0.1351  1.6385
16165TIP3    H269987   1.941   3.446   1.883  1.1679 -1.6472 -0.3722
16166TIP3   OH269988   3.603   3.227  11.718  0.7144 -0.3853 -0.2151
16166TIP3    H169989   3.547   3.151  11.734  0.5592 -0.3138 -0.4139
16166TIP3    H269990   3.624   3.221  11.625  2.7499 -1.5847  0.2696
16167TIP3   OH269991   6.023   2.296   3.190  0.4308  0.2406 -0.5365
16167TIP3    H169992   5.984   2.293   3.103  1.3946 -1.0207 -0.9403
16167TIP3    H269993   6.042   2.205   3.212 -0.1378  0.4819  1.1643
16168TIP3   OH269994   5.588   6.679   1.678 -0.2690  0.0554 -0.7498
16168TIP3    H169995   5.614   6.614   1.743  1.4564 -0.3420 -1.7679
16168TIP3    H269996   5.586   6.631   1.595  1.3812  1.3056 -1.5756
16169TIP3   OH269997   2.430   0.123  15.665 -0.2861 -0.8632 -0.3228
16169TIP3    H169998   2.481   0.203  15.661  1.0835 -1.7106 -0.4445
16169TIP3    H269999   2.345   0.146  15.626 -0.2747  0.7508  0.5384
16170TIP3   OH270000   3.432   5.524  12.516 -0.0914  0.5851 -0.4796
16170TIP3    H170001   3.350   5.502  12.471 -0.7380  2.3539 -0.2264
16170TIP3    H270002   3.405   5.546  12.606  0.5786  1.6778 -0.5305
16171TIP3   OH270003   3.245   6.165  16.853 -0.0684 -0.3993 -0.0712
16171TIP3    H170004   3.269   6.145  16.944  0.9424 -1.4020 -0.5356
16171TIP3    H270005   3.329   6.168  16.807 -0.6651 -1.7192 -1.3179
16172TIP3   OH270006   6.351   2.562   3.243  0.7801 -0.0431  0.0611
16172TIP3    H170007   6.327   2.646   3.282  0.7321  0.9556 -1.9790
16172TIP3    H270008   6.326   2.497   3.308 -0.5190  1.4261  1.1056
16173TIP3   OH270009   6.160   6.500   4.845  0.2681 -0.5977 -0.3122
16173TIP3    H170010   6.082   6.452   4.818  0.1027 -1.3648  1.4243
16173TIP3    H270011   6.171   6.479   4.937  0.9294  1.7246  0.2020
16174TIP3   OH270012   6.269   5.297  13.012  0.2239  0.4370  0.3548
16174TIP3    H170013   6.242   5.332  12.927  1.7970 -0.7497 -0.6803
16174TIP3    H270014   6.362   5.318  13.018  0.5515 -1.0669  0.9601
16175TIP3   OH270015   1.634   4.696  13.773  0.5962 -0.4451  0.0460
16175TIP3    H170016   1.662   4.611  13.740  0.7330 -0.4833  0.2536
16175TIP3    H270017   1.659   4.694  13.866  1.5896  0.2360 -0.1868
16176TIP3   OH270018   6.231   5.900   1.325  0.1633 -0.1173  0.3580
16176TIP3    H170019   6.248   5.983   1.370  0.1990  0.1506 -0.1451
16176TIP3    H270020   6.139   5.881   1.343 -0.0405  0.4022 -0.1288
16177TIP3   OH270021   1.221   2.201  16.089 -0.0398 -0.6798 -0.2731
16177TIP3    H170022   1.169   2.129  16.052  1.7714 -2.7207  0.9317
16177TIP3    H270023   1.296   2.158  16.129  2.2306  2.0661 -1.2848
16178TIP3   OH270024   0.045   1.277   0.666  0.2933  0.2871  0.2537
16178TIP3    H170025  -0.038   1.294   0.710  0.2503  1.2861 -0.1749
16178TIP3    H270026   0.039   1.187   0.634 -1.5016  1.0193 -1.6470
16179TIP3   OH270027   0.540   4.260  16.187  0.3684 -0.4352  0.0000
16179TIP3    H170028   0.540   4.171  16.151  0.3305 -0.8371  0.9494
16179TIP3    H270029   0.490   4.311  16.124  2.3724 -0.5449 -1.7934
16180TIP3   OH270030   6.046   5.134   0.583 -0.7564 -0.1996 -0.2870
16180TIP3    H170031   6.048   5.186   0.663 -0.7913  1.0062 -1.0469
16180TIP3    H270032   6.125   5.160   0.535  0.0522 -1.9790 -0.0236
16181TIP3   OH270033   0.669   4.574   2.325  0.3964 -0.1342  0.4865
16181TIP3    H170034   0.640   4.483   2.330 -0.1452 -0.0892 -1.1780
16181TIP3    H270035   0.635   4.606   2.241  1.0242  1.4497  0.7865
16182TIP3   OH270036   1.603   4.269  14.900 -0.4621 -0.8123 -0.0001
16182TIP3    H170037   1.568   4.243  14.985 -0.7059 -0.5706 -0.0240
16182TIP3    H270038   1.593   4.191  14.845  0.0357 -1.0865  0.2912
16183TIP3   OH270039   4.016   6.597  13.130  0.1324 -0.3655  0.2242
16183TIP3    H170040   4.056   6.511  13.119 -0.5224 -0.6688  0.1684
16183TIP3    H270041   4.071   6.656  13.078 -0.9949 -1.2063 -2.0402
16184TIP3   OH270042   3.734   1.734   4.810  0.7123  0.3558 -0.1392
16184TIP3    H170043   3.758   1.778   4.728  0.5046 -0.9485 -0.9299
16184TIP3    H270044   3.656   1.683   4.788  1.8658 -1.7184  0.2604
16185TIP3   OH270045   2.946   6.734   5.434 -0.2521 -0.1097  0.3443
16185TIP3    H170046   2.879   6.696   5.377  0.2820  0.2604 -0.5502
16185TIP3    H270047   2.910   6.726   5.522 -1.2069 -0.4621 -0.0655
16186TIP3   OH270048   2.004   4.040  14.910 -0.5269 -0.3736 -0.3731
16186TIP3    H170049   2.087   3.997  14.930 -0.3302  0.0871 -0.2055
16186TIP3    H270050   2.012   4.065  14.818 -0.7647 -0.9651 -0.5628
16187TIP3   OH270051   6.479   3.330   5.117 -0.3557 -0.4624 -0.4296
16187TIP3    H170052   6.394   3.335   5.161  1.0055 -1.3899  2.5306
16187TIP3    H270053   6.506   3.239   5.128  0.7270 -0.3599 -1.9648
16188TIP3   OH270054   0.705   0.665   1.299  0.6273 -0.2566 -0.1923
16188TIP3    H170055   0.703   0.569   1.297 -1.7052 -0.2761  0.2724
16188TIP3    H270056   0.722   0.690   1.208  2.1060 -1.0789 -0.1758
16189TIP3   OH270057   2.840   0.122   0.657  0.0824 -0.5128 -0.1029
16189TIP3    H170058   2.920   0.131   0.604  1.0983 -0.9558  1.2975
16189TIP3    H270059   2.821   0.211   0.687  1.1453 -0.6494  1.0582
16190TIP3   OH270060   2.017   5.505  15.474  0.5714 -0.0901 -0.0455
16190TIP3    H170061   1.953   5.475  15.409 -1.1938  1.2805  0.9602
16190TIP3    H270062   1.984   5.471  15.557  1.7239 -0.1963  0.3817
16191TIP3   OH270063   5.468   0.011  13.488 -0.2171 -0.1099 -0.6478
16191TIP3    H170064   5.494   0.101  13.510  0.5504 -0.4883  0.0503
16191TIP3    H270065   5.477   0.006  13.393  1.5669  0.0091 -0.5235
16192TIP3   OH270066   1.173   1.055   4.587  0.1713 -0.2417  0.3052
16192TIP3    H170067   1.204   1.030   4.499 -1.9851 -1.5976 -0.1591
16192TIP3    H270068   1.112   0.985   4.611  0.7585  0.0602  2.9544
16193TIP3   OH270069   2.847   3.465   3.040  0.1144 -0.0334 -0.0735
16193TIP3    H170070   2.758   3.472   3.076  0.2990  1.3873  0.1404
16193TIP3    H270071   2.835   3.475   2.946 -0.0743 -1.1406 -0.1865
16194TIP3   OH270072   3.669   3.472   6.206 -0.0863  0.4316  0.2315
16194TIP3    H170073   3.764   3.482   6.205 -0.0476  0.1865  0.9620
16194TIP3    H270074   3.636   3.554   6.244 -0.1258  0.2658  0.5609
16195TIP3   OH270075   2.975   3.396   6.859  0.2740 -0.0968 -0.6868
16195TIP3    H170076   2.905   3.332   6.866 -0.0218  0.3423  0.6387
16195TIP3    H270077   2.931   3.479   6.845  0.4079  0.3681  1.3169
16196TIP3   OH270078   0.376   6.518   0.353 -0.0255  0.4474  0.4598
16196TIP3    H170079   0.322   6.595   0.334 -2.1754 -1.0562  0.0603
16196TIP3    H270080   0.466   6.547   0.340 -0.7030  3.0893  1.1168
16197TIP3   OH270081   2.817   3.784  16.382 -0.3667 -0.0484 -0.7546
16197TIP3    H170082   2.795   3.732  16.305 -3.9641  0.9104 -0.5417
16197TIP3    H270083   2.744   3.771  16.442  0.3607  2.3777  0.8198
16198TIP3   OH270084   1.905   1.728   0.485  0.0777 -0.0281 -0.2647
16198TIP3    H170085   1.936   1.639   0.504 -0.0396 -0.2046 -0.8591
16198TIP3    H270086   1.813   1.716   0.460 -0.4576  0.4653  1.3098
16199TIP3   OH270087   1.333   2.837  13.749  0.1085  0.0303 -0.6920
16199TIP3    H170088   1.375   2.901  13.805 -0.8086 -0.2608  0.3584
16199TIP3    H270089   1.295   2.772  13.809  0.1886 -0.9771 -1.6891
16200TIP3   OH270090   1.127   2.493  16.467 -0.5825  0.4718 -0.4057
16200TIP3    H170091   1.124   2.397  16.468 -1.1890  0.4272 -2.4860
16200TIP3    H270092   1.176   2.515  16.388  2.0326  1.9151  1.4660
16201TIP3   OH270093   5.040   2.562  14.979 -0.1853  0.1826 -0.3409
16201TIP3    H170094   5.123   2.522  14.954 -0.9457 -1.1055 -0.8975
16201TIP3    H270095   5.035   2.642  14.926  0.9300  0.5570  0.0961
16202TIP3   OH270096   0.397   0.274  14.958 -0.1687  0.2457  0.3568
16202TIP3    H170097   0.413   0.212  15.029  0.2483  1.5472  1.4350
16202TIP3    H270098   0.398   0.360  15.000 -0.9027  0.9884 -1.0723
16203TIP3   OH270099   5.188   2.147  13.154  0.3950 -0.2465 -0.4542
16203TIP3    H170100   5.220   2.073  13.102  0.8938 -1.2321  1.1978
16203TIP3    H270101   5.268   2.192  13.182  0.2160 -0.6162  0.6973
16204TIP3   OH270102   6.444   1.225  15.487  0.4613  0.2194 -0.0876
16204TIP3    H170103   6.471   1.316  15.478  1.4442 -0.0975 -0.5829
16204TIP3    H270104   6.364   1.218  15.434  0.3754  0.7903 -0.0348
16205TIP3   OH270105   5.166   5.317   5.723 -0.3320  0.2467 -0.1351
16205TIP3    H170106   5.193   5.253   5.789  3.0189  1.9237  0.3536
16205TIP3    H270107   5.115   5.382   5.771 -0.9216 -0.3475  0.0488
16206TIP3   OH270108   2.124   2.629  12.541 -0.1837  0.2275  0.2568
16206TIP3    H170109   2.143   2.711  12.495  1.2984  0.5240  1.3279
16206TIP3    H270110   2.145   2.647  12.633  0.5170 -1.4490  0.4585
16207TIP3   OH270111   3.901   2.934  13.904 -0.4155  0.4536 -0.4139
16207TIP3    H170112   3.941   2.944  13.990 -0.9738  0.1661 -0.1178
16207TIP3    H270113   3.822   2.883  13.920 -0.1211 -0.2781 -1.2112
16208TIP3   OH270114   1.818   0.419   2.182 -0.3120 -0.7823 -0.0368
16208TIP3    H170115   1.812   0.471   2.102  0.1482  0.6469  0.8196
16208TIP3    H270116   1.765   0.341   2.164 -0.9913 -0.0444 -1.3854
16209TIP3   OH270117   3.068   6.032  17.198  0.4384  0.1725 -0.0141
16209TIP3    H170118   3.032   6.120  17.212  0.3458  0.0593  0.4862
16209TIP3    H270119   3.135   6.044  17.132 -0.3701  0.4256 -0.8058
16210TIP3   OH270120   4.171   3.844  16.949 -0.5248  0.9137 -0.6667
16210TIP3    H170121   4.177   3.869  17.041 -0.5067  0.6581 -0.5975
16210TIP3    H270122   4.243   3.890  16.907  0.0427  0.2936 -0.3865
16211TIP3   OH270123   4.646   3.668   2.809 -0.0247 -0.2359 -0.2399
16211TIP3    H170124   4.618   3.607   2.741 -0.3777 -1.2771  0.8019
16211TIP3    H270125   4.741   3.661   2.810  0.0125  0.0586 -0.8467
16212TIP3   OH270126   5.697   4.115   1.927 -0.2629  0.3638  0.4604
16212TIP3    H170127   5.644   4.035   1.933 -3.1614  1.9376 -1.5332
16212TIP3    H270128   5.637   4.185   1.954  1.0810  2.1935 -1.0675
16213TIP3   OH270129   2.431   5.429  16.810 -0.5190  0.5158  0.4049
16213TIP3    H170130   2.517   5.401  16.843 -0.4124  0.3335 -0.0227
16213TIP3    H270131   2.404   5.498  16.871 -0.8972 -0.6500  1.6036
16214TIP3   OH270132   4.159   0.561   0.677 -0.2942 -0.0168 -0.3189
16214TIP3    H170133   4.238   0.518   0.707 -0.8173  0.2252  1.5380
16214TIP3    H270134   4.127   0.507   0.604  0.4740 -1.2451  0.2400
16215TIP3   OH270135   4.229   1.532   1.054 -0.3476 -0.2574 -0.1772
16215TIP3    H170136   4.163   1.581   1.004 -2.5132 -0.7589  1.9876
16215TIP3    H270137   4.199   1.538   1.145  3.3349  0.5583  1.1576
16216TIP3   OH270138   5.030   3.002  17.021  0.0335  0.3983  0.0854
16216TIP3    H170139   5.052   2.922  17.069 -1.3846 -0.9105 -1.3308
16216TIP3    H270140   4.975   3.052  17.081 -0.7003 -0.6276  0.2897
16217TIP3   OH270141   0.651   1.214   0.859 -0.1493  0.3357  0.2716
16217TIP3    H170142   0.665   1.280   0.791  0.6948  2.2340  2.1676
16217TIP3    H270143   0.564   1.178   0.840 -0.8590  2.3582 -0.5471
16218TIP3   OH270144   4.452   5.797   3.053 -0.4223 -0.3137  0.1974
16218TIP3    H170145   4.497   5.716   3.078  1.0199  0.8705  1.6285
16218TIP3    H270146   4.487   5.819   2.967 -0.6365 -1.0647 -0.0882
16219TIP3   OH270147   4.293   5.392   5.464  0.2466 -0.0903  0.0191
16219TIP3    H170148   4.279   5.472   5.515  2.0794  0.3335 -0.0908
16219TIP3    H270149   4.388   5.386   5.453  0.0767 -1.7024 -0.9213
16220TIP3   OH270150   0.727   0.257   6.298 -0.1750  0.0893  0.0878
16220TIP3    H170151   0.653   0.317   6.303 -1.5622 -1.5967  1.7540
16220TIP3    H270152   0.791   0.292   6.360  0.3462  1.3909 -1.1352
16221TIP3   OH270153   0.916   3.326  14.506  0.0617  0.0691  0.3897
16221TIP3    H170154   0.958   3.245  14.533 -2.3700 -1.7469 -0.8817
16221TIP3    H270155   0.926   3.385  14.580  1.0283 -1.7379  1.7559
16222TIP3   OH270156   3.626   3.937   2.774 -0.0923 -0.2662  0.4114
16222TIP3    H170157   3.615   3.881   2.698  0.5363 -0.3623  0.3845
16222TIP3    H270158   3.712   3.977   2.762 -0.3639  0.3979  0.6265
16223TIP3   OH270159   4.388   6.109  16.712  0.1086  0.3118 -0.8189
16223TIP3    H170160   4.467   6.055  16.707  0.4403  0.4604  1.6166
16223TIP3    H270161   4.415   6.187  16.761 -1.4439  0.4981 -0.1855
16224TIP3   OH270162   5.546   2.651  13.315  0.5223 -0.3298 -0.1882
16224TIP3    H170163   5.481   2.721  13.312 -1.3196 -1.9514 -0.7119
16224TIP3    H270164   5.573   2.648  13.407  0.9003  1.2436 -0.2193
16225TIP3   OH270165   0.869   4.706   2.692 -0.6586 -0.4385  0.1587
16225TIP3    H170166   0.780   4.743   2.697 -0.6366 -0.2850 -0.4601
16225TIP3    H270167   0.898   4.727   2.603 -0.1301 -0.7848  0.2478
16226TIP3   OH270168   2.182   5.802   4.698  0.4721  0.1345  0.1345
16226TIP3    H170169   2.111   5.741   4.676 -1.1406  2.3261 -1.2837
16226TIP3    H270170   2.173   5.816   4.792 -0.2332 -0.5086  0.1778
16227TIP3   OH270171   3.283   5.327  14.419  0.2031  0.2134  0.2918
16227TIP3    H170172   3.325   5.359  14.498 -0.0001 -0.8976  0.8647
16227TIP3    H270173   3.353   5.283  14.371  0.4512  1.3381 -0.4322
16228TIP3   OH270174   5.260   2.376  11.992 -0.0176 -0.0263 -0.0002
16228TIP3    H170175   5.228   2.289  11.970  2.1297 -0.7303 -0.5602
16228TIP3    H270176   5.263   2.422  11.908  1.2480 -0.2931 -0.1273
16229TIP3   OH270177   5.844   5.551  13.668  0.0636 -0.4120  0.3370
16229TIP3    H170178   5.802   5.626  13.625 -0.0173  2.3390  4.5788
16229TIP3    H270179   5.934   5.579  13.682 -0.1110 -0.7455  2.5267
16230TIP3   OH270180   6.541   0.119   5.270 -0.3230 -0.3095 -0.5780
16230TIP3    H170181   6.449   0.121   5.245 -0.1283 -0.9928 -1.3983
16230TIP3    H270182   6.556   0.029   5.300  0.1658 -0.3196 -0.8314
16231TIP3   OH270183   3.762   5.379   2.698  0.2124 -0.1811  1.0973
16231TIP3    H170184   3.670   5.375   2.672  0.4588 -1.8428  0.3554
16231TIP3    H270185   3.804   5.309   2.649  1.7672  0.1272  1.9131
16232TIP3   OH270186   1.789   4.528   0.130 -0.0077  0.3410  0.2318
16232TIP3    H170187   1.732   4.460   0.094  0.0136 -0.1662  1.1114
16232TIP3    H270188   1.863   4.480   0.168  2.3933  1.1048 -3.0912
16233TIP3   OH270189   6.051   5.719  16.664  0.6151  0.2557 -0.0051
16233TIP3    H170190   6.027   5.792  16.607 -0.1357  1.1641  1.3926
16233TIP3    H270191   6.087   5.761  16.742 -2.4097 -0.6252  2.0775
16234TIP3   OH270192   0.783   0.952  10.558  0.2789  0.2176 -0.0207
16234TIP3    H170193   0.858   0.896  10.577 -0.1909 -0.2692  0.3964
16234TIP3    H270194   0.727   0.946  10.635 -0.0419  0.8360 -0.1942
16235TIP3   OH270195   6.336   4.801  14.939 -0.7651 -0.4232 -0.1042
16235TIP3    H170196   6.357   4.713  14.969 -0.3637 -0.3998 -0.3151
16235TIP3    H270197   6.318   4.850  15.020  0.4095 -0.3373  0.1186
16236TIP3   OH270198   3.008   3.316   4.354  0.3046  0.0694 -0.6260
16236TIP3    H170199   2.940   3.352   4.411  2.1290  0.8760  1.1409
16236TIP3    H270200   3.056   3.393   4.323  2.6536 -0.6057  1.1048
16237TIP3   OH270201   6.307   5.834  16.532  0.2400  0.5002 -0.0497
16237TIP3    H170202   6.350   5.760  16.489  1.4680  1.5247 -0.6674
16237TIP3    H270203   6.223   5.799  16.563 -0.5131 -0.4193 -2.8564
16238TIP3   OH270204   3.509   2.350   3.121 -0.3173 -0.3852  0.3325
16238TIP3    H170205   3.533   2.260   3.099  0.7946  0.1051 -0.5570
16238TIP3    H270206   3.592   2.396   3.128 -0.8826  0.6707  0.3450
16239TIP3   OH270207   0.918   6.573  15.474  0.2187  0.2433  0.3194
16239TIP3    H170208   0.877   6.518  15.407  1.0737  0.2064 -0.1862
16239TIP3    H270209   0.887   6.661  15.456 -0.2587  0.1020  0.4330
16240TIP3   OH270210   5.714   0.886   3.060 -0.1812 -0.2280 -0.0146
16240TIP3    H170211   5.736   0.793   3.067  1.5560  0.2531  2.2119
16240TIP3    H270212   5.619   0.889   3.073 -0.4268 -1.7303 -1.1607
16241TIP3   OH270213   4.047   0.295   2.475 -0.0575  0.3684  0.2215
16241TIP3    H170214   3.968   0.303   2.528 -0.5067 -0.0611 -0.3728
16241TIP3    H270215   4.110   0.353   2.518 -0.5253  0.3161  1.0077
16242TIP3   OH270216   5.260   2.868   5.464  0.3265 -0.3306  0.5369
16242TIP3    H170217   5.164   2.872   5.464  0.2699 -1.4891  0.2659
16242TIP3    H270218   5.281   2.776   5.451  1.4888 -0.0394  0.2014
16243TIP3   OH270219   4.240   2.711  12.367 -0.2260  0.3938 -0.5358
16243TIP3    H170220   4.272   2.675  12.450  1.4653  2.5653 -0.1666
16243TIP3    H270221   4.316   2.752  12.327 -1.2623  0.4263 -2.6481
16244TIP3   OH270222   5.263   1.142  16.331 -0.1998 -0.2305  0.2353
16244TIP3    H170223   5.253   1.105  16.419 -0.4749 -1.0005 -0.1040
16244TIP3    H270224   5.286   1.067  16.276 -2.1652 -0.1867 -0.7415
16245TIP3   OH270225   3.766   3.860  13.621  0.3472 -0.6162 -0.2692
16245TIP3    H170226   3.678   3.827  13.639 -0.0097  0.9818  1.1961
16245TIP3    H270227   3.814   3.844  13.703  0.8685  0.2018 -0.4085
16246TIP3   OH270228   1.777   6.460  14.914 -0.5980 -0.0502  0.2829
16246TIP3    H170229   1.813   6.478  15.001 -1.8914  0.8638  0.6488
16246TIP3    H270230   1.783   6.543  14.868  0.4913 -0.6372 -0.6779
16247TIP3   OH270231   2.859   2.361  11.517  0.3002 -0.6953  0.3104
16247TIP3    H170232   2.863   2.421  11.443 -1.6733  0.6684  1.2416
16247TIP3    H270233   2.941   2.312  11.511  2.8513  3.1140  0.3858
16248TIP3   OH270234   1.684   0.765  15.173 -0.4537 -0.2384 -0.2831
16248TIP3    H170235   1.681   0.670  15.187  1.2568 -0.0587  2.1651
16248TIP3    H270236   1.776   0.782  15.153 -0.8165  0.8747 -1.0361
16249TIP3   OH270237   1.312   6.424  12.219  0.0353 -0.3461  0.7022
16249TIP3    H170238   1.297   6.496  12.281 -1.0112  0.0436  0.0180
16249TIP3    H270239   1.401   6.394  12.238 -0.7504 -1.2419  3.4346
16250TIP3   OH270240   5.016   5.196   2.895 -0.2209  0.4574 -0.5848
16250TIP3    H170241   5.099   5.240   2.879 -0.9002  1.8318 -0.4424
16250TIP3    H270242   5.038   5.103   2.895  1.0094  0.7098 -2.3439
16251TIP3   OH270243   3.071   3.547   2.325  0.6576 -0.0885 -0.6715
16251TIP3    H170244   3.090   3.640   2.309  1.8201 -0.1514  0.2031
16251TIP3    H270245   3.024   3.546   2.408 -3.1992  0.0285 -2.6405
16252TIP3   OH270246   0.378   1.808   1.267  0.0470  0.0455  0.1891
16252TIP3    H170247   0.286   1.797   1.292 -0.1939  0.1926 -0.6014
16252TIP3    H270248   0.380   1.786   1.173  0.1473  3.4334 -0.7264
16253TIP3   OH270249   6.706   1.230  15.857  0.3843 -0.1929 -0.3188
16253TIP3    H170250   6.709   1.263  15.947  2.9552 -2.5280  0.6081
16253TIP3    H270251   6.615   1.204  15.844 -0.2028  0.8539  1.3147
16254TIP3   OH270252   1.845   5.304  15.381  0.4317 -0.3330 -0.1075
16254TIP3    H170253   1.780   5.331  15.445  1.0053 -1.0583  0.8230
16254TIP3    H270254   1.794   5.279  15.304 -0.5374 -2.1354  1.0364
16255TIP3   OH270255   6.320   5.427   1.145  0.8239 -0.2274 -0.2463
16255TIP3    H170256   6.390   5.367   1.171  0.0744 -0.7746  0.5636
16255TIP3    H270257   6.274   5.448   1.227 -1.1635 -1.4391 -0.9733
16256TIP3   OH270258   6.203   1.667  12.992 -0.5998 -0.0131  0.4150
16256TIP3    H170259   6.253   1.666  13.074  0.5021 -2.4346 -0.2152
16256TIP3    H270260   6.120   1.627  13.013 -1.0813  1.0994  0.7306
16257TIP3   OH270261   6.486   2.384  13.716  0.6217 -0.1695  0.3011
16257TIP3    H170262   6.449   2.333  13.643  3.0255  0.0352 -1.1696
16257TIP3    H270263   6.413   2.439  13.745 -0.9127 -1.5178 -0.7625
16258TIP3   OH270264   5.505   3.113  13.278 -0.2243 -0.4869 -0.6301
16258TIP3    H170265   5.588   3.102  13.231 -0.2040 -0.7752 -0.5328
16258TIP3    H270266   5.442   3.060  13.228 -0.4168 -0.0309 -0.8720
16259TIP3   OH270267   1.287   3.832  14.349 -0.1176  0.2309 -0.3404
16259TIP3    H170268   1.249   3.843  14.262  0.5047  3.5343 -0.3193
16259TIP3    H270269   1.338   3.751  14.343 -2.2930 -1.1065 -2.1416
16260TIP3   OH270270   5.994   4.317  10.551  0.5247 -0.2366 -0.5282
16260TIP3    H170271   6.030   4.382  10.611 -1.4199  1.1179 -0.7257
16260TIP3    H270272   5.920   4.279  10.598 -0.1265 -0.2061 -1.4977
16261TIP3   OH270273   4.024   2.851   2.800  0.1814  0.1327  0.5795
16261TIP3    H170274   3.930   2.846   2.819  0.0651 -2.4094 -0.2368
16261TIP3    H270275   4.028   2.881   2.709 -0.1252 -2.8530 -0.5518
16262TIP3   OH270276   1.153   4.145   3.051  0.0160 -0.4182  0.3667
16262TIP3    H170277   1.114   4.099   3.125 -0.1401 -0.3436  0.3331
16262TIP3    H270278   1.078   4.184   3.005  0.0558 -1.0222 -0.2142
16263TIP3   OH270279   2.216   5.556   0.955 -0.1909 -0.0943  0.3083
16263TIP3    H170280   2.193   5.615   1.027  0.1242  1.2497 -0.6413
16263TIP3    H270281   2.142   5.496   0.949 -0.2308 -0.2085  1.7198
16264TIP3   OH270282   1.056   2.675   2.440 -0.3373 -0.0980  0.1499
16264TIP3    H170283   1.076   2.607   2.505  0.9228  1.2499  1.2307
16264TIP3    H270284   1.112   2.654   2.366 -0.1898 -0.4256  0.3522
16265TIP3   OH270285   3.642   3.889  14.139  0.3576  0.2539  0.4108
16265TIP3    H170286   3.708   3.904  14.207  0.3909  2.0441  0.0252
16265TIP3    H270287   3.562   3.926  14.175  0.3091  0.9476 -0.3905
16266TIP3   OH270288   1.430   1.124  14.933 -0.1846  0.4884  0.2400
16266TIP3    H170289   1.500   1.186  14.955  0.4961  0.4580 -1.6711
16266TIP3    H270290   1.476   1.041  14.921 -0.6687  0.2952 -0.2524
16267TIP3   OH270291   2.059   6.031   2.659 -0.1843 -0.6919  0.3199
16267TIP3    H170292   2.145   6.037   2.701 -0.6743 -1.6866  1.5175
16267TIP3    H270293   1.997   6.053   2.729 -0.8789  1.6951 -0.9242
16268TIP3   OH270294   5.056   1.267  11.532  0.1836 -0.2768  0.1889
16268TIP3    H170295   5.051   1.254  11.626  0.2040 -0.3867  0.1745
16268TIP3    H270296   5.000   1.343  11.516  0.2537 -0.2016  0.3004
16269TIP3   OH270297   1.121   3.934   0.673 -0.4564  0.3132  0.2740
16269TIP3    H170298   1.199   3.885   0.645 -0.6068  0.4435 -0.3937
16269TIP3    H270299   1.093   3.890   0.753 -0.9679 -1.1105 -0.6492
16270TIP3   OH270300   2.277   2.186  14.872 -0.1680  0.2424  0.2889
16270TIP3    H170301   2.317   2.272  14.860 -0.6247  0.3620 -0.4875
16270TIP3    H270302   2.196   2.204  14.919 -0.6640  0.3563 -0.5742
16271TIP3   OH270303   4.968   2.490  12.309  0.8285  0.1254  0.1294
16271TIP3    H170304   4.908   2.446  12.249  1.4081 -0.2713 -0.1679
16271TIP3    H270305   5.055   2.459  12.284  1.0595 -0.3088  1.3865
16272TIP3   OH270306   0.791   2.902   1.297 -0.1146  0.0321  0.1700
16272TIP3    H170307   0.852   2.830   1.313  0.1074 -0.4088 -2.2220
16272TIP3    H270308   0.844   2.981   1.303  0.9836 -0.3807 -2.5873
16273TIP3   OH270309   2.475   0.882  13.306 -0.8779  0.0994 -0.3224
16273TIP3    H170310   2.427   0.857  13.385  2.1813 -0.6145  1.5063
16273TIP3    H270311   2.518   0.964  13.329  0.8042 -0.5866 -0.8658
16274TIP3   OH270312   3.001   3.754   4.957 -0.0545  0.3822  0.0264
16274TIP3    H170313   3.023   3.785   5.045 -0.5192  0.3403  0.1590
16274TIP3    H270314   3.068   3.793   4.900  0.5240  0.0442  0.4547
16275TIP3   OH270315   5.509   4.927   2.471  0.4910 -0.3523  0.0144
16275TIP3    H170316   5.594   4.952   2.434  0.0576  0.8298 -0.2111
16275TIP3    H270317   5.458   4.898   2.395  0.8352 -1.5620  0.2141
16276TIP3   OH270318   3.116   1.044   6.129  0.0724  0.0502 -0.3397
16276TIP3    H170319   3.118   1.099   6.208 -0.9185 -1.4309  0.7634
16276TIP3    H270320   3.188   0.982   6.141 -1.4084 -1.5779  0.5006
16277TIP3   OH270321   2.345   6.694  13.373 -0.6027 -0.5417 -0.4534
16277TIP3    H170322   2.411   6.675  13.440  0.2798  0.0599 -1.1176
16277TIP3    H270323   2.270   6.728  13.421  1.1754  3.1158  0.0752
16278TIP3   OH270324   1.484   4.103   2.811 -0.3560  0.7297  0.8514
16278TIP3    H170325   1.423   4.031   2.826 -1.0831  1.2247  0.3328
16278TIP3    H270326   1.429   4.174   2.779  0.6541  0.8139 -0.7773
16279TIP3   OH270327   6.736   2.797   3.425 -0.0649  0.2265  0.1672
16279TIP3    H170328   6.797   2.817   3.497 -0.8796  1.2447  0.6030
16279TIP3    H270329   6.776   2.836   3.348  1.1095 -1.3806 -0.0856
16280TIP3   OH270330   6.405   2.322   4.942  0.1402 -0.1316  0.0647
16280TIP3    H170331   6.371   2.242   4.902  1.4985 -1.0087  0.6139
16280TIP3    H270332   6.403   2.305   5.036 -2.1572  1.5663  0.4187
16281TIP3   OH270333   5.394   3.151   6.070  0.4656 -0.0264 -0.1855
16281TIP3    H170334   5.360   3.182   6.154  1.0099 -0.6474  0.2705
16281TIP3    H270335   5.393   3.055   6.078 -1.2382 -0.1784 -1.5836
16282TIP3   OH270336   1.664   5.899   2.486  0.1843  0.4348 -0.1486
16282TIP3    H170337   1.755   5.899   2.457  0.3056  1.6294  0.1877
16282TIP3    H270338   1.615   5.859   2.414  0.7442  1.4396 -1.1031
16283TIP3   OH270339   0.407   6.257  16.649  0.1679 -0.4249 -0.7395
16283TIP3    H170340   0.371   6.344  16.665  0.0955 -0.5845 -0.0228
16283TIP3    H270341   0.368   6.202  16.716  1.1787 -0.7484 -0.4013
16284TIP3   OH270342   1.700   0.729   0.211 -0.3148 -0.0637  0.4980
16284TIP3    H170343   1.672   0.778   0.288  1.3629  1.1499  0.3994
16284TIP3    H270344   1.794   0.719   0.222 -0.1017 -0.2289 -1.1891
16285TIP3   OH270345   6.727   2.992   3.868 -0.0005  0.1135  0.1555
16285TIP3    H170346   6.671   2.915   3.870  0.0717  0.0659  1.6252
16285TIP3    H270347   6.707   3.034   3.784 -2.8939  0.5704  0.9454
16286TIP3   OH270348   3.730   5.881  13.401  0.1834 -0.0653 -0.2179
16286TIP3    H170349   3.686   5.867  13.318  0.2929  0.7111 -0.4065
16286TIP3    H270350   3.790   5.806  13.408  0.5574  0.1434 -1.0849
16287TIP3   OH270351   3.307   2.837   2.834  0.0292 -0.5392 -0.2114
16287TIP3    H170352   3.247   2.768   2.861 -1.0171 -0.5339 -2.3029
16287TIP3    H270353   3.253   2.917   2.836  0.7558 -0.0540  0.5353
16288TIP3   OH270354   5.113   1.290   2.085  0.1187  0.3684 -0.1469
16288TIP3    H170355   5.158   1.258   2.164 -0.7653  1.1736  0.7050
16288TIP3    H270356   5.031   1.241   2.083  0.6385 -0.5047 -1.2456
16289TIP3   OH270357   3.465   5.403  14.855  0.2243  0.0424 -0.6381
16289TIP3    H170358   3.494   5.409  14.764  1.9464 -1.5279 -0.2478
16289TIP3    H270359   3.370   5.397  14.850  0.1680  1.6166 -2.2180
16290TIP3   OH270360   3.100   3.743  13.968  0.0776  0.5626 -0.0600
16290TIP3    H170361   3.020   3.691  13.980 -1.2423  2.4266 -0.4146
16290TIP3    H270362   3.069   3.829  13.939  2.1109  1.8483  1.3180
16291TIP3   OH270363   2.378   5.729  15.716 -0.2867 -0.5119  0.1529
16291TIP3    H170364   2.365   5.640  15.684  1.3662 -0.4297 -0.8348
16291TIP3    H270365   2.381   5.783  15.638  1.6895 -0.0157  0.5236
16292TIP3   OH270366   5.838   5.974  14.707  0.2108 -0.2131  0.3177
16292TIP3    H170367   5.906   5.934  14.651 -1.2621 -0.7581 -1.1546
16292TIP3    H270368   5.851   5.932  14.792  1.2591 -0.8447 -0.1204
16293TIP3   OH270369   4.826   3.605  11.445  0.1524  0.8080 -0.7766
16293TIP3    H170370   4.846   3.672  11.380  1.2713  1.1586 -0.0924
16293TIP3    H270371   4.861   3.639  11.527 -1.0136  0.2658 -0.0106
16294TIP3   OH270372   1.544   6.082  15.250 -0.8954  0.6018 -0.6036
16294TIP3    H170373   1.521   6.108  15.339  0.7850 -1.7280  0.6303
16294TIP3    H270374   1.612   6.143  15.224  0.8353 -0.5177  1.0254
16295TIP3   OH270375   0.956   4.813   4.348  0.0080 -0.8299  0.3541
16295TIP3    H170376   0.990   4.727   4.324 -1.1863 -1.0894 -0.5128
16295TIP3    H270377   1.006   4.874   4.294  1.3214 -0.8924  1.4513
16296TIP3   OH270378   4.342   1.752   2.185  0.1301 -0.2035  0.2774
16296TIP3    H170379   4.293   1.671   2.194 -1.6970  0.7277 -0.7146
16296TIP3    H270380   4.295   1.815   2.239  1.5202  0.2279  1.0330
16297TIP3   OH270381   5.933   4.160   4.240  0.2456 -0.1820  0.3766
16297TIP3    H170382   5.992   4.109   4.184  2.0169 -2.1661  3.7539
16297TIP3    H270383   5.979   4.242   4.255 -0.3089  0.4304 -1.0427
16298TIP3   OH270384   5.018   0.105   2.870  0.1589 -0.4749 -0.2281
16298TIP3    H170385   4.982   0.064   2.792  0.5784 -0.7775 -0.2677
16298TIP3    H270386   4.942   0.125   2.925 -0.1490 -0.1219 -0.7752
16299TIP3   OH270387   6.437   2.758  11.211  0.0704 -0.3891  0.2606
16299TIP3    H170388   6.409   2.721  11.127  0.4939  0.1624 -0.1249
16299TIP3    H270389   6.440   2.683  11.270  1.2309 -1.0360 -0.5889
16300TIP3   OH270390   1.697   0.498  11.105  0.2172  0.3447 -0.4312
16300TIP3    H170391   1.788   0.492  11.077  0.4509 -0.1911  0.3870
16300TIP3    H270392   1.676   0.591  11.102  1.4250  0.7095  1.2636
16301TIP3   OH270393   6.296   4.017  13.450 -0.0264 -0.0540  0.1884
16301TIP3    H170394   6.261   4.105  13.463 -0.6794 -0.0396 -1.4118
16301TIP3    H270395   6.371   4.030  13.392 -0.2739 -0.5739 -0.2484
16302TIP3   OH270396   2.439   5.512  10.888 -0.5072  0.0234  0.7472
16302TIP3    H170397   2.353   5.501  10.847  0.7261 -0.3500 -1.9628
16302TIP3    H270398   2.449   5.607  10.895 -0.2095  0.1903 -1.2569
16303TIP3   OH270399   0.096   5.555   3.028  0.2122 -0.1573 -0.5530
16303TIP3    H170400   0.020   5.611   3.047  0.2782 -0.2914  0.1395
16303TIP3    H270401   0.060   5.467   3.024  0.4387 -0.3105  0.5335
16304TIP3   OH270402   1.556   1.003  14.539 -0.1695  0.0353  0.6336
16304TIP3    H170403   1.528   1.084  14.583 -0.0730  0.4144  0.0059
16304TIP3    H270404   1.483   0.980  14.482 -0.0865 -0.1699  0.6115
16305TIP3   OH270405   3.217   5.677   5.266  0.8335  0.0675  0.4542
16305TIP3    H170406   3.293   5.732   5.287  0.3999  0.6977  0.3997
16305TIP3    H270407   3.206   5.620   5.342  1.7110 -0.4382  0.2231
16306TIP3   OH270408   0.392   4.129  16.461  0.2281 -0.2560 -0.1939
16306TIP3    H170409   0.376   4.199  16.524  1.9581 -0.1947  0.2140
16306TIP3    H270410   0.326   4.143  16.393  0.1841  1.4489  0.1489
16307TIP3   OH270411   6.490   4.510   1.454 -0.1076 -0.1010 -0.0435
16307TIP3    H170412   6.506   4.416   1.455 -2.5181 -0.5718 -0.3143
16307TIP3    H270413   6.536   4.541   1.375  0.7687 -1.0100  0.0941
16308TIP3   OH270414   6.210   1.984   0.563 -0.6908  0.2950 -0.3515
16308TIP3    H170415   6.157   2.029   0.497 -0.2565 -0.3644 -1.1671
16308TIP3    H270416   6.289   1.958   0.517 -1.2704 -2.0278 -0.1648
16309TIP3   OH270417   3.937   0.355  11.564  0.1277 -0.3315  0.4975
16309TIP3    H170418   4.027   0.324  11.572 -0.0666 -1.3732 -0.9264
16309TIP3    H270419   3.938   0.412  11.487 -0.4338 -0.4586  0.3917
16310TIP3   OH270420   3.960   4.288   3.670 -0.1713 -0.0487  0.5205
16310TIP3    H170421   3.999   4.292   3.583  0.6568 -0.1368  0.8843
16310TIP3    H270422   3.887   4.227   3.661  0.3618 -0.6252  0.0585
16311TIP3   OH270423   0.546   4.541   1.606 -0.7994  0.0998 -0.2903
16311TIP3    H170424   0.463   4.550   1.653  0.1084 -1.2616  1.6820
16311TIP3    H270425   0.520   4.521   1.516 -2.5905  1.3381 -0.1108
16312TIP3   OH270426   1.552   6.167  12.194 -0.2779  0.4786  0.6193
16312TIP3    H170427   1.567   6.183  12.287 -1.4223 -1.1569  1.1245
16312TIP3    H270428   1.458   6.179  12.181 -0.6259 -2.0049  0.3186
16313TIP3   OH270429   0.973   3.251   0.116  0.3881  0.0204  0.3351
16313TIP3    H170430   0.988   3.269   0.209 -0.0066 -0.1696  0.4382
16313TIP3    H270431   0.892   3.200   0.115 -0.6683  1.6431 -0.2476
16314TIP3   OH270432   0.023   6.004  15.018 -0.4772  0.6666  0.0694
16314TIP3    H170433  -0.042   6.074  15.028  0.5374  1.5922  0.3809
16314TIP3    H270434   0.058   5.991  15.106  0.4862  0.8957 -0.2741
16315TIP3   OH270435   1.501   5.827   1.140  0.0055  0.2129  0.6007
16315TIP3    H170436   1.507   5.904   1.084  0.2637  0.1960  0.6057
16315TIP3    H270437   1.442   5.768   1.093  0.1609  0.2314  0.3832
16316TIP3   OH270438   2.235   1.288   2.507 -0.0145  0.7260 -0.2629
16316TIP3    H170439   2.156   1.298   2.560  0.2203 -1.7799  0.6917
16316TIP3    H270440   2.307   1.301   2.568  0.3596  2.3658 -0.9958
16317TIP3   OH270441   0.529   4.484  13.531  0.0851  0.4750  0.2230
16317TIP3    H170442   0.542   4.396  13.564  1.7172  0.5350 -0.1808
16317TIP3    H270443   0.555   4.480  13.439 -1.1207  1.0852 -0.1719
16318TIP3   OH270444   5.613   5.383   4.367 -0.0363  0.0585  0.4650
16318TIP3    H170445   5.690   5.332   4.343  0.5223  1.0632  0.0575
16318TIP3    H270446   5.539   5.322   4.355  0.5174 -0.3749 -0.9405
16319TIP3   OH270447   0.938   2.619  15.177  0.0587 -1.0516 -0.4423
16319TIP3    H170448   0.999   2.558  15.135  0.3432 -0.3763 -1.0176
16319TIP3    H270449   0.974   2.632  15.264  0.6100 -0.8464 -0.6949
16320TIP3   OH270450   6.724   5.974   4.902 -0.1250  0.2931  0.0044
16320TIP3    H170451   6.796   5.935   4.853 -0.3176  1.7312 -1.4892
16320TIP3    H270452   6.767   6.030   4.968  0.1535  0.9859 -0.7467
16321TIP3   OH270453   3.075   6.217   5.872  0.5229 -0.0840 -0.0809
16321TIP3    H170454   3.079   6.284   5.804 -0.8459  0.2323  0.1253
16321TIP3    H270455   3.045   6.139   5.827  0.2074 -0.0355  0.0445
16322TIP3   OH270456   1.521   0.407  16.176 -0.1169 -0.3185 -0.4928
16322TIP3    H170457   1.486   0.328  16.134 -1.4872 -0.8622  1.4865
16322TIP3    H270458   1.535   0.468  16.104 -1.7750 -1.3778 -1.8040
16323TIP3   OH270459   5.471   4.386  15.094  0.1320 -0.0961 -0.7100
16323TIP3    H170460   5.564   4.394  15.119  0.0720 -0.8860 -0.2128
16323TIP3    H270461   5.423   4.416  15.172 -0.0561  2.5099 -1.7258
16324TIP3   OH270462   0.477   0.077  16.060  0.4877 -0.6738  0.2646
16324TIP3    H170463   0.411   0.028  16.108  0.6642 -1.1111  0.0585
16324TIP3    H270464   0.452   0.169  16.072 -0.5122 -0.8560 -0.3288
16325TIP3   OH270465   4.655   4.800   1.831  0.0650 -0.5190 -0.1745
16325TIP3    H170466   4.614   4.855   1.898 -0.9100 -1.6464  0.1986
16325TIP3    H270467   4.697   4.729   1.880 -0.9797 -1.5638 -0.7413
16326TIP3   OH270468   1.254   5.213  17.186  0.3603 -0.4300 -0.7414
16326TIP3    H170469   1.205   5.296  17.186  2.2793  0.9878  3.5125
16326TIP3    H270470   1.334   5.233  17.137  0.3064 -0.1590 -0.7210
16327TIP3   OH270471   5.547   5.529   4.700  0.3163  0.1932 -0.6261
16327TIP3    H170472   5.558   5.577   4.782 -1.4018 -2.5674  1.3957
16327TIP3    H270473   5.480   5.577   4.652 -2.0546 -0.4725  1.7539
16328TIP3   OH270474   2.565   6.547  15.484  0.4211 -0.4331  0.4368
16328TIP3    H170475   2.656   6.522  15.494  0.3089 -1.4286 -0.7085
16328TIP3    H270476   2.542   6.590  15.566  1.6017 -1.1559  1.1705
16329TIP3   OH270477   4.478   1.252   3.545  0.3114  0.6172  0.0380
16329TIP3    H170478   4.456   1.328   3.492 -0.6891 -0.3994 -1.0557
16329TIP3    H270479   4.406   1.245   3.607 -0.1698 -0.0781 -0.5910
16330TIP3   OH270480   4.744   4.201   3.093  0.6413  0.1528  1.0222
16330TIP3    H170481   4.770   4.282   3.135 -0.0348  1.0648 -0.2639
16330TIP3    H270482   4.724   4.225   3.002  3.5084 -1.9708 -0.3518
16331TIP3   OH270483   5.208   3.770   3.298  0.2070  0.0484  0.4383
16331TIP3    H170484   5.239   3.695   3.247 -0.4663 -0.3754  0.6434
16331TIP3    H270485   5.114   3.754   3.309 -0.3907  1.9810 -1.3290
16332TIP3   OH270486   1.287   4.401   2.950  0.0008  0.2386 -0.7153
16332TIP3    H170487   1.236   4.337   3.000  0.1121 -1.4977 -2.6937
16332TIP3    H270488   1.225   4.436   2.886  0.1454  1.5996 -0.1457
16333TIP3   OH270489   5.248   3.198   5.244 -0.0821 -0.4745  0.2046
16333TIP3    H170490   5.187   3.196   5.318  0.2111  0.1991  0.4778
16333TIP3    H270491   5.224   3.278   5.196  1.0958  0.2475  0.7708
16334TIP3   OH270492   4.915   5.909   1.452 -0.2761  0.1326 -0.1127
16334TIP3    H170493   4.856   5.984   1.452  0.0928  0.4238 -0.0722
16334TIP3    H270494   4.977   5.927   1.381  0.0717  0.0719  0.1737
16335TIP3   OH270495   5.742   6.585  13.008  0.1805  0.0913  0.7536
16335TIP3    H170496   5.773   6.537  12.932 -0.3583  0.8259  0.0522
16335TIP3    H270497   5.753   6.677  12.984 -2.1968  0.3899  0.5859
16336TIP3   OH270498   5.406   0.371  14.086 -0.3159 -0.3816 -0.5577
16336TIP3    H170499   5.318   0.374  14.047 -1.8861  0.1766  2.6626
16336TIP3    H270500   5.417   0.458  14.124  0.6342 -1.1802  1.0769
16337TIP3   OH270501   0.220   0.688  12.672  0.4546 -0.2511 -0.3946
16337TIP3    H170502   0.158   0.720  12.738  0.8610 -0.6896  0.2150
16337TIP3    H270503   0.305   0.696  12.714  0.6686 -1.0541 -0.6578
16338TIP3   OH270504   1.301   0.877  14.479  0.9318 -0.0564  0.0865
16338TIP3    H170505   1.263   0.933  14.547  0.2823 -0.7527  0.3137
16338TIP3    H270506   1.269   0.789  14.500  1.6926 -0.4681 -0.4401
16339TIP3   OH270507   4.379   5.834   0.254  0.1946  0.3045  0.1530
16339TIP3    H170508   4.360   5.767   0.187 -1.8782 -1.1338  2.0092
16339TIP3    H270509   4.460   5.805   0.294  2.3457  2.0300 -2.5931
16340TIP3   OH270510   2.434   3.426  14.713  0.1346 -0.4048 -0.0515
16340TIP3    H170511   2.507   3.442  14.772  0.0587 -1.1581  0.2498
16340TIP3    H270512   2.369   3.380  14.766 -1.6208  2.3619  0.4009
16341TIP3   OH270513   1.174   6.313   4.374 -0.4711 -0.1338  0.2555
16341TIP3    H170514   1.205   6.271   4.455  0.0531 -1.0846 -0.4290
16341TIP3    H270515   1.079   6.315   4.383 -0.5203 -1.5787  0.2604
16342TIP3   OH270516   4.104   6.242  15.873 -0.0708 -0.0536  0.0681
16342TIP3    H170517   4.160   6.232  15.950 -1.7180  2.7264  1.7740
16342TIP3    H270518   4.090   6.152  15.842  3.7921 -0.9972  0.5772
16343TIP3   OH270519   2.392   6.572   6.330  0.0630 -0.3389  0.5425
16343TIP3    H170520   2.473   6.568   6.382 -0.0444  0.1098  0.7462
16343TIP3    H270521   2.367   6.480   6.318  1.8254 -0.6623 -1.4348
16344TIP3   OH270522   3.170   2.335  14.139 -0.4859  0.0224  0.6884
16344TIP3    H170523   3.125   2.309  14.219  0.1686  1.7307  1.6667
16344TIP3    H270524   3.117   2.406  14.103 -0.6605 -0.5871 -0.3193
16345TIP3   OH270525   2.537   6.685   5.492 -0.4069  0.0504  0.8557
16345TIP3    H170526   2.554   6.591   5.497 -2.0968 -0.4215 -1.1386
16345TIP3    H270527   2.608   6.720   5.439  1.0650  0.2308  2.8066
16346TIP3   OH270528   0.243   0.199  11.205 -0.2924 -0.0457  0.2506
16346TIP3    H170529   0.291   0.281  11.221 -0.2578 -0.1976  0.9610
16346TIP3    H270530   0.240   0.191  11.110  1.4327 -0.2295  0.1786
16347TIP3   OH270531   1.352   4.977  16.323 -0.1837 -0.3653 -0.1846
16347TIP3    H170532   1.384   5.038  16.256  0.2119 -1.4001 -0.9656
16347TIP3    H270533   1.427   4.964  16.381  0.1288 -1.0380 -0.7213
16348TIP3   OH270534   5.649   0.350  16.028  0.3850 -0.0314  0.9721
16348TIP3    H170535   5.726   0.325  15.976 -0.6771 -2.1491  0.3241
16348TIP3    H270536   5.591   0.393  15.965 -0.3827 -1.5087  0.6335
16349TIP3   OH270537   2.054   2.504  14.102 -0.8479  0.0386 -0.3744
16349TIP3    H170538   1.963   2.531  14.116 -1.1514 -0.0733 -2.0121
16349TIP3    H270539   2.066   2.431  14.163 -1.4798  0.7901  0.6881
16350TIP3   OH270540   0.889   4.739  16.784 -0.3251  0.2623 -0.2569
16350TIP3    H170541   0.870   4.667  16.724 -2.4851  1.4790 -1.1648
16350TIP3    H270542   0.908   4.697  16.868  1.3301 -1.4255 -1.4155
16351TIP3   OH270543   5.592   2.821   0.763  0.0036 -0.0900  0.8165
16351TIP3    H170544   5.641   2.856   0.689  1.1841  1.8764  2.4141
16351TIP3    H270545   5.502   2.851   0.748 -0.5007 -2.3439 -1.3008
16352TIP3   OH270546   5.709   4.873  10.428 -0.6085 -0.6867  0.2314
16352TIP3    H170547   5.800   4.891  10.402 -0.0275 -0.1083  2.4594
16352TIP3    H270548   5.705   4.778  10.434 -0.5513 -0.7983 -1.1088
16353TIP3   OH270549   1.955   0.469  13.443 -0.5653  0.2034 -0.3123
16353TIP3    H170550   1.937   0.560  13.465 -2.0036  0.0112 -0.6014
16353TIP3    H270551   1.895   0.448  13.372 -0.8772 -1.2024  0.3127
16354TIP3   OH270552   4.030   5.629   1.878  0.1724 -0.3333 -0.6415
16354TIP3    H170553   3.952   5.580   1.905 -0.0218 -0.6517 -1.7418
16354TIP3    H270554   4.047   5.599   1.789  2.0601 -0.8947 -0.1360
16355TIP3   OH270555   5.723   3.371  17.100  0.7876 -0.3608  0.0586
16355TIP3    H170556   5.734   3.402  17.010 -0.6397  0.7415  0.2280
16355TIP3    H270557   5.792   3.306  17.111  0.1032 -1.6136 -2.3095
16356TIP3   OH270558   3.005   2.429  12.314 -0.6264  0.1959  0.4257
16356TIP3    H170559   3.033   2.424  12.223 -0.6574  0.5985  0.3904
16356TIP3    H270560   3.030   2.517  12.342  0.1132 -0.2068  1.0535
16357TIP3   OH270561   5.049   4.315   1.615  0.3600 -0.0735  0.3002
16357TIP3    H170562   5.024   4.361   1.535  0.0701 -0.0235  0.4165
16357TIP3    H270563   5.128   4.359   1.645  0.8300 -0.4889 -0.2928
16358TIP3   OH270564   5.928   4.793   0.857 -0.3352  0.3277 -0.2349
16358TIP3    H170565   5.904   4.751   0.940 -3.0148  0.2716 -0.9206
16358TIP3    H270566   6.005   4.845   0.877  0.9221 -2.0058  1.5437
16359TIP3   OH270567   5.311   3.624   3.100  0.1059 -0.5983  0.1991
16359TIP3    H170568   5.276   3.687   3.038 -0.1539  0.0497  0.9883
16359TIP3    H270569   5.243   3.556   3.106 -0.1995 -0.2832  0.3333
16360TIP3   OH270570   0.715   3.114   1.863  0.2700 -0.2568  0.0077
16360TIP3    H170571   0.736   3.200   1.900  0.2021 -0.3698  0.3133
16360TIP3    H270572   0.745   3.119   1.772 -0.3992  0.3421 -0.1890
16361TIP3   OH270573   0.244   5.881  17.158  0.1500 -0.2769  0.4622
16361TIP3    H170574   0.204   5.887  17.071 -0.9606  0.6659  1.0175
16361TIP3    H270575   0.172   5.893  17.219  1.1547  0.7449  1.5061
16362TIP3   OH270576   3.926   2.341  13.830 -0.3925  0.3397 -0.2284
16362TIP3    H170577   4.000   2.283  13.808 -0.3352  0.9387 -1.7517
16362TIP3    H270578   3.915   2.331  13.924  1.7190  0.3207  0.0674
16363TIP3   OH270579   1.934   6.179   1.756  0.3601 -0.2721  0.3303
16363TIP3    H170580   2.029   6.168   1.761  0.6142  0.6948 -1.5365
16363TIP3    H270581   1.909   6.136   1.675 -0.9389 -1.1941  1.1921
16364TIP3   OH270582   4.772   5.111   0.339 -0.1861 -0.7719 -0.2645
16364TIP3    H170583   4.834   5.082   0.405 -0.0391 -1.2483 -0.6103
16364TIP3    H270584   4.686   5.093   0.377 -0.0975 -1.3897 -0.3591
16365TIP3   OH270585   2.475   4.748   0.092 -0.3533 -0.7830  0.6378
16365TIP3    H170586   2.528   4.700   0.028  0.5285 -0.6149  1.2325
16365TIP3    H270587   2.508   4.838   0.088 -0.7488 -0.6254  0.8531
16366TIP3   OH270588   6.710   4.894   4.631 -0.1070 -0.7288  0.5150
16366TIP3    H170589   6.683   4.823   4.690  0.6467 -0.7618  0.8332
16366TIP3    H270590   6.806   4.888   4.629 -0.0018  0.5635  0.9039
16367TIP3   OH270591   4.433   2.624   6.391 -0.2809  0.7505 -0.1021
16367TIP3    H170592   4.490   2.682   6.441 -1.9164  2.6176 -0.2890
16367TIP3    H270593   4.387   2.682   6.330 -2.7535 -0.5387  0.3893
16368TIP3   OH270594   6.421   2.882  13.430  0.6110  0.0105  0.4700
16368TIP3    H170595   6.382   2.811  13.481 -0.8820  1.2903  1.2119
16368TIP3    H270596   6.395   2.962  13.477  3.1388  1.0244  0.2786
16369TIP3   OH270597   2.825   3.750   1.147  0.5793 -0.0830 -0.2940
16369TIP3    H170598   2.833   3.784   1.236 -1.0823  1.2642 -0.6094
16369TIP3    H270599   2.861   3.819   1.092 -2.5946  1.2483 -0.9245
16370TIP3   OH270600   1.606   1.900   4.609 -0.4858 -0.1223  0.1358
16370TIP3    H170601   1.523   1.912   4.561 -1.2382 -1.5859  0.9942
16370TIP3    H270602   1.672   1.939   4.551 -1.3209 -1.9462 -2.2325
16371TIP3   OH270603   3.279   3.204   3.717 -0.6989  0.3609  0.1116
16371TIP3    H170604   3.238   3.244   3.640 -0.2978 -1.1678 -0.9506
16371TIP3    H270605   3.339   3.138   3.681 -0.8703 -0.7628  1.7494
16372TIP3   OH270606   4.328   0.053  11.799 -0.0691  0.1896  0.3411
16372TIP3    H170607   4.289   0.097  11.875 -0.0977  0.3025  0.2609
16372TIP3    H270608   4.419   0.036  11.825 -0.4277 -0.9401  0.9014
16373TIP3   OH270609   1.478   6.028   0.979 -0.2538 -0.3987 -0.2351
16373TIP3    H170610   1.453   6.007   0.889  0.4973 -1.1390 -0.2850
16373TIP3    H270611   1.404   6.076   1.014 -0.7845 -0.5835 -1.0810
16374TIP3   OH270612   5.363   5.127  16.258  0.2336  0.1474 -0.0276
16374TIP3    H170613   5.282   5.177  16.247 -1.1197 -1.3825  2.1888
16374TIP3    H270614   5.338   5.036  16.243  2.1733 -0.1825 -1.8676
16375TIP3   OH270615   3.690   4.561   0.442 -0.3605  0.3372 -0.2342
16375TIP3    H170616   3.760   4.624   0.424 -0.6353  0.8557  0.4325
16375TIP3    H270617   3.610   4.609   0.423 -0.5321 -0.5054 -1.7271
16376TIP3   OH270618   0.910   6.464  16.718  0.0330 -0.5326  0.2475
16376TIP3    H170619   0.869   6.549  16.699 -1.3883 -1.2824 -0.1520
16376TIP3    H270620   0.874   6.439  16.803 -1.2931 -1.7216 -0.6138
16377TIP3   OH270621   5.127   0.797   5.330  0.2862 -0.2711  0.3775
16377TIP3    H170622   5.190   0.860   5.295 -0.1529 -0.1052 -0.1146
16377TIP3    H270623   5.042   0.839   5.318  0.1252 -0.1915  1.6773
16378TIP3   OH270624   4.766   5.691  15.352 -0.1730 -0.0516 -0.2228
16378TIP3    H170625   4.695   5.746  15.385 -0.2383  0.3773 -1.0351
16378TIP3    H270626   4.732   5.654  15.270  0.3941 -0.1498 -0.4222
16379TIP3   OH270627   4.134   0.269   4.989  0.6555 -0.1636  0.2852
16379TIP3    H170628   4.087   0.290   5.070  0.1547 -2.7958  0.7856
16379TIP3    H270629   4.152   0.354   4.949 -2.8847  1.1037  1.0115
16380TIP3   OH270630   2.306   5.763   0.778 -0.4797 -0.2537 -0.4001
16380TIP3    H170631   2.289   5.696   0.845 -0.7196 -2.8736 -2.8787
16380TIP3    H270632   2.220   5.798   0.756 -0.8049 -1.5685 -1.3617
16381TIP3   OH270633   0.860   4.246   3.879  0.5983  0.1440  0.1645
16381TIP3    H170634   0.951   4.264   3.856  0.8279  1.3607  1.8891
16381TIP3    H270635   0.828   4.327   3.918 -0.7725 -0.7410  0.9749
16382TIP3   OH270636   0.923   1.928  16.404 -0.3628 -0.7383 -0.1173
16382TIP3    H170637   0.913   1.954  16.496 -0.9269  0.0951 -0.4094
16382TIP3    H270638   0.970   2.000  16.363 -1.5102 -0.3731 -0.8323
16383TIP3   OH270639   6.458   4.159  16.703  0.2256  0.4598  0.4238
16383TIP3    H170640   6.542   4.113  16.715 -1.2308 -2.3137  0.8447
16383TIP3    H270641   6.405   4.132  16.778 -1.3098  1.5250 -0.2333
16384TIP3   OH270642   1.019   5.454  13.265 -0.7233  0.0628 -0.0014
16384TIP3    H170643   1.059   5.454  13.178 -1.0581  0.1435 -0.1567
16384TIP3    H270644   1.012   5.547  13.287  1.2999  0.0265  1.0172
16385TIP3   OH270645   4.799   1.769   3.532  0.7393  0.1534 -0.2100
16385TIP3    H170646   4.801   1.800   3.623 -0.2526  1.8743 -0.7185
16385TIP3    H270647   4.875   1.810   3.492 -1.3107  3.3512 -1.2266
16386TIP3   OH270648   0.317   3.658   3.902 -0.6619  0.1733  0.2800
16386TIP3    H170649   0.347   3.703   3.981  0.4381  1.1628 -0.6525
16386TIP3    H270650   0.366   3.700   3.831 -0.9170 -1.3253 -0.8302
16387TIP3   OH270651   0.343   0.993  12.006  0.0338  0.1719 -0.4084
16387TIP3    H170652   0.389   1.076  12.021 -0.8372  0.6267 -0.1329
16387TIP3    H270653   0.252   1.020  11.990 -0.9798 -0.8773  2.8392
16388TIP3   OH270654   3.863   1.121   4.284  0.8946  0.2213  0.1359
16388TIP3    H170655   3.840   1.036   4.321  0.6213  0.0305 -0.4583
16388TIP3    H270656   3.903   1.101   4.199  1.3391  0.6573  0.2330
16389TIP3   OH270657   3.538   3.562   1.121  0.0934  0.0575 -0.1696
16389TIP3    H170658   3.490   3.489   1.081  0.9626  0.6955 -2.5131
16389TIP3    H270659   3.625   3.526   1.140 -0.2100 -0.1458  0.8901
16390TIP3   OH270660   0.776   5.317  15.568 -0.1109  0.5736 -0.0081
16390TIP3    H170661   0.813   5.351  15.650  1.1881  0.4917 -0.5396
16390TIP3    H270662   0.692   5.279  15.594  0.9337 -0.8200  1.5734
16391TIP3   OH270663   6.141   5.230   5.037 -0.2864  0.3380 -0.2647
16391TIP3    H170664   6.186   5.291   5.095 -0.7889  1.4066 -0.9720
16391TIP3    H270665   6.068   5.197   5.089 -0.2462  0.6527 -0.0088
16392TIP3   OH270666   1.304   2.019  14.521 -0.6688  0.1407 -0.2347
16392TIP3    H170667   1.270   2.085  14.461  0.1215  0.7582 -0.0108
16392TIP3    H270668   1.277   1.936  14.483 -0.0995  0.5177 -1.5119
16393TIP3   OH270669   1.597   0.073   3.253  0.0647  0.1257  0.6288
16393TIP3    H170670   1.644  -0.003   3.287  1.5766 -0.4069 -2.2935
16393TIP3    H270671   1.510   0.039   3.231 -1.0111  0.5273  3.7932
16394TIP3   OH270672   5.067   6.461   5.240  0.4844 -0.0688 -0.1344
16394TIP3    H170673   5.111   6.393   5.188 -0.1003  0.1317 -0.9186
16394TIP3    H270674   5.139   6.515   5.274  1.2692 -2.8317  3.2105
16395TIP3   OH270675   0.347   1.882   4.916  0.1338 -0.2698 -0.3202
16395TIP3    H170676   0.355   1.911   5.007 -0.4529  1.6411 -0.8169
16395TIP3    H270677   0.276   1.819   4.917  0.8745 -1.1201  0.7088
16396TIP3   OH270678   1.818   3.767  17.155 -0.7189 -0.9999 -0.0874
16396TIP3    H170679   1.828   3.803  17.067  1.2746 -2.1456 -0.3930
16396TIP3    H270680   1.740   3.713  17.151 -1.5524  0.2262 -0.6829
16397TIP3   OH270681   5.998   5.214   2.852  0.2036 -0.2889  0.5768
16397TIP3    H170682   5.967   5.180   2.936  1.1206 -0.9046  0.6789
16397TIP3    H270683   6.091   5.191   2.850  0.4740  0.7903 -0.0792
16398TIP3   OH270684   1.503   3.619  13.971  0.3925  0.1143 -0.1859
16398TIP3    H170685   1.417   3.612  13.928 -0.0493 -1.5230  0.8643
16398TIP3    H270686   1.543   3.696  13.932 -1.0666  0.2192 -1.5854
16399TIP3   OH270687   6.024   3.924   0.581  0.2772  0.2549 -0.4084
16399TIP3    H170688   6.026   4.016   0.555 -0.6465  0.2169 -0.6519
16399TIP3    H270689   6.007   3.926   0.675  0.6790  0.3375 -0.3361
16400TIP3   OH270690   6.216   5.273  11.456 -0.0244  0.3205 -0.3612
16400TIP3    H170691   6.152   5.294  11.388 -1.3427 -0.5398  0.5594
16400TIP3    H270692   6.186   5.323  11.533 -0.1530 -0.8155  0.3460
16401TIP3   OH270693   0.966   1.563  16.739  0.6697 -0.1410  0.3337
16401TIP3    H170694   0.896   1.621  16.710  0.1118  0.1079  2.0613
16401TIP3    H270695   0.939   1.476  16.710  0.7030  0.2111 -0.8231
16402TIP3   OH270696   6.328   1.248   0.843 -0.6993  0.1780 -0.7308
16402TIP3    H170697   6.302   1.234   0.934  0.5328 -0.1029 -0.3902
16402TIP3    H270698   6.364   1.164   0.815 -1.4910  0.1291 -1.6378
16403TIP3   OH270699   2.742   6.606  12.855  0.5901 -0.1527  0.2304
16403TIP3    H170700   2.727   6.666  12.928  1.3109  0.6686 -0.2791
16403TIP3    H270701   2.661   6.610  12.804  0.1082 -0.6791  0.9411
16404TIP3   OH270702   3.166   3.078  16.174 -0.0583 -0.0217  0.5266
16404TIP3    H170703   3.216   3.044  16.248 -1.1583  0.2339  1.4196
16404TIP3    H270704   3.075   3.075  16.203 -0.5543 -0.2916 -0.9818
16405TIP3   OH270705   0.280   6.470   5.897 -0.5424 -0.1453  0.2932
16405TIP3    H170706   0.361   6.421   5.906 -1.7250 -2.3173 -0.1425
16405TIP3    H270707   0.299   6.537   5.831  0.6011 -1.3212 -0.6079
16406TIP3   OH270708   6.520   1.796   2.211  0.1392 -0.7043  0.5552
16406TIP3    H170709   6.566   1.752   2.283  2.6780  1.5479  0.4985
16406TIP3    H270710   6.547   1.887   2.218 -1.5397  0.0768 -1.7921
16407TIP3   OH270711   0.997   1.346   1.522  0.0384  0.0172 -0.2504
16407TIP3    H170712   1.042   1.262   1.521 -1.1962 -0.6685 -0.6443
16407TIP3    H270713   0.920   1.331   1.578  1.2837  1.7147  2.0921
16408TIP3   OH270714   4.079   2.711   4.116 -0.4428  0.3342 -0.2889
16408TIP3    H170715   4.111   2.687   4.203 -1.3246  0.2901  0.0356
16408TIP3    H270716   4.110   2.800   4.102 -1.2554  0.7739  0.5677
16409TIP3   OH270717   1.794   4.051   3.398  0.4211  0.8734 -0.2409
16409TIP3    H170718   1.700   4.063   3.415 -0.3562 -1.5203 -2.1232
16409TIP3    H270719   1.825   4.137   3.369 -0.6107  2.2617  2.4396
16410TIP3   OH270720   3.005   5.185   1.797  0.1444  0.2373  0.1382
16410TIP3    H170721   3.024   5.211   1.887 -1.9141  0.3083  0.6004
16410TIP3    H270722   2.910   5.177   1.794  0.1073  0.8486 -2.2052
16411TIP3   OH270723   5.418   0.687  13.381 -0.0921  0.8630  0.0935
16411TIP3    H170724   5.478   0.729  13.442  0.5148 -1.0150  0.8926
16411TIP3    H270725   5.358   0.637  13.437  1.9130 -2.8369 -0.6835
16412TIP3   OH270726   1.331   1.739  16.327  0.0096 -0.0563 -0.3674
16412TIP3    H170727   1.252   1.685  16.334  0.3981 -0.5538  0.2134
16412TIP3    H270728   1.337   1.784  16.411  0.8461 -0.7288 -0.0530
16413TIP3   OH270729   3.251   3.003   1.080  0.1309  0.1399  0.6362
16413TIP3    H170730   3.339   2.965   1.073 -0.2705 -0.7646  0.4940
16413TIP3    H270731   3.237   3.045   0.995 -0.6545 -2.0696 -0.3740
16414TIP3   OH270732   1.221   3.712  14.098  0.1875  0.1801 -0.0705
16414TIP3    H170733   1.218   3.616  14.091  0.1457  0.1048  0.8583
16414TIP3    H270734   1.130   3.737  14.117  0.2297  0.3933 -0.1533
16415TIP3   OH270735   3.754   0.727   1.377 -0.4964 -0.0533 -0.1259
16415TIP3    H170736   3.787   0.812   1.349  1.3056 -0.0137  1.9353
16415TIP3    H270737   3.828   0.685   1.421 -1.4432 -2.5574 -0.7568
16416TIP3   OH270738   3.238   0.864  10.815  0.5247 -0.5681 -0.7454
16416TIP3    H170739   3.211   0.772  10.807  1.0033 -0.8996  1.0409
16416TIP3    H270740   3.199   0.907  10.739 -1.8252 -1.7708 -0.3159
16417TIP3   OH270741   6.102   4.040  16.804  0.0456  0.0236  0.0329
16417TIP3    H170742   6.148   4.106  16.855  0.8213  1.2998 -2.2093
16417TIP3    H270743   6.170   3.976  16.781 -0.1302 -0.1243 -0.0741
16418TIP3   OH270744   1.340   6.244   3.178  0.2003 -0.4604  0.2559
16418TIP3    H170745   1.256   6.199   3.181 -0.2298  0.0502 -1.9640
16418TIP3    H270746   1.401   6.178   3.147  0.0073 -0.1197 -0.8980
16419TIP3   OH270747   3.735   2.567  11.891  0.4237  0.0022  0.3963
16419TIP3    H170748   3.809   2.528  11.843 -1.0630 -0.0041 -2.0658
16419TIP3    H270749   3.709   2.500  11.954  0.2506 -1.5542 -1.2476
16420TIP3   OH270750   2.243   5.079  15.312  0.2192  0.6059 -0.1312
16420TIP3    H170751   2.197   4.998  15.333  0.6903  0.3605 -0.0139
16420TIP3    H270752   2.174   5.141  15.290 -0.2035  0.4098  0.5860
16421TIP3   OH270753   0.322   1.900   4.291  0.5462 -0.2818  0.2639
16421TIP3    H170754   0.343   1.807   4.305 -0.0012 -0.2629  1.3658
16421TIP3    H270755   0.379   1.927   4.219  1.4631 -1.2050  0.6119
16422TIP3   OH270756   0.082   1.103  11.918 -0.1424  0.0581  0.0860
16422TIP3    H170757   0.080   1.195  11.944  1.0079  0.2283 -0.3422
16422TIP3    H270758   0.108   1.105  11.826 -1.5595 -0.6482 -0.3589
16423TIP3   OH270759   4.299   2.750   1.591  0.0111 -0.4986  0.5563
16423TIP3    H170760   4.217   2.703   1.575 -1.6832  2.6621 -0.9312
16423TIP3    H270761   4.272   2.831   1.635  2.0023  1.5491 -1.6811
16424TIP3   OH270762   5.984   3.622   1.466 -0.4960  0.4113  0.4763
16424TIP3    H170763   6.046   3.553   1.489 -0.9630 -0.8581 -1.7603
16424TIP3    H270764   6.008   3.696   1.522  1.5540 -0.7769  1.2709
16425TIP3   OH270765   2.631   3.277   5.580  0.1719  0.1795 -0.2489
16425TIP3    H170766   2.643   3.248   5.489 -0.8832  0.2788 -0.4335
16425TIP3    H270767   2.637   3.372   5.575  1.0945  0.1361 -0.0511
16426TIP3   OH270768   3.409   5.930  16.092 -0.1151 -0.0958 -0.6579
16426TIP3    H170769   3.355   5.973  16.158  0.9374 -0.3720  0.4323
16426TIP3    H270770   3.432   6.000  16.031  0.6887  0.6911  0.4959
16427TIP3   OH270771   2.870   0.169  16.269 -0.1105 -0.3955  0.1203
16427TIP3    H170772   2.854   0.264  16.270  1.0754 -0.0970 -2.0502
16427TIP3    H270773   2.791   0.132  16.229  0.1021 -0.0997 -0.6036
16428TIP3   OH270774   6.630   1.867  15.134 -0.1079  0.1698 -0.2895
16428TIP3    H170775   6.669   1.952  15.111 -1.4287  1.0280  0.5143
16428TIP3    H270776   6.695   1.825  15.191 -0.4811  1.7478  1.3754
16429TIP3   OH270777   1.927   6.147  16.751  0.1826 -0.2336 -0.7379
16429TIP3    H170778   1.915   6.087  16.677 -0.6220 -0.6422 -0.2877
16429TIP3    H270779   1.857   6.212  16.739 -0.4643 -0.7524  0.0872
16430TIP3   OH270780   0.847   2.511   0.861  0.2679  0.2183  0.2582
16430TIP3    H170781   0.769   2.465   0.893 -1.0024  0.7320 -1.8897
16430TIP3    H270782   0.855   2.587   0.918  0.1773 -0.6786  1.5112
16431TIP3   OH270783   3.594   4.769   1.082 -0.0677 -0.1192  0.3062
16431TIP3    H170784   3.663   4.733   1.025 -1.3580  0.3474 -1.6778
16431TIP3    H270785   3.630   4.762   1.170  1.8980 -1.2737 -0.5005
16432TIP3   OH270786   6.329   2.197  12.712  0.4905 -0.2234 -0.4752
16432TIP3    H170787   6.354   2.123  12.656  0.1617 -0.6135 -0.1176
16432TIP3    H270788   6.410   2.244  12.727  0.3779  0.7088 -2.4363
16433TIP3   OH270789   5.130   5.632   3.293 -0.1796  0.0368  0.0235
16433TIP3    H170790   5.190   5.700   3.261 -1.0504 -0.0812 -2.0132
16433TIP3    H270791   5.062   5.626   3.225 -0.9185 -1.8544  0.8623
16434TIP3   OH270792   5.743   0.169  11.371  0.1057 -0.0384  0.1883
16434TIP3    H170793   5.749   0.218  11.289  0.3654  0.7541  0.6744
16434TIP3    H270794   5.739   0.236  11.439  1.0254 -0.6900  0.9076
16435TIP3   OH270795   0.722   1.504   3.830  0.0440  0.2155 -0.5868
16435TIP3    H170796   0.775   1.426   3.815  0.0151  0.1920 -0.5680
16435TIP3    H270797   0.650   1.496   3.767 -1.3389 -1.0366  1.0157
16436TIP3   OH270798   4.709   4.101   4.732  0.3474 -0.0903  0.7600
16436TIP3    H170799   4.683   4.193   4.730 -0.4774 -0.3180 -0.8738
16436TIP3    H270800   4.714   4.075   4.640  3.7807 -0.8452  1.0203
16437TIP3   OH270801   2.833   3.877  12.435  0.0958 -0.7882 -0.0765
16437TIP3    H170802   2.885   3.824  12.375 -0.4344  0.1692 -1.4259
16437TIP3    H270803   2.816   3.958  12.388 -1.6378 -0.6028  0.7655
16438TIP3   OH270804   6.120   1.480  17.139 -0.2853 -0.1114 -0.0936
16438TIP3    H170805   6.173   1.410  17.102 -0.2752  1.3911 -3.3266
16438TIP3    H270806   6.143   1.482  17.231  1.7489 -2.5388 -0.4449
16439TIP3   OH270807   0.330   6.244  12.389 -0.2662  0.1759 -0.3479
16439TIP3    H170808   0.372   6.330  12.388 -1.7398  0.9357 -1.5716
16439TIP3    H270809   0.378   6.193  12.324 -0.7484  0.8256 -1.2512
16440TIP3   OH270810   5.431   2.590  17.045  0.3502  0.3345  0.0690
16440TIP3    H170811   5.411   2.683  17.043 -2.0229 -0.0674  1.4051
16440TIP3    H270812   5.496   2.580  17.114 -1.9858  0.6799  2.4771
16441TIP3   OH270813   1.580   6.225  11.638 -0.0324  0.3403 -0.1930
16441TIP3    H170814   1.498   6.188  11.605 -0.0414  0.0482  0.1512
16441TIP3    H270815   1.595   6.181  11.722 -0.6739  1.9887  0.8334
16442TIP3   OH270816   3.875   3.804   3.214 -0.5855  0.1065 -0.2711
16442TIP3    H170817   3.834   3.774   3.133 -0.7464  0.5059 -0.3415
16442TIP3    H270818   3.898   3.895   3.197  3.8375 -1.0248 -1.6149
16443TIP3   OH270819   1.117   4.237  17.267  0.4291 -0.8547  0.5475
16443TIP3    H170820   1.058   4.311  17.254  0.3601 -1.1589 -1.1454
16443TIP3    H270821   1.084   4.193  17.345 -0.3148  0.1456  0.8203
16444TIP3   OH270822   1.040   6.727  16.389 -0.3913  0.0093  0.5803
16444TIP3    H170823   1.014   6.751  16.478 -1.0241 -1.4600  0.8150
16444TIP3    H270824   1.032   6.809  16.339 -2.4096  0.3293  1.3483
16445TIP3   OH270825   1.460   2.856  14.800  0.2321 -0.1227 -0.4670
16445TIP3    H170826   1.396   2.795  14.761 -2.2019  0.5466  2.1321
16445TIP3    H270827   1.508   2.803  14.863 -0.2420  0.1095  0.0989
16446TIP3   OH270828   4.215   0.024   4.828  0.0773 -0.2853 -0.3956
16446TIP3    H170829   4.136  -0.028   4.842  0.9605 -1.3175  1.0796
16446TIP3    H270830   4.184   0.114   4.822 -1.3119 -0.7770 -1.1524
16447TIP3   OH270831   4.938   5.118  13.532 -0.1897  0.1600  0.0890
16447TIP3    H170832   4.869   5.079  13.586  0.4207  1.9532  2.3145
16447TIP3    H270833   4.951   5.055  13.462 -2.3443 -1.4227  0.9820
16448TIP3   OH270834   4.567   0.209   3.191 -0.1735 -0.3160 -0.9594
16448TIP3    H170835   4.533   0.242   3.108  0.6949  0.0311 -1.1890
16448TIP3    H270836   4.568   0.285   3.249  0.1257 -0.3343 -0.9353
16449TIP3   OH270837   3.140   3.057  15.823 -0.3586  0.1567  0.4740
16449TIP3    H170838   3.082   2.983  15.806  0.7075 -1.4440  3.2134
16449TIP3    H270839   3.210   3.047  15.758 -0.9916 -0.3253 -0.1518
16450TIP3   OH270840   5.226   0.317  16.927  0.1261 -0.1647  0.0596
16450TIP3    H170841   5.132   0.329  16.914  0.2297 -1.3263 -2.1573
16450TIP3    H270842   5.266   0.389  16.878  0.4040 -0.4075 -0.0746
16451TIP3   OH270843   2.499   3.415   5.854  0.7993 -0.6193  0.0316
16451TIP3    H170844   2.446   3.344   5.819  0.5641  0.4751 -2.0149
16451TIP3    H270845   2.453   3.443   5.933  0.2206 -1.8860  0.1660
16452TIP3   OH270846   2.355   3.165   5.347  0.1717  0.0874 -0.0735
16452TIP3    H170847   2.445   3.177   5.319  0.4711  1.3033  1.2768
16452TIP3    H270848   2.361   3.120   5.431 -0.4311  0.5330  0.2254
16453TIP3   OH270849   1.792   3.663  14.622  0.5317 -0.4394  0.5752
16453TIP3    H170850   1.717   3.662  14.682  0.4255 -0.5007  0.4398
16453TIP3    H270851   1.758   3.628  14.540  0.1776  1.4568 -0.1318
16454TIP3   OH270852   1.151   5.447   3.003 -0.2200  0.1562  0.2648
16454TIP3    H170853   1.193   5.507   2.942 -1.7700  1.2409  0.2051
16454TIP3    H270854   1.066   5.428   2.964 -0.7084 -0.1961  1.4318
16455TIP3   OH270855   1.146   3.997  13.032  0.3510 -0.2475 -0.4757
16455TIP3    H170856   1.081   3.934  13.002  0.1658 -1.4238  2.1186
16455TIP3    H270857   1.230   3.955  13.016  0.3619  0.0039 -1.1208
16456TIP3   OH270858   0.277   3.313   4.683 -0.0944 -0.1802 -0.3489
16456TIP3    H170859   0.313   3.384   4.736  1.1204 -0.4650 -0.7581
16456TIP3    H270860   0.348   3.250   4.675 -0.8404 -0.9986 -0.8046
16457TIP3   OH270861   5.229   5.056  15.236  0.3419 -0.1528 -0.5713
16457TIP3    H170862   5.221   5.028  15.145 -0.3448 -1.2080 -0.2020
16457TIP3    H270863   5.314   5.099  15.241 -0.1114  1.0084 -1.9794
16458TIP3   OH270864   5.384   0.982  11.212 -0.2214 -0.5420 -0.0599
16458TIP3    H170865   5.349   0.894  11.225 -0.8801 -0.1046  1.2318
16458TIP3    H270866   5.383   1.022  11.298 -1.6430  1.3611 -0.8862
16459TIP3   OH270867   3.761   5.634  12.002 -0.1369  0.2222  0.2812
16459TIP3    H170868   3.824   5.632  12.074 -0.4377  1.0831  0.5796
16459TIP3    H270869   3.778   5.717  11.957 -0.7569  0.2536  0.0957
16460TIP3   OH270870   5.137   1.748   4.479  0.2965 -0.7686  0.2575
16460TIP3    H170871   5.107   1.696   4.554  1.8843 -1.4303  0.4768
16460TIP3    H270872   5.209   1.697   4.442  1.0255  0.6363 -0.3298
16461TIP3   OH270873   2.895   3.095  16.272  0.2922 -0.1450  0.1792
16461TIP3    H170874   2.894   3.066  16.363  0.2762  0.2714  0.3141
16461TIP3    H270875   2.830   3.164  16.268  2.7514  2.4100  0.7342
16462TIP3   OH270876   0.816   2.523   3.208  0.1558 -0.4723  0.6807
16462TIP3    H170877   0.839   2.431   3.221  1.4592 -0.0175  1.9185
16462TIP3    H270878   0.846   2.567   3.288  2.2133  1.4543 -0.9865
16463TIP3   OH270879   3.548   3.415   5.260  0.2047  1.0672 -0.4431
16463TIP3    H170880   3.472   3.472   5.249 -0.5326  0.1109 -0.4718
16463TIP3    H270881   3.551   3.398   5.354 -1.7286 -1.6208 -0.7639
16464TIP3   OH270882   1.347   2.087  17.045 -0.1167 -0.7872  0.3727
16464TIP3    H170883   1.274   2.125  16.997 -1.9260 -2.6317  1.5247
16464TIP3    H270884   1.416   2.154  17.041 -1.5150  0.6403 -1.5031
16465TIP3   OH270885   3.237   5.678  10.990 -0.2817 -0.1079 -0.0356
16465TIP3    H170886   3.154   5.719  10.967  0.4165  1.1015 -0.5312
16465TIP3    H270887   3.234   5.591  10.951 -0.2208  0.9146 -2.4809
16466TIP3   OH270888   0.390   4.469   4.510 -0.0063 -0.3220 -0.0451
16466TIP3    H170889   0.397   4.457   4.416  0.1549  0.5379 -0.1526
16466TIP3    H270890   0.430   4.555   4.527  0.0034 -0.4795  0.8074
16467TIP3   OH270891   0.383   6.706  17.056 -0.1089  0.4695 -0.2856
16467TIP3    H170892   0.327   6.743  16.987 -0.1817  0.4721 -0.2254
16467TIP3    H270893   0.400   6.779  17.115  0.1389  0.5229 -0.4199
16468TIP3   OH270894   2.959   1.254   3.551 -0.5433 -0.3457 -0.4438
16468TIP3    H170895   3.045   1.217   3.571  0.0310  0.6383 -1.0122
16468TIP3    H270896   2.897   1.197   3.597  0.2960 -1.9381 -1.1849
16469TIP3   OH270897   4.144   6.701  14.285 -0.2301 -0.1772 -0.3550
16469TIP3    H170898   4.142   6.644  14.362 -0.4747 -1.2809 -1.1541
16469TIP3    H270899   4.203   6.772  14.310 -0.5617 -0.3375  0.9690
16470TIP3   OH270900   0.956   1.741  12.940  0.1218  0.4546 -0.3796
16470TIP3    H170901   0.882   1.691  12.973  1.1268 -0.4157  0.6431
16470TIP3    H270902   1.003   1.769  13.019  2.5199 -1.5580 -0.9515
16471TIP3   OH270903   1.219   2.449   0.977  0.4171 -0.6765 -0.1098
16471TIP3    H170904   1.189   2.400   0.900  1.2974  0.2629 -1.0763
16471TIP3    H270905   1.145   2.445   1.038 -0.0852 -1.9093 -0.7709
16472TIP3   OH270906   5.974   0.224   4.096  0.4235 -0.0124 -0.0224
16472TIP3    H170907   5.900   0.191   4.045  1.4401 -2.7865  0.1364
16472TIP3    H270908   5.937   0.245   4.181 -0.0294 -2.8041  0.5597
16473TIP3   OH270909   1.232   5.218   4.899  0.5898 -0.1890  0.0363
16473TIP3    H170910   1.310   5.203   4.846  1.3730 -1.3470  1.4257
16473TIP3    H270911   1.219   5.135   4.946 -1.5136 -0.0393 -0.1953
16474TIP3   OH270912   2.393   1.932   2.637 -0.1261  0.3988 -0.2314
16474TIP3    H170913   2.430   1.899   2.718 -0.5050 -2.2672 -1.0550
16474TIP3    H270914   2.443   1.888   2.568 -0.1229  2.2349 -1.4828
16475TIP3   OH270915   2.762   5.356   0.480 -0.2496  0.1327 -0.0165
16475TIP3    H170916   2.753   5.265   0.508  1.0419 -0.0205 -0.0586
16475TIP3    H270917   2.855   5.374   0.488 -0.7338  2.1458  2.1557
16476TIP3   OH270918   3.901   3.228  10.841 -0.0731  0.5395  0.1670
16476TIP3    H170919   3.931   3.146  10.880 -0.8640 -0.3160 -0.9488
16476TIP3    H270920   3.882   3.285  10.915 -1.2991 -0.9330  1.0401
16477TIP3   OH270921   3.953   6.513  12.800 -0.0299  0.1380 -0.3102
16477TIP3    H170922   3.863   6.537  12.779 -0.1380  0.5749  0.5696
16477TIP3    H270923   3.998   6.510  12.716 -0.4424  1.7067 -0.6211
16478TIP3   OH270924   4.406   4.958   1.099  0.2660  0.0740  0.0150
16478TIP3    H170925   4.352   5.034   1.118 -0.8787 -1.0406  1.4745
16478TIP3    H270926   4.344   4.885   1.095  1.4238 -0.9175 -0.5047
16479TIP3   OH270927   4.562   1.072   5.276  0.4603  0.3382 -0.1345
16479TIP3    H170928   4.522   0.996   5.318  1.0594  0.5244  0.8071
16479TIP3    H270929   4.614   1.036   5.205 -0.5337  0.0078 -0.7084
16480TIP3   OH270930   5.947   2.559  11.144  0.1886  0.6303 -0.3460
16480TIP3    H170931   5.997   2.480  11.126  0.0072  0.6745 -1.1023
16480TIP3    H270932   5.872   2.554  11.084 -0.5242  0.7353  0.5136
16481TIP3   OH270933   5.257   5.272   3.288 -0.7802  0.4470  0.2536
16481TIP3    H170934   5.177   5.318   3.262 -2.0311 -0.9068  1.4916
16481TIP3    H270935   5.262   5.285   3.383  0.6122  0.6790  0.1729
16482TIP3   OH270936   5.034   5.702  10.961  0.4458  0.1291  0.3005
16482TIP3    H170937   5.129   5.710  10.949  0.1994  0.8258 -1.4973
16482TIP3    H270938   5.013   5.762  11.032  1.1404  1.3297 -0.4820
16483TIP3   OH270939   3.213   3.027   1.570 -0.3656 -0.2341 -0.4832
16483TIP3    H170940   3.134   3.051   1.617 -0.3450  0.9066 -0.9835
16483TIP3    H270941   3.276   3.003   1.638 -0.5029  0.8476  0.0392
16484TIP3   OH270942   5.941   6.078  16.015  0.7521 -0.2889  0.2540
16484TIP3    H170943   5.923   5.992  15.977  1.9763 -0.5814  0.2657
16484TIP3    H270944   5.855   6.114  16.037  0.2326 -1.6579  0.5602
16485TIP3   OH270945   4.171   0.366  17.228 -0.1329  0.4114  0.3104
16485TIP3    H170946   4.183   0.447  17.179 -0.8569 -0.3493 -1.1784
16485TIP3    H270947   4.121   0.391  17.306 -0.6680  1.3246 -0.3186
16486TIP3   OH270948   4.057   3.570   0.791 -0.3860  0.5247  0.2374
16486TIP3    H170949   4.119   3.629   0.749 -1.2346  0.0614 -1.7647
16486TIP3    H270950   4.017   3.624   0.860 -0.3327  1.9399 -0.7935
16487TIP3   OH270951   6.531   5.776  12.575  0.1210 -0.1019 -0.1936
16487TIP3    H170952   6.436   5.766  12.563  0.0670  1.7907 -1.8779
16487TIP3    H270953   6.543   5.869  12.595  1.6036 -0.4437  0.6940
16488TIP3   OH270954   5.444   6.786  11.320 -0.1230  0.5923  0.2118
16488TIP3    H170955   5.450   6.691  11.317 -0.8086  0.5654 -1.2311
16488TIP3    H270956   5.532   6.816  11.295 -0.7964  0.2749 -2.9467
16489TIP3   OH270957   4.313   2.240  13.711 -0.2896 -0.1596  0.7941
16489TIP3    H170958   4.381   2.178  13.687 -1.4591 -1.6479  1.1921
16489TIP3    H270959   4.231   2.197  13.685 -1.1577  1.0485  1.4417
16490TIP3   OH270960   3.106   1.910   5.518 -0.0852 -0.7344  0.4459
16490TIP3    H170961   3.167   1.924   5.590  0.4350  0.4493 -0.1820
16490TIP3    H270962   3.141   1.964   5.447 -2.1731  0.4638  0.2472
16491TIP3   OH270963   6.693   4.058  17.161 -0.0593  0.2251  0.0838
16491TIP3    H170964   6.736   4.064  17.246  2.8854 -1.5136 -1.1233
16491TIP3    H270965   6.750   4.106  17.102 -2.1144  1.5151 -0.9880
16492TIP3   OH270966   1.096   1.271  14.489  0.1016  0.6136  0.2188
16492TIP3    H170967   1.132   1.235  14.570  2.4872 -1.6165 -1.6644
16492TIP3    H270968   1.169   1.320  14.450 -0.8273  1.1621 -0.8758
16493TIP3   OH270969   1.344   2.416  15.549  0.3375 -0.4267 -0.1361
16493TIP3    H170970   1.293   2.464  15.614  0.4346 -0.6534  0.1073
16493TIP3    H270971   1.283   2.350  15.514  0.2368 -0.2007 -0.3927
16494TIP3   OH270972   4.687   2.657  16.318 -0.8517  0.0974 -0.1943
16494TIP3    H170973   4.782   2.649  16.328 -0.8826  0.4696  0.4619
16494TIP3    H270974   4.667   2.747  16.344 -1.7855 -0.9588  3.4112
16495TIP3   OH270975   2.011   0.774  14.065  0.6101 -0.3009  0.5053
16495TIP3    H170976   2.019   0.832  13.990 -2.0211 -3.6003 -2.6677
16495TIP3    H270977   1.926   0.795  14.103 -0.4217 -2.0050 -0.7492
16496TIP3   OH270978   2.141   4.603  15.416  0.0997 -0.6466  0.3154
16496TIP3    H170979   2.165   4.610  15.509  0.2152  1.3060  0.1808
16496TIP3    H270980   2.046   4.614  15.416  0.3317  2.2346  0.0578
16497TIP3   OH270981   2.693   1.854   3.562 -0.4347  0.2440 -0.0471
16497TIP3    H170982   2.689   1.916   3.489 -0.6883 -0.7080 -0.8597
16497TIP3    H270983   2.751   1.785   3.532 -0.3493 -0.0503  0.7590
16498TIP3   OH270984   5.820   3.709  12.569 -0.0315  0.1729  0.1013
16498TIP3    H170985   5.743   3.666  12.532  0.5831 -1.5680  0.7620
16498TIP3    H270986   5.824   3.793  12.523 -1.4021 -0.3631 -1.0933
16499TIP3   OH270987   6.338   3.247  11.679  0.2162 -0.4960  0.0100
16499TIP3    H170988   6.262   3.302  11.657 -0.6068 -1.1441  1.0979
16499TIP3    H270989   6.342   3.182  11.609 -1.0532 -1.2347  0.5679
16500TIP3   OH270990   4.802   1.843  15.187 -0.2343  0.1936  0.2931
16500TIP3    H170991   4.756   1.833  15.104  0.9576 -0.0813 -0.3550
16500TIP3    H270992   4.806   1.754  15.223 -0.0722  0.1896  0.2662
16501TIP3   OH270993   6.037   4.947  11.789 -0.6815  0.0522 -0.8570
16501TIP3    H170994   6.110   4.885  11.779 -1.3076 -0.4771 -2.4513
16501TIP3    H270995   5.960   4.896  11.765 -1.3839  1.0878 -0.8312
16502TIP3   OH270996   6.754   6.666  11.508 -0.2095 -0.0370 -0.3218
16502TIP3    H170997   6.757   6.666  11.603 -0.3119 -0.7321 -0.3148
16502TIP3    H270998   6.735   6.575  11.484 -0.6102  0.2134 -0.9899
16503TIP3   OH270999   3.418   0.663  12.786 -0.8299  0.4785  0.5083
16503TIP3    H171000   3.395   0.660  12.879  0.8531  0.4807  0.9418
16503TIP3    H271001   3.482   0.733  12.779  0.7206 -0.9423 -0.2483
16504TIP3   OH271002   0.586   4.652  17.089  0.2127  0.0907  0.0763
16504TIP3    H171003   0.527   4.705  17.144 -1.8631  0.5816 -2.4479
16504TIP3    H271004   0.642   4.716  17.046  1.0754 -0.2132  0.7144
16505TIP3   OH271005   1.800   2.070   4.533 -0.2300 -0.1345  0.3906
16505TIP3    H171006   1.871   2.028   4.582 -0.5990 -1.4729 -0.1498
16505TIP3    H271007   1.747   2.114   4.599 -0.4179 -1.4550  1.1728
16506TIP3   OH271008   5.615   1.183  13.852  0.4248 -0.2111  0.2548
16506TIP3    H171009   5.682   1.243  13.818  0.4736 -0.1847  0.3991
16506TIP3    H271010   5.533   1.231  13.839  0.2850 -0.7878 -1.1823
16507TIP3   OH271011   2.934   3.108   1.358 -0.4865 -0.5822  0.3774
16507TIP3    H171012   2.945   3.018   1.387 -0.8895  0.2109  3.3759
16507TIP3    H271013   2.851   3.109   1.310 -0.3124 -1.8330  0.0303
16508TIP3   OH271014   0.236   0.951   1.987 -0.2913 -0.4498 -0.6358
16508TIP3    H171015   0.249   0.859   2.007  0.4203 -0.7254 -2.2494
16508TIP3    H271016   0.268   0.962   1.898 -0.3920  1.3543 -0.5003
16509TIP3   OH271017   1.472   2.705   5.140  0.5459  0.0143  0.3712
16509TIP3    H171018   1.527   2.735   5.069  0.1993 -1.3875 -0.5283
16509TIP3    H271019   1.524   2.639   5.185 -0.3885 -1.3970 -0.5500
16510TIP3   OH271020   1.254   6.593   5.852 -0.2167 -0.1250 -0.2310
16510TIP3    H171021   1.170   6.548   5.863 -0.2104  0.4685  3.1336
16510TIP3    H271022   1.317   6.538   5.897  0.9668  0.1825 -1.4494
16511TIP3   OH271023   1.705   2.779   4.606  0.5365  0.2690 -0.1959
16511TIP3    H171024   1.663   2.693   4.599  1.5101 -0.1552 -1.1397
16511TIP3    H271025   1.791   2.760   4.644  1.2130  0.6541 -1.4793
16512TIP3   OH271026   0.393   3.601  10.881  0.1871  0.5218 -0.2104
16512TIP3    H171027   0.465   3.550  10.843  0.6640 -0.6745  2.0926
16512TIP3    H271028   0.319   3.541  10.881 -0.3236  1.1390 -0.9034
16513TIP3   OH271029   5.637   5.255  16.817 -0.3202  0.0091 -0.3730
16513TIP3    H171030   5.659   5.161  16.821  0.1285  0.1076 -0.4725
16513TIP3    H271031   5.721   5.299  16.825 -0.6540  0.4424  0.9965
16514TIP3   OH271032   4.291   2.123   5.412  0.4094 -0.1337 -0.2743
16514TIP3    H171033   4.287   2.152   5.321  1.3516  0.8098 -0.0359
16514TIP3    H271034   4.259   2.033   5.410 -0.4036  0.1604 -1.3953
16515TIP3   OH271035   5.139   3.496  12.068 -0.2028 -0.6029  0.6432
16515TIP3    H171036   5.076   3.496  11.995  0.2252  0.8689  0.2344
16515TIP3    H271037   5.206   3.433  12.041 -0.0991 -0.1546 -0.2036
16516TIP3   OH271038   4.172   6.398  17.042  0.1990  0.0467 -0.0447
16516TIP3    H171039   4.088   6.397  16.996 -0.5918 -0.5258  1.3797
16516TIP3    H271040   4.187   6.490  17.062  0.2973  0.2429 -0.9429
16517TIP3   OH271041   3.806   1.154  12.624  0.0503 -0.5176  0.0297
16517TIP3    H171042   3.813   1.061  12.601 -0.9399 -0.5599 -0.1638
16517TIP3    H271043   3.808   1.156  12.719  2.1747 -0.5302  0.0250
16518TIP3   OH271044   0.144   0.305  16.801  0.5137  0.0711 -0.2342
16518TIP3    H171045   0.057   0.340  16.824  0.3569  0.0327 -0.7640
16518TIP3    H271046   0.185   0.287  16.886  0.6235  1.5805  0.0586
16519TIP3   OH271047   0.108   5.343  12.277 -0.1345 -0.1665 -0.1815
16519TIP3    H171048   0.038   5.402  12.248 -0.4372 -1.1162 -1.4375
16519TIP3    H271049   0.072   5.300  12.355 -0.5438  0.0990 -0.2174
16520TIP3   OH271050   4.811   2.114   4.217  0.3730  0.1994 -0.0056
16520TIP3    H171051   4.830   2.043   4.279 -0.8365 -1.9140 -1.9227
16520TIP3    H271052   4.739   2.162   4.258  0.8313  0.0044  1.0761
16521TIP3   OH271053   1.677   0.890  16.025  0.1263 -0.0963 -0.2744
16521TIP3    H171054   1.751   0.912  15.968 -0.0826  0.2482 -0.4188
16521TIP3    H271055   1.600   0.896  15.968  0.0440 -1.0470 -0.2676
16522TIP3   OH271056   5.287   4.120   0.684  0.3744 -0.8142  1.0733
16522TIP3    H171057   5.365   4.086   0.726 -0.3648 -3.3183  0.5577
16522TIP3    H271058   5.302   4.105   0.590 -0.0598  0.1697  0.8338
16523TIP3   OH271059   4.738   0.593   1.270  0.6707  0.5535  0.3681
16523TIP3    H171060   4.777   0.663   1.322 -1.0571  1.0122  1.1228
16523TIP3    H271061   4.731   0.519   1.330  2.6390 -0.3764 -0.4713
16524TIP3   OH271062   1.249   5.219   0.913 -0.6638  0.2682  0.5556
16524TIP3    H171063   1.327   5.228   0.968  1.8030  0.3877 -2.6340
16524TIP3    H271064   1.266   5.141   0.860 -1.8378  1.2933 -1.4549
16525TIP3   OH271065   1.844   4.058  13.558  0.2357 -0.4109 -0.0103
16525TIP3    H171066   1.780   3.994  13.588  0.0792 -0.6419 -0.8159
16525TIP3    H271067   1.791   4.133  13.531  0.3092 -0.5285 -0.4949
16526TIP3   OH271068   4.406   6.227  17.090  0.2407  0.0173  0.0007
16526TIP3    H171069   4.363   6.299  17.045 -1.3394 -1.2075 -0.5432
16526TIP3    H271070   4.443   6.266  17.169  0.3859  1.6081 -0.8137
16527TIP3   OH271071   3.451   2.104  12.745  0.1699 -0.3766 -0.2368
16527TIP3    H171072   3.477   2.196  12.751 -0.4024 -0.2491  0.2861
16527TIP3    H271073   3.356   2.106  12.738  0.1334 -0.9462  0.0713
16528TIP3   OH271074   1.109   2.129  16.865 -0.0954 -0.2030 -0.5688
16528TIP3    H171075   1.013   2.124  16.871 -0.3732  2.2747 -1.7436
16528TIP3    H271076   1.133   2.056  16.808 -1.1653 -1.3702  0.4193
16529TIP3   OH271077   2.536   1.476   3.410 -0.4133  0.0833  0.1774
16529TIP3    H171078   2.522   1.442   3.498 -2.4554  3.0136  1.1359
16529TIP3    H271079   2.449   1.500   3.379  0.3739  0.0719 -2.2660
16530TIP3   OH271080   6.687   3.195  13.042  0.0397  0.5551 -0.0791
16530TIP3    H171081   6.630   3.264  13.008 -1.3646  0.0648  1.1278
16530TIP3    H271082   6.760   3.241  13.083 -0.0790  1.2569 -0.6534
16531TIP3   OH271083   0.624   3.661  13.506 -0.0238 -0.7025 -0.4236
16531TIP3    H171084   0.666   3.585  13.546 -0.3628 -0.7692 -0.1885
16531TIP3    H271085   0.697   3.719  13.482  0.2384 -1.1233 -0.6584
16532TIP3   OH271086   3.695   2.446   5.161  0.3909 -0.1841 -0.6188
16532TIP3    H171087   3.780   2.402   5.155  1.0579  0.4293  2.6023
16532TIP3    H271088   3.716   2.539   5.164 -0.5816  0.0900 -1.4445
16533TIP3   OH271089   3.149   6.535  14.895 -0.3918 -0.0240 -0.1234
16533TIP3    H171090   3.125   6.449  14.862  0.6099 -0.6192  0.6508
16533TIP3    H271091   3.146   6.592  14.818 -0.1131 -0.9539 -0.8319
16534TIP3   OH271092   5.888   0.356  11.943 -0.5588 -0.0882 -0.0965
16534TIP3    H171093   5.895   0.362  11.848 -1.1385 -0.6854 -0.1861
16534TIP3    H271094   5.818   0.417  11.966 -0.4133  0.0624 -0.0472
16535TIP3   OH271095   5.378   2.619  15.054 -0.3708  0.2623  0.5562
16535TIP3    H171096   5.308   2.585  14.999 -0.3116  1.2578 -0.1738
16535TIP3    H271097   5.333   2.653  15.132 -0.6916  0.7168  0.1802
16536TIP3   OH271098   5.070   1.539   1.634 -0.5193 -0.2447 -0.2356
16536TIP3    H171099   5.028   1.618   1.599  0.2996  0.4870  0.3742
16536TIP3    H271100   5.073   1.478   1.560  1.7346  1.4788 -1.7075
16537TIP3   OH271101   1.144   5.045   5.590 -0.4981  0.0359  0.0799
16537TIP3    H171102   1.093   4.975   5.550  0.0117 -0.7472  0.7701
16537TIP3    H271103   1.086   5.121   5.588 -1.0787 -0.4122 -0.6376
16538TIP3   OH271104   0.664   5.676  15.898  0.2631  0.7184  0.1088
16538TIP3    H171105   0.666   5.664  15.993  0.9731  1.7213  0.2336
16538TIP3    H271106   0.736   5.622  15.866  0.4865  0.9560  0.2100
16539TIP3   OH271107   4.852   6.289   4.642 -0.0025 -0.0071 -0.1123
16539TIP3    H171108   4.911   6.217   4.622  1.1843  0.4633  1.3989
16539TIP3    H271109   4.764   6.254   4.630  0.5691 -1.1348 -1.1499
16540TIP3   OH271110   3.271   3.401  14.803  0.0539  0.1386  0.2882
16540TIP3    H171111   3.347   3.373  14.855 -1.2277  0.7319  2.5684
16540TIP3    H271112   3.294   3.488  14.772  1.5116 -0.8485 -1.6757
16541TIP3   OH271113   5.517   6.003  13.808 -0.3555  0.2022  0.5802
16541TIP3    H171114   5.464   6.064  13.860 -1.0464 -0.8012  1.0884
16541TIP3    H271115   5.492   6.021  13.717 -1.0948  0.1854  0.7726
16542TIP3   OH271116   5.721   4.999  15.027  0.5306 -0.8407  0.6019
16542TIP3    H171117   5.711   5.047  15.109 -0.7115 -0.2195  0.1089
16542TIP3    H271118   5.689   4.911  15.047 -1.2857 -0.2715  0.4159
16543TIP3   OH271119   5.345   4.174  11.166 -0.0252  0.5099  0.1630
16543TIP3    H171120   5.393   4.198  11.246 -0.9978  1.3609  0.5139
16543TIP3    H271121   5.413   4.168  11.099  0.9912 -1.4172  1.2697
16544TIP3   OH271122   5.441   5.289  14.106  0.4523 -0.4533 -0.4890
16544TIP3    H171123   5.448   5.196  14.084 -0.3070 -0.3859 -1.0608
16544TIP3    H271124   5.347   5.307  14.105  0.6752  0.8068 -2.4886
16545TIP3   OH271125   2.484   1.273   0.095  0.1107  0.5340 -0.4876
16545TIP3    H171126   2.552   1.338   0.110 -0.7890  1.7480 -1.4327
16545TIP3    H271127   2.529   1.201   0.050  1.1064  0.4848  0.5405
16546TIP3   OH271128   4.061   1.709   0.925  0.3257 -0.3540 -0.3614
16546TIP3    H171129   4.017   1.720   0.841  2.6078 -1.4090 -1.8014
16546TIP3    H271130   4.067   1.797   0.961 -1.8687 -0.0383 -0.5956
16547TIP3   OH271131   4.817   6.211  12.174  0.4570 -0.6095  0.2978
16547TIP3    H171132   4.730   6.181  12.151  1.2049 -2.3352 -0.4187
16547TIP3    H271133   4.832   6.176  12.262 -0.0256  0.7793  0.9715
16548TIP3   OH271134   0.568   5.818   5.660 -0.0358  0.4167  0.1626
16548TIP3    H171135   0.565   5.771   5.744 -0.5533 -1.0019 -0.6256
16548TIP3    H271136   0.630   5.890   5.676  1.7548 -1.2150  1.0634
16549TIP3   OH271137   4.063   1.428  16.108  0.0393 -0.3198 -0.3036
16549TIP3    H171138   4.153   1.454  16.090  0.6400 -1.1083  1.3418
16549TIP3    H271139   4.048   1.453  16.199 -1.6427  0.3883 -0.7270
16550TIP3   OH271140   1.429   2.009   3.638  0.7138 -0.4327  0.1465
16550TIP3    H171141   1.351   2.040   3.683  0.4078  0.4377 -0.9442
16550TIP3    H271142   1.502   2.052   3.684  0.5236 -0.6842  0.7010
16551TIP3   OH271143   0.028   1.952   0.104 -0.1433  0.4752 -0.1920
16551TIP3    H171144  -0.063   1.981   0.099 -0.4092 -0.4628 -0.9642
16551TIP3    H271145   0.025   1.870   0.154  0.0785 -0.3132 -1.4290
16552TIP3   OH271146   2.395   0.912   3.049 -0.2124 -0.6355  0.4649
16552TIP3    H171147   2.381   0.941   3.139  1.8152 -0.9563  0.9517
16552TIP3    H271148   2.311   0.877   3.021 -1.4995  1.5149  1.4347
16553TIP3   OH271149   5.378   4.055   0.436  0.1186  0.0885 -0.5531
16553TIP3    H171150   5.426   3.988   0.387  0.1689  0.3152 -0.8164
16553TIP3    H271151   5.302   4.074   0.381 -0.4324 -0.4720 -0.0061
16554TIP3   OH271152   0.687   3.588  17.007  0.4534 -0.2858  0.4597
16554TIP3    H171153   0.740   3.525  17.056 -0.3780 -0.4850  1.1169
16554TIP3    H271154   0.725   3.673  17.029  1.0801 -0.4822  0.1902
16555TIP3   OH271155   1.320   0.985   0.501  0.4369  0.1574 -0.1179
16555TIP3    H171156   1.228   1.006   0.487 -0.1386 -2.3322 -0.6439
16555TIP3    H271157   1.367   1.067   0.485 -1.1925  0.4263 -5.3771
16556TIP3   OH271158   1.959   6.321  14.581  0.1346  0.3962 -0.3224
16556TIP3    H171159   1.872   6.307  14.543 -0.0746  1.1169 -0.1255
16556TIP3    H271160   2.009   6.244  14.554 -0.5482 -0.0065 -0.4766
16557TIP3   OH271161   1.774   0.683  13.708  0.9313 -0.7418  0.0059
16557TIP3    H171162   1.723   0.760  13.730  1.7869  0.0244 -0.6251
16557TIP3    H271163   1.797   0.644  13.792 -1.1088 -1.4294  0.3166
16558TIP3   OH271164   6.205   3.325  11.423  0.0349 -0.5347  0.1162
16558TIP3    H171165   6.228   3.241  11.463  0.5789 -0.6886 -0.5103
16558TIP3    H271166   6.180   3.302  11.333  0.3788 -0.0022 -0.1148
16559TIP3   OH271167   2.953   5.616  16.708 -0.5908  0.6548  0.1384
16559TIP3    H171168   2.908   5.666  16.777  0.6855 -0.3426  1.7740
16559TIP3    H271169   2.883   5.567  16.664 -1.2795 -0.0579  1.9334
16560TIP3   OH271170   6.659   3.504   5.787  0.0558  1.0446  0.0188
16560TIP3    H171171   6.597   3.442   5.751  0.2483  0.7486  0.1908
16560TIP3    H271172   6.684   3.467   5.872  0.0759  1.4185  0.1770
16561TIP3   OH271173   5.650   3.061  12.632  0.0121 -0.2641  0.4109
16561TIP3    H171174   5.584   3.064  12.702  0.0506 -1.0091  0.4918
16561TIP3    H271175   5.598   3.048  12.552  0.1156 -2.8409  0.6755
16562TIP3   OH271176   3.692   5.366   6.082 -0.3200  0.0605 -0.0276
16562TIP3    H171177   3.736   5.367   5.997 -0.9189 -2.2900 -0.4466
16562TIP3    H271178   3.764   5.368   6.145  0.1418  1.5702 -0.5445
16563TIP3   OH271179   5.062   1.544  15.885 -0.0408 -0.6623  0.1168
16563TIP3    H171180   5.048   1.614  15.821  0.0041 -1.9124 -1.2849
16563TIP3    H271181   4.975   1.532  15.925 -0.3503 -0.6892 -0.5506
16564TIP3   OH271182   0.479   5.945   0.776  0.0209  0.3718 -0.1673
16564TIP3    H171183   0.423   5.883   0.731  0.6867 -0.2881 -0.1132
16564TIP3    H271184   0.444   5.949   0.865  1.8086 -2.3817  0.7804
16565TIP3   OH271185   0.731   1.088  15.331  0.2734 -0.3795  0.3575
16565TIP3    H171186   0.643   1.102  15.296  0.0412 -0.3381  0.9392
16565TIP3    H271187   0.753   1.170  15.375  0.1152 -0.7887  1.2291
16566TIP3   OH271188   1.342   0.891  16.635 -1.0015  0.0838 -0.3394
16566TIP3    H171189   1.397   0.820  16.604 -1.1887  0.0602 -0.6157
16566TIP3    H271190   1.256   0.852  16.648 -0.8239 -0.0143  0.6408
16567TIP3   OH271191   2.379   4.380   2.154  0.3316  0.3848  0.6963
16567TIP3    H171192   2.295   4.374   2.108  0.7655  0.2699 -0.1032
16567TIP3    H271193   2.360   4.349   2.243 -0.6577  1.1943  0.7869
16568TIP3   OH271194   6.369   2.361  12.959  1.2156  0.1382 -0.0859
16568TIP3    H171195   6.417   2.355  12.877 -0.0986 -1.6680 -0.7878
16568TIP3    H271196   6.279   2.335  12.936  0.6782  0.1817  1.8087
16569TIP3   OH271197   1.515   6.677  14.789  0.4241  0.3573 -0.2568
16569TIP3    H171198   1.439   6.734  14.794  1.1399  1.3625 -0.5623
16569TIP3    H271199   1.547   6.671  14.879  0.0095 -0.0497 -0.1324
16570TIP3   OH271200   0.615   0.659   6.749 -0.5631  0.1370  0.5729
16570TIP3    H171201   0.557   0.690   6.819  0.6259 -1.8118  2.5610
16570TIP3    H271202   0.557   0.610   6.690 -1.7618  2.6493 -0.4744
16571TIP3   OH271203   0.862   6.170   1.588 -0.1091  0.0772 -0.2619
16571TIP3    H171204   0.903   6.243   1.634  0.3123  1.2688 -2.3885
16571TIP3    H271205   0.936   6.121   1.551 -0.4551 -0.3318 -0.4240
16572TIP3   OH271206   2.853   1.372   4.225  0.0535 -0.3337  0.7209
16572TIP3    H171207   2.822   1.458   4.255 -1.6006 -0.8040  0.4446
16572TIP3    H271208   2.864   1.383   4.130 -1.2987 -0.7284  0.5003
16573TIP3   OH271209   6.002   4.492   3.320  0.2989  0.6226  0.2282
16573TIP3    H171210   5.921   4.442   3.312  1.5462 -1.6439  0.7617
16573TIP3    H271211   6.032   4.503   3.229 -0.2151  0.7638  0.0769
16574TIP3   OH271212   5.152   3.390  14.226 -0.0672  0.0390 -0.7867
16574TIP3    H171213   5.139   3.460  14.162 -0.4157 -0.3865 -1.1877
16574TIP3    H271214   5.130   3.431  14.310  3.1706  1.4858 -0.4808
16575TIP3   OH271215   6.365   3.757  13.562  0.2756  0.1465 -0.0020
16575TIP3    H171216   6.318   3.838  13.543 -2.0415 -1.4730 -1.8087
16575TIP3    H271217   6.436   3.755  13.499  0.5481  0.9164  0.2740
16576TIP3   OH271218   2.826   1.195   1.920  0.0772  0.2597  0.0489
16576TIP3    H171219   2.914   1.182   1.956 -0.3574  0.0762  1.0715
16576TIP3    H271220   2.791   1.270   1.968  0.5894  2.0206 -2.1362
16577TIP3   OH271221   5.965   2.621  13.884  0.1232  0.3778  0.2612
16577TIP3    H171222   5.874   2.651  13.879  1.1464  3.7251 -1.1661
16577TIP3    H271223   5.991   2.638  13.974  0.0248  1.8962  0.0248
16578TIP3   OH271224   5.000   6.091   0.872 -0.7083  0.4491 -0.4693
16578TIP3    H171225   4.931   6.028   0.851 -1.2939  0.6893  0.6504
16578TIP3    H271226   5.074   6.064   0.818 -1.7320  0.3095 -1.8546
16579TIP3   OH271227   1.120   5.735  14.901 -0.8571  0.0515 -0.5861
16579TIP3    H171228   1.205   5.715  14.941 -2.1473  0.9006  2.9354
16579TIP3    H271229   1.135   5.815  14.851  0.3275  0.5641  0.5364
16580TIP3   OH271230   1.660   4.959  14.802  0.0180 -0.2174 -1.0512
16580TIP3    H171231   1.685   4.902  14.875  0.9920 -0.7968 -1.8183
16580TIP3    H271232   1.719   4.934  14.731  0.4905  1.7843 -1.4077
16581TIP3   OH271233   6.435   0.301   1.690 -0.4799 -0.5871 -0.0897
16581TIP3    H171234   6.423   0.361   1.764 -0.9552 -0.4339 -0.2864
16581TIP3    H271235   6.367   0.235   1.701 -0.2787 -0.8082 -0.1564
16582TIP3   OH271236   3.379   4.940  15.594  0.3256  0.6976 -0.5649
16582TIP3    H171237   3.425   4.937  15.510 -0.6858 -0.0636 -1.1156
16582TIP3    H271238   3.288   4.916  15.572 -0.3386  2.1114  0.4808
16583TIP3   OH271239   4.739   4.134   2.004  0.5678  0.3072  0.1339
16583TIP3    H171240   4.739   4.230   1.995  1.3343  0.5524  2.1563
16583TIP3    H271241   4.810   4.105   1.948  0.8372  1.0206  0.0855
16584TIP3   OH271242   3.188   1.682   0.695  0.3442 -0.1827  0.4032
16584TIP3    H171243   3.242   1.755   0.663 -0.8299 -0.3495 -2.2725
16584TIP3    H271244   3.132   1.659   0.620 -1.0688 -2.2185  1.9602
16585TIP3   OH271245   6.614   6.278  16.261 -0.2369  0.2221  0.2343
16585TIP3    H171246   6.533   6.229  16.246  0.6829 -0.7836 -1.8736
16585TIP3    H271247   6.671   6.251  16.189  0.9425  3.1112 -0.0156
16586TIP3   OH271248   3.243   4.040  15.870  0.1213  0.1520 -0.0803
16586TIP3    H171249   3.225   4.066  15.780 -0.1388  3.3573  0.7594
16586TIP3    H271250   3.212   4.114  15.923  1.5607 -0.9697  2.5364
16587TIP3   OH271251   4.800   4.491   4.110 -0.3885 -0.4399  0.0908
16587TIP3    H171252   4.711   4.525   4.103 -0.3398 -0.4109 -0.4176
16587TIP3    H271253   4.795   4.424   4.178 -1.2141 -1.7889 -1.2389
16588TIP3   OH271254   2.402   0.286   4.220  0.1638  0.0767  0.7493
16588TIP3    H171255   2.338   0.317   4.284 -1.7375 -1.8904 -0.0839
16588TIP3    H271256   2.350   0.246   4.151  2.2907 -1.7277  0.0764
16589TIP3   OH271257   5.492   0.640  10.505  0.3543  0.1171 -0.2843
16589TIP3    H171258   5.427   0.584  10.464  0.8393 -1.0572  0.5229
16589TIP3    H271259   5.449   0.725  10.513 -0.8545 -0.4818 -0.3182
16590TIP3   OH271260   0.688   6.495  15.050 -0.0092  0.8787  0.1227
16590TIP3    H171261   0.643   6.513  15.133  0.9347  0.7998  0.6747
16590TIP3    H271262   0.727   6.408  15.063 -0.3664  0.6043 -0.6357
16591TIP3   OH271263   1.601   0.695   5.799  0.0465 -0.3771  0.3627
16591TIP3    H171264   1.557   0.646   5.730 -0.6175  0.0536  0.4709
16591TIP3    H271265   1.680   0.645   5.817 -0.0981 -0.8414 -0.2563
16592TIP3   OH271266   3.855   5.788   3.202  0.8426  0.1572 -0.0331
16592TIP3    H171267   3.860   5.728   3.276 -0.4162  1.1713  0.9322
16592TIP3    H271268   3.790   5.748   3.144 -0.9497  1.1232  1.2068
16593TIP3   OH271269   6.782   2.492  13.448  0.4073 -0.1786  0.1241
16593TIP3    H171270   6.860   2.491  13.392 -0.4604 -0.3143 -1.1010
16593TIP3    H271271   6.760   2.584  13.457  1.0557 -0.0931  0.9953
16594TIP3   OH271272   3.368   2.282   5.752 -0.0683 -0.4639  0.0519
16594TIP3    H171273   3.351   2.236   5.835 -0.0328 -1.4356 -0.4675
16594TIP3    H271274   3.458   2.313   5.759  0.0541 -0.8609  0.2264
16595TIP3   OH271275   3.222   1.320   0.459 -0.3679  0.0407  0.8166
16595TIP3    H171276   3.285   1.390   0.475  0.1200 -0.4921  1.2841
16595TIP3    H271277   3.273   1.250   0.418 -0.6605 -0.3613  1.1192
16596TIP3   OH271278   1.779   3.539   3.180 -0.8468  0.0712 -0.5211
16596TIP3    H171279   1.804   3.610   3.121  1.1367  0.5886  0.8709
16596TIP3    H271280   1.808   3.460   3.134  0.0141  0.4133 -0.5815
16597TIP3   OH271281   3.096   6.015   4.425  0.2375 -0.1575  0.3458
16597TIP3    H171282   3.082   6.055   4.340  0.7749 -0.7009 -0.0104
16597TIP3    H271283   3.060   6.077   4.488 -0.1210  0.2677 -0.2741
16598TIP3   OH271284   4.544   0.694   5.122  0.1016 -0.1073 -0.2500
16598TIP3    H171285   4.601   0.770   5.135 -1.9090  1.1790  2.0495
16598TIP3    H271286   4.488   0.718   5.049 -0.1960  0.4384  0.1487
16599TIP3   OH271287   4.579   5.707  16.947  0.4858  0.1288  0.4304
16599TIP3    H171288   4.598   5.684  16.856  0.2356 -2.2833  0.8999
16599TIP3    H271289   4.488   5.679  16.961  0.1821  1.4079  1.1620
16600TIP3   OH271290   0.273   3.520  14.149  0.3870 -0.2938  0.3787
16600TIP3    H171291   0.262   3.447  14.210 -0.8123  0.3474  0.9703
16600TIP3    H271292   0.188   3.565  14.150  0.1919 -0.4821 -2.0722
16601TIP3   OH271293   4.126   2.617  17.159  0.2236  0.5184 -0.2776
16601TIP3    H171294   4.067   2.654  17.094  0.6100  0.2802 -0.7665
16601TIP3    H271295   4.206   2.595  17.110 -0.8336 -3.3612 -0.6099
16602TIP3   OH271296   2.117   4.326   3.127  0.1899 -0.1741 -0.2761
16602TIP3    H171297   2.128   4.233   3.106  0.7954  0.1622 -1.5183
16602TIP3    H271298   2.202   4.354   3.161 -0.4730 -0.4499  1.7956
16603TIP3   OH271299   0.217   5.018  14.621  0.0364 -0.2834  0.2889
16603TIP3    H171300   0.312   5.029  14.631  0.1024  3.3879 -2.4344
16603TIP3    H271301   0.207   4.978  14.534 -0.8601  1.4811 -0.4682
16604TIP3   OH271302   5.777   6.600   4.087 -0.1634 -0.0070  0.3262
16604TIP3    H171303   5.797   6.606   4.180 -1.0016 -1.4649  0.6215
16604TIP3    H271304   5.682   6.597   4.083 -0.1151 -1.7901 -0.4152
16605TIP3   OH271305   6.248   6.629  15.865  0.2282  0.1171 -0.2886
16605TIP3    H171306   6.176   6.690  15.882  0.7517  1.0735 -1.3668
16605TIP3    H271307   6.224   6.587  15.783  0.1620 -0.7283  0.1483
16606TIP3   OH271308   0.238   1.234   3.834 -0.5331 -0.2058  0.0849
16606TIP3    H171309   0.185   1.183   3.895 -1.0233  1.5582  1.1854
16606TIP3    H271310   0.174   1.283   3.782 -0.0458  0.6506  0.2765
16607TIP3   OH271311   2.387   3.900  17.275 -0.1205 -0.0963  0.0947
16607TIP3    H171312   2.444   3.921  17.350  0.0136 -1.2881  0.3550
16607TIP3    H271313   2.409   3.966  17.209  1.7059 -0.6081  0.1274
16608TIP3   OH271314   5.485   0.218   0.730  0.3479  0.0839 -0.0913
16608TIP3    H171315   5.452   0.219   0.640 -0.2271  1.5291  0.1137
16608TIP3    H271316   5.564   0.273   0.727  0.7766 -0.5026  0.1427
16609TIP3   OH271317   3.302   6.730   5.626  0.5400 -0.7405  1.0168
16609TIP3    H171318   3.367   6.680   5.676  0.3087 -0.3829  1.6917
16609TIP3    H271319   3.339   6.818   5.620  0.6516 -0.8239  0.3851
16610TIP3   OH271320   4.727   0.228  13.078 -0.0412 -0.4745 -0.7987
16610TIP3    H171321   4.807   0.279  13.095 -0.2309 -0.8211  1.4769
16610TIP3    H271322   4.703   0.251  12.988  2.1567  0.2591 -1.2697
16611TIP3   OH271323   2.255   5.406  14.524  0.0325  0.3322 -0.5735
16611TIP3    H171324   2.250   5.339  14.592  0.8284  1.0096  0.1811
16611TIP3    H271325   2.315   5.371  14.459 -0.4820 -0.1806 -0.7840
16612TIP3   OH271326   1.144   0.277  16.100  0.0707 -0.2126 -0.0989
16612TIP3    H171327   1.089   0.315  16.032  0.2123  0.8930  0.3810
16612TIP3    H271328   1.208   0.223  16.053 -0.1721  0.1013 -0.8000
16613TIP3   OH271329   5.276   3.528   0.384 -0.0881  0.0633  0.4043
16613TIP3    H171330   5.297   3.440   0.417  1.3122  0.3643  0.3882
16613TIP3    H271331   5.356   3.578   0.399 -0.5838  1.1154 -0.3833
16614TIP3   OH271332   2.588   1.028   5.837 -0.2551 -0.8344  0.2849
16614TIP3    H171333   2.605   1.041   5.930 -1.4674 -1.1305  0.5623
16614TIP3    H271334   2.529   1.099   5.813 -0.9734 -1.4848  0.0611
16615TIP3   OH271335   6.217   6.287   6.455 -0.4166  0.8851  0.0152
16615TIP3    H171336   6.231   6.381   6.469 -2.1938  1.1418  0.2425
16615TIP3    H271337   6.305   6.253   6.437  0.6744  2.1476  2.4231
16616TIP3   OH271338   2.072   6.559  13.476 -0.2875  0.7865 -0.0725
16616TIP3    H171339   2.100   6.508  13.552 -0.4103  0.9252  0.0654
16616TIP3    H271340   1.982   6.585  13.496 -0.5115  0.3578 -0.5104
16617TIP3   OH271341   6.760   2.191   0.917 -0.2095 -0.4414  0.2130
16617TIP3    H171342   6.666   2.184   0.936 -0.5304  0.0818 -1.0370
16617TIP3    H271343   6.783   2.105   0.882 -0.4153 -0.3358 -0.1954
16618TIP3   OH271344   1.909   0.795   5.391  0.3059 -0.6807 -0.3561
16618TIP3    H171345   1.983   0.850   5.415 -0.5703  0.0402  0.7812
16618TIP3    H271346   1.854   0.851   5.336 -0.9898 -0.0817  1.4562
16619TIP3   OH271347   6.353   2.383   1.497  0.2265  0.3483 -0.0952
16619TIP3    H171348   6.327   2.354   1.410  1.6848 -1.0398 -0.1173
16619TIP3    H271349   6.304   2.327   1.557  0.5185  0.1049 -0.0773
16620TIP3   OH271350   1.570   3.328  17.100  0.4671 -0.1163  0.1864
16620TIP3    H171351   1.484   3.370  17.098  1.1468  1.3269 -0.2431
16620TIP3    H271352   1.599   3.337  17.191 -0.2176 -1.4585  0.5554
16621TIP3   OH271353   0.292   6.417   2.537  0.0595 -0.0629  0.1306
16621TIP3    H171354   0.307   6.347   2.600 -2.3442 -0.3471  0.4748
16621TIP3    H271355   0.217   6.388   2.486 -1.5418  2.5345  0.7991
16622TIP3   OH271356   3.803   5.826   6.332 -0.5938  0.2798 -0.1211
16622TIP3    H171357   3.711   5.852   6.324 -0.9966  0.2352  2.9740
16622TIP3    H271358   3.800   5.742   6.378  1.0005 -0.2711 -0.9622
16623TIP3   OH271359   0.325   3.700   5.292 -0.3082  0.3579 -0.0128
16623TIP3    H171360   0.398   3.756   5.318  0.0342  0.5823 -1.3965
16623TIP3    H271361   0.341   3.618   5.338  1.9932 -0.3255 -1.8356
16624TIP3   OH271362   4.188   5.111  11.240 -0.6476 -0.7558  0.0107
16624TIP3    H171363   4.187   5.058  11.320  0.7483 -1.5091 -0.4301
16624TIP3    H271364   4.247   5.063  11.181  0.1379  0.9664 -0.6503
16625TIP3   OH271365   4.700   2.503   1.738  0.5752  0.1896  0.0069
16625TIP3    H171366   4.624   2.494   1.795  0.6311  1.7597  0.3758
16625TIP3    H271367   4.667   2.550   1.661  1.0660  0.4928 -0.0246
16626TIP3   OH271368   3.900   0.431   1.617 -0.4928 -0.1334  0.4480
16626TIP3    H171369   3.823   0.419   1.562  0.1236 -0.5448 -0.3456
16626TIP3    H271370   3.870   0.407   1.705 -0.9309 -1.6155 -0.0745
16627TIP3   OH271371   3.202   4.357   0.617 -0.1929 -0.6569  1.0641
16627TIP3    H171372   3.112   4.343   0.588 -0.5178 -1.2828  2.3059
16627TIP3    H271373   3.255   4.315   0.550 -0.8625 -0.9338  0.6988
16628TIP3   OH271374   1.232   6.523   3.239  0.3959  0.3773  0.4762
16628TIP3    H171375   1.263   6.502   3.327  0.6968 -2.8126 -0.2730
16628TIP3    H271376   1.291   6.475   3.181 -0.8807  0.9540 -1.3990
16629TIP3   OH271377   5.001   4.253  12.734 -0.5543 -0.6000  0.0492
16629TIP3    H171378   5.091   4.218  12.731  0.0849  0.9744 -0.2307
16629TIP3    H271379   4.946   4.180  12.704  0.5494 -1.8155  0.8728
16630TIP3   OH271380   3.449   6.270  13.824 -0.1406  0.3235  0.2381
16630TIP3    H171381   3.423   6.178  13.827 -1.7056  0.7262  0.0443
16630TIP3    H271382   3.492   6.280  13.739 -1.8942  0.2045 -0.7128
16631TIP3   OH271383   3.015   5.289  11.814 -0.0485  0.1079  0.0794
16631TIP3    H171384   3.039   5.303  11.723 -0.6080  1.6227  0.1211
16631TIP3    H271385   3.079   5.225  11.847  0.7109  0.2144 -1.1304
16632TIP3   OH271386   5.133   2.612   0.659 -0.3551 -0.4675  0.3694
16632TIP3    H171387   5.043   2.640   0.673 -0.2111  0.3869 -0.2968
16632TIP3    H271388   5.134   2.519   0.682 -1.1191 -0.1954  1.5238
16633TIP3   OH271389   5.718   5.165   3.715 -0.3239 -0.5609  0.1262
16633TIP3    H171390   5.750   5.078   3.690  1.9546 -0.0975  1.1069
16633TIP3    H271391   5.695   5.156   3.807 -0.9002 -0.3273  0.0047
16634TIP3   OH271392   2.850   3.729  14.193  0.1310 -0.1759 -0.4516
16634TIP3    H171393   2.872   3.692  14.279  0.1734  2.4291  0.7614
16634TIP3    H271394   2.778   3.790  14.212 -0.7921 -0.5508 -2.5358
16635TIP3   OH271395   3.345   4.695   3.375 -0.2954  0.3136 -0.8268
16635TIP3    H171396   3.378   4.656   3.294 -1.9827  0.2812 -1.5508
16635TIP3    H271397   3.408   4.763   3.397  2.2146 -2.0597 -0.0803
16636TIP3   OH271398   5.035   1.160   3.882  0.0738 -0.0690 -0.0015
16636TIP3    H171399   4.970   1.107   3.835  0.6932 -1.2905  0.4744
16636TIP3    H271400   5.004   1.161   3.973 -0.3107  1.0136 -0.1282
16637TIP3   OH271401   1.911   0.180  13.475 -0.1343 -0.3125 -0.3486
16637TIP3    H171402   1.896   0.275  13.479  0.0741 -0.3060  0.9046
16637TIP3    H271403   1.854   0.150  13.405 -2.1170  0.4165  0.8563
16638TIP3   OH271404   4.447   2.909   0.685  0.0215 -0.7071 -0.7010
16638TIP3    H171405   4.448   2.993   0.730 -0.8729 -0.0754 -1.7851
16638TIP3    H271406   4.503   2.922   0.609  0.6364 -1.4073 -0.3780
16639TIP3   OH271407   2.740   0.578   3.300  0.2209  0.7450 -0.0245
16639TIP3    H171408   2.795   0.650   3.331  1.6198 -0.6784  0.9742
16639TIP3    H271409   2.712   0.533   3.380  0.4423 -0.5596 -0.6594
16640TIP3   OH271410   0.003   4.173  15.641  0.0707  0.6761  0.5130
16640TIP3    H171411  -0.017   4.138  15.728 -1.5405  2.1841  0.7975
16640TIP3    H271412   0.023   4.096  15.588 -2.7310 -0.6695  1.2527
16641TIP3   OH271413   6.445   0.930   3.328  0.2804 -0.2298  0.6963
16641TIP3    H171414   6.534   0.930   3.293 -0.3899  1.4446 -1.1530
16641TIP3    H271415   6.389   0.908   3.254 -0.8769 -1.4152  1.8615
16642TIP3   OH271416   2.394   1.896  15.219  0.1800 -0.1396 -0.1157
16642TIP3    H171417   2.443   1.977  15.230 -0.7164  0.3512  0.3784
16642TIP3    H271418   2.352   1.904  15.133 -1.0972  0.5918  0.5536
16643TIP3   OH271419   6.263   3.476   4.399 -0.3995  0.6192  0.1617
16643TIP3    H171420   6.236   3.547   4.458 -2.1942  0.6901 -0.6776
16643TIP3    H271421   6.202   3.405   4.417  2.3771 -1.4785  2.1914
16644TIP3   OH271422   5.006   4.229   4.546  0.6038  0.0590  0.7892
16644TIP3    H171423   4.940   4.265   4.605  0.4664 -0.8407  1.1962
16644TIP3    H271424   5.089   4.245   4.590  0.5974  0.4181  0.6787
16645TIP3   OH271425   1.597   3.421   5.430 -0.4041 -0.5870 -0.1924
16645TIP3    H171426   1.648   3.453   5.504  3.6242 -0.8522 -2.5493
16645TIP3    H271427   1.560   3.500   5.390  2.0306  0.2953 -0.8957
16646TIP3   OH271428   5.293   3.039   1.683  0.7571  0.3004  0.0548
16646TIP3    H171429   5.325   3.122   1.647 -0.1296  0.7750  0.3358
16646TIP3    H271430   5.227   3.010   1.620 -0.6068  0.9959  1.1218
16647TIP3   OH271431   4.598   4.023  10.832 -0.0007  0.2186 -0.1938
16647TIP3    H171432   4.556   4.071  10.903 -0.4440  0.6109 -0.7161
16647TIP3    H271433   4.529   3.967  10.797  0.4358 -0.6081  0.2255
16648TIP3   OH271434   6.671   4.961  16.539  0.2704  0.0694  0.4327
16648TIP3    H171435   6.641   4.902  16.608  2.8688 -0.2404  1.3925
16648TIP3    H271436   6.590   4.994  16.499 -1.2829 -1.4782  2.1157
16649TIP3   OH271437   6.611   4.713   3.261 -0.3761  0.0021 -0.0260
16649TIP3    H171438   6.691   4.744   3.303 -0.0754  1.3667 -1.4690
16649TIP3    H271439   6.544   4.715   3.330  0.3304  1.0831  0.6500
16650TIP3   OH271440   4.255   4.895  12.632 -0.1317 -0.2024  0.3540
16650TIP3    H171441   4.298   4.963  12.684  0.7005 -1.3093  1.1714
16650TIP3    H271442   4.171   4.881  12.675 -0.1035 -0.0302  0.4666
16651TIP3   OH271443   4.548   5.510   2.188 -0.2477 -0.0635 -0.3909
16651TIP3    H171444   4.546   5.583   2.128  0.7032  1.0252  0.8464
16651TIP3    H271445   4.628   5.522   2.239  0.4378 -2.4924 -0.7820
16652TIP3   OH271446   4.133   1.068  13.790  0.4065  0.1500 -0.3135
16652TIP3    H171447   4.158   1.161  13.788  0.3547  0.1497 -1.0006
16652TIP3    H271448   4.207   1.025  13.834  1.1459  0.3034 -1.3713
16653TIP3   OH271449   5.783   5.543   0.753  0.6290  0.2412  0.0278
16653TIP3    H171450   5.739   5.462   0.727  0.3313  0.8973 -1.5773
16653TIP3    H271451   5.713   5.599   0.785  0.8696 -0.1923  1.4108
16654TIP3   OH271452   5.448   4.510  11.014 -0.0407  0.6747  0.0852
16654TIP3    H171453   5.507   4.535  11.084 -1.5977  1.1886  1.2843
16654TIP3    H271454   5.467   4.570  10.943  2.0014 -0.2586 -0.2162
16655TIP3   OH271455   6.145   1.412   6.093  0.1900 -0.1729  0.0380
16655TIP3    H171456   6.158   1.414   6.187 -0.4910 -1.4063  0.1752
16655TIP3    H271457   6.180   1.328   6.065 -2.7201 -1.4076 -0.2692
16656TIP3   OH271458   1.789   5.141  13.067 -0.2282  0.9470 -0.2021
16656TIP3    H171459   1.765   5.116  12.978 -0.5185  0.3535  0.0360
16656TIP3    H271460   1.792   5.058  13.115 -1.4410  1.3864  0.6713
16657TIP3   OH271461   3.269   1.288   5.751 -0.2133 -0.3111 -0.6876
16657TIP3    H171462   3.324   1.211   5.763 -0.1536 -0.2451 -0.5389
16657TIP3    H271463   3.230   1.304   5.837  1.5415  1.1775 -0.1125
16658TIP3   OH271464   5.776   6.522   4.861  0.3828  0.6017  0.3902
16658TIP3    H171465   5.728   6.551   4.784  0.6762  3.6822  1.2506
16658TIP3    H271466   5.734   6.440   4.886 -1.3762  0.8434 -1.5396
16659TIP3   OH271467   4.260   0.784   1.780  0.3793 -0.3412 -0.0964
16659TIP3    H171468   4.178   0.765   1.734  0.3759  1.2908 -0.8091
16659TIP3    H271469   4.316   0.824   1.714  1.9329 -1.7709  0.2799
16660TIP3   OH271470   0.841   1.932   2.282 -0.0494 -0.7869  0.2034
16660TIP3    H171471   0.894   1.858   2.312  0.5719 -0.5409 -0.2799
16660TIP3    H271472   0.757   1.892   2.257  0.0425 -1.2315  0.5890
16661TIP3   OH271473   4.009   4.894   0.124 -0.9061 -0.0083  0.0863
16661TIP3    H171474   3.934   4.935   0.167 -0.7893 -0.0508  0.3343
16661TIP3    H271475   4.017   4.808   0.165 -0.4864  0.1447  0.3417
16662TIP3   OH271476   0.302   6.745   5.168  0.0999  0.1211 -0.0346
16662TIP3    H171477   0.306   6.686   5.093 -0.1659 -0.2148  0.2134
16662TIP3    H271478   0.258   6.695   5.236  1.5341 -0.0616  0.7924
16663TIP3   OH271479   0.310   3.848  14.210  0.0987  0.4319  0.7757
16663TIP3    H171480   0.265   3.848  14.295  1.6918  0.8332  1.6527
16663TIP3    H271481   0.387   3.794  14.224  0.4801  0.6719 -0.3684
16664TIP3   OH271482   6.697   4.654   4.361 -0.1394 -0.2703  0.4152
16664TIP3    H171483   6.707   4.733   4.415  0.9830 -0.2927  0.2748
16664TIP3    H271484   6.672   4.586   4.423 -0.6830  0.0987  0.6094
16665TIP3   OH271485   0.521   0.199  16.820 -0.1400 -0.3718  0.0189
16665TIP3    H171486   0.425   0.193  16.824 -0.1477 -0.2316  0.0820
16665TIP3    H271487   0.551   0.121  16.867 -0.2365  0.3277  1.3187
16666TIP3   OH271488   3.250   4.117   1.722  0.1067 -0.7910  0.5026
16666TIP3    H171489   3.235   4.150   1.811 -2.0508 -2.2844  0.7623
16666TIP3    H271490   3.340   4.083   1.725  1.4945  2.5209  0.9419
16667TIP3   OH271491   0.555   5.534   4.346  0.1093 -0.1318 -0.2159
16667TIP3    H171492   0.484   5.485   4.305 -1.0321 -0.4943  2.0382
16667TIP3    H271493   0.633   5.479   4.332 -0.7933 -1.6868  0.5772
16668TIP3   OH271494   5.117   5.164  11.667  0.1498 -0.0527 -0.1112
16668TIP3    H171495   5.194   5.218  11.686  1.1373 -1.2818 -0.4865
16668TIP3    H271496   5.149   5.098  11.605 -1.3283 -0.3081 -0.6377
16669TIP3   OH271497   4.096   4.200  16.965 -0.4544 -0.2771  0.3586
16669TIP3    H171498   4.050   4.133  17.016 -0.6319 -0.7074 -0.3422
16669TIP3    H271499   4.112   4.158  16.880  0.5972  0.1168  0.3436
16670TIP3   OH271500   5.041   4.423   4.302 -0.3799 -0.1221 -0.1371
16670TIP3    H171501   5.083   4.506   4.279 -0.6867  0.3638  0.9856
16670TIP3    H271502   5.072   4.361   4.236 -0.1646  0.8901 -1.0106
16671TIP3   OH271503   2.554   0.141  11.186  0.1742  0.9861  0.4280
16671TIP3    H171504   2.598   0.142  11.101 -0.2828  1.5213  0.1936
16671TIP3    H271505   2.515   0.054  11.193 -1.0046  1.4141 -0.5462
16672TIP3   OH271506   4.230   0.823   2.994  0.1947  0.0287  0.2781
16672TIP3    H171507   4.215   0.910   3.032  0.0623  0.3270 -0.4331
16672TIP3    H271508   4.253   0.841   2.903  0.7176 -0.6598  0.2705
16673TIP3   OH271509   3.488   6.515  16.149 -0.2113 -0.0794 -0.0236
16673TIP3    H171510   3.456   6.598  16.115  2.5816  1.0877 -0.0947
16673TIP3    H271511   3.468   6.451  16.081 -1.1983  0.7824 -0.5611
16674TIP3   OH271512   0.422   1.869  11.241  0.3831 -0.5862  0.0543
16674TIP3    H171513   0.499   1.845  11.293 -0.0676  0.9977  1.5268
16674TIP3    H271514   0.353   1.811  11.273 -0.2317  1.2378  2.2809
16675TIP3   OH271515   6.277   3.108   1.629  0.1485  0.1268  0.2752
16675TIP3    H171516   6.354   3.122   1.683 -0.6805  2.7330  0.9442
16675TIP3    H271517   6.309   3.114   1.539  1.1242 -1.6157  0.4829
16676TIP3   OH271518   0.382   2.070  10.834 -0.4498  0.6031 -0.5171
16676TIP3    H171519   0.445   2.137  10.861 -0.1151 -0.1420  0.6183
16676TIP3    H271520   0.321   2.064  10.907  0.5737 -1.6033  0.2470
16677TIP3   OH271521   4.045   2.519  13.045  0.9267  0.2058  0.5006
16677TIP3    H171522   4.069   2.560  13.128  2.8183 -3.0236  1.7197
16677TIP3    H271523   4.122   2.468  13.021  0.2323  0.5605 -3.0271
16678TIP3   OH271524   0.460   0.355   0.631  0.4409 -0.2346 -0.0302
16678TIP3    H171525   0.540   0.303   0.640  3.1638  3.5555  0.3311
16678TIP3    H271526   0.448   0.363   0.536  0.2183 -1.1093 -0.0878
16679TIP3   OH271527   1.955   2.519  12.172  0.2487  0.0533  0.9352
16679TIP3    H171528   2.029   2.545  12.226 -0.3537  3.2543  0.4251
16679TIP3    H271529   1.955   2.581  12.099 -1.1269 -1.8218 -0.7767
16680TIP3   OH271530   0.601   2.672   5.132 -0.2021 -0.5372 -0.0710
16680TIP3    H171531   0.617   2.580   5.113  0.7484 -0.8027  1.7459
16680TIP3    H271532   0.621   2.680   5.226 -1.3694  1.2748  0.0598
16681TIP3   OH271533   6.103   2.337  12.183  0.1267  0.6348  0.4665
16681TIP3    H171534   6.164   2.410  12.176  0.0315  0.5580 -1.6062
16681TIP3    H271535   6.016   2.376  12.170 -0.2363  0.5872  2.4152
16682TIP3   OH271536   3.338   6.279   0.014  0.9783  0.8110 -0.6986
16682TIP3    H171537   3.271   6.338   0.049 -0.1667 -0.3053 -0.9614
16682TIP3    H271538   3.355   6.217   0.084  0.1577 -0.2004 -1.3678
16683TIP3   OH271539   6.127   1.541   6.496  0.7849  0.2471 -0.1771
16683TIP3    H171540   6.084   1.595   6.430  0.6291  0.5051  0.1321
16683TIP3    H271541   6.132   1.454   6.457  1.3238  0.5476 -0.8103
16684TIP3   OH271542   5.562   6.797  16.355  0.5774  0.0552 -0.4334
16684TIP3    H171543   5.474   6.769  16.329  0.1173  0.7799  0.3074
16684TIP3    H271544   5.548   6.860  16.426  1.7118 -0.1320 -0.0130
16685TIP3   OH271545   1.476   3.214  14.934  0.4978  0.2862 -0.2174
16685TIP3    H171546   1.542   3.163  14.887 -0.0235 -2.4542  1.7670
16685TIP3    H271547   1.395   3.164  14.924 -0.5664  1.8482  0.1459
16686TIP3   OH271548   6.145   3.207  15.888  0.0006 -0.1505  0.0807
16686TIP3    H171549   6.127   3.232  15.798 -1.2346  1.2612  0.6659
16686TIP3    H271550   6.178   3.287  15.929  1.4695 -1.0314  0.6614
16687TIP3   OH271551   3.810   0.775  11.745 -0.3196  0.0891 -0.0123
16687TIP3    H171552   3.813   0.848  11.684  1.4691  0.5412  0.5631
16687TIP3    H271553   3.743   0.800  11.809 -0.9830  0.3846 -0.8069
16688TIP3   OH271554   4.028   6.128   2.033 -0.2543 -0.4847 -0.3195
16688TIP3    H171555   3.937   6.154   2.051 -1.0203 -2.5922 -0.8447
16688TIP3    H271556   4.060   6.097   2.118  0.2178  0.7829 -0.0010
16689TIP3   OH271557   2.984   3.323  16.034  0.0461  0.8293 -0.1225
16689TIP3    H171558   3.012   3.399  15.982 -1.8945  0.6579 -1.5812
16689TIP3    H271559   2.954   3.360  16.117  0.3248  1.5174 -0.3236
16690TIP3   OH271560   5.419   1.739  15.969 -0.1383 -0.2507 -0.0997
16690TIP3    H171561   5.380   1.745  15.882  0.1314  0.9567 -0.1619
16690TIP3    H271562   5.377   1.662  16.009 -2.5883  0.9237 -0.1902
16691TIP3   OH271563   6.172   1.973   5.851 -0.0359 -0.1945 -0.5228
16691TIP3    H171564   6.078   1.974   5.834 -0.3275 -0.8715  0.8631
16691TIP3    H271565   6.196   2.066   5.857 -1.3709  0.0936  2.5567
16692TIP3   OH271566   4.023   4.932   6.195 -0.2858  0.0238  0.5429
16692TIP3    H171567   4.086   4.900   6.131 -0.1515  1.2021  0.0565
16692TIP3    H271568   4.002   4.856   6.249  0.8012 -0.6062  0.0956
16693TIP3   OH271569   2.485   1.586  15.921 -0.7419 -0.1487  0.2874
16693TIP3    H171570   2.432   1.661  15.897 -1.8030 -0.5012  1.4277
16693TIP3    H271571   2.572   1.623  15.940 -0.9261  0.6095 -0.2977
16694TIP3   OH271572   0.167   5.625  12.543 -0.0991  0.0128  0.1827
16694TIP3    H171573   0.221   5.671  12.478  2.1197  0.1911  2.0187
16694TIP3    H271574   0.148   5.692  12.609 -1.2792 -0.4678  0.3490
16695TIP3   OH271575   5.950   4.928  14.706  0.3059  0.2395  0.4647
16695TIP3    H171576   5.921   5.009  14.663 -0.5589  0.7673  1.9394
16695TIP3    H271577   5.969   4.955  14.796 -0.2810 -1.2460  1.0593
16696TIP3   OH271578   4.340   2.898  10.776  0.0027  0.0217  0.3735
16696TIP3    H171579   4.266   2.937  10.728  1.0245  0.0208 -1.2721
16696TIP3    H271580   4.360   2.818  10.727  1.2532  0.1583  0.6489
16697TIP3   OH271581   6.683   1.728  11.950  0.1943  0.0730  0.0154
16697TIP3    H171582   6.595   1.766  11.944  0.5482  0.9311  0.0608
16697TIP3    H271583   6.703   1.700  11.861  0.0638  0.3390 -0.1003
16698TIP3   OH271584   6.605   6.621  17.181 -0.0171  0.4296  0.0161
16698TIP3    H171585   6.519   6.661  17.191 -0.6114 -0.1345 -2.2379
16698TIP3    H271586   6.589   6.545  17.125  2.0139  0.5740 -0.8258
16699TIP3   OH271587   5.966   1.639  16.191 -0.4911  0.5409  0.1477
16699TIP3    H171588   6.049   1.653  16.146 -0.4256  2.2768  0.7272
16699TIP3    H271589   5.908   1.706  16.155 -1.6117 -0.5529 -0.1397
16700TIP3   OH271590   5.825   4.834   4.749 -0.4079  0.9321  0.0853
16700TIP3    H171591   5.835   4.908   4.690 -2.8823  1.6147  0.4014
16700TIP3    H271592   5.851   4.758   4.697 -2.0842  1.5610 -1.7933
16701TIP3   OH271593   0.832   3.424  11.883 -0.2627 -0.0615 -0.1180
16701TIP3    H171594   0.760   3.453  11.826 -2.6780 -2.1647  1.6298
16701TIP3    H271595   0.841   3.495  11.947  0.3039  0.9029 -1.2419
16702TIP3   OH271596   2.060   1.189  12.025  0.0905 -0.2374  0.2168
16702TIP3    H171597   1.993   1.174  12.092 -0.5925  0.9949 -0.1674
16702TIP3    H271598   2.128   1.124  12.044 -0.5692 -0.5847  1.4637
16703TIP3   OH271599   2.040   3.818   4.747  0.1362  0.0992 -0.7031
16703TIP3    H171600   2.015   3.737   4.703 -0.2653 -0.3095  0.2528
16703TIP3    H271601   2.044   3.883   4.677 -2.6466 -0.0289 -1.0942
16704TIP3   OH271602   5.565   0.390   4.583 -0.1701 -0.1388  0.1485
16704TIP3    H171603   5.560   0.430   4.497 -0.7088  0.8770  0.6312
16704TIP3    H271604   5.513   0.447   4.640 -0.2074 -1.0299  1.0578
16705TIP3   OH271605   2.158   4.949  16.866  0.1551 -0.2736 -0.2402
16705TIP3    H171606   2.231   5.002  16.833  1.3327 -0.5862  1.7175
16705TIP3    H271607   2.122   5.001  16.938 -0.3065 -0.9988  0.0628
16706TIP3   OH271608   2.845   2.654   2.562 -0.2724 -0.3210 -1.1492
16706TIP3    H171609   2.796   2.584   2.606 -1.1437  0.1141 -1.4025
16706TIP3    H271610   2.933   2.619   2.552 -0.8985 -1.7428 -2.0245
16707TIP3   OH271611   3.687   6.301  10.798 -0.0305  0.0348  0.1714
16707TIP3    H171612   3.766   6.249  10.788 -1.0772 -1.1459 -3.1278
16707TIP3    H271613   3.631   6.274  10.726 -2.0132  3.4197  0.2491
16708TIP3   OH271614   2.537   0.889  13.797  0.0882  0.2592 -0.7028
16708TIP3    H171615   2.519   0.875  13.890  2.7774  2.6007  0.3320
16708TIP3    H271616   2.599   0.820  13.774 -0.3891 -0.1713 -0.7254
16709TIP3   OH271617   4.564   6.593  11.489 -0.8364 -0.3705 -0.0141
16709TIP3    H171618   4.575   6.503  11.457  0.2622 -0.5673  0.8508
16709TIP3    H271619   4.644   6.638  11.460 -1.8893  0.6629 -1.4380
16710TIP3   OH271620   6.024   4.308  16.682  0.3302 -0.4820  0.3839
16710TIP3    H171621   6.057   4.388  16.723 -0.5844 -0.3502  0.8959
16710TIP3    H271622   5.983   4.260  16.753  1.2662 -1.6467  0.1706
16711TIP3   OH271623   5.790   2.038   1.434 -0.0580 -0.0754 -0.1304
16711TIP3    H171624   5.730   2.052   1.507  1.3703 -2.1659  1.5832
16711TIP3    H271625   5.743   1.979   1.376 -0.4176 -0.1164  0.1951
16712TIP3   OH271626   0.796   1.550  17.135 -0.1359  0.0006  0.2026
16712TIP3    H171627   0.842   1.548  17.219  1.3023  0.2299 -0.5592
16712TIP3    H271628   0.818   1.467  17.093  1.5507  1.0745 -1.1521
16713TIP3   OH271629   6.051   3.843  13.440  0.1550  0.1688  0.1538
16713TIP3    H171630   5.968   3.887  13.458 -0.2875 -0.7612  0.4274
16713TIP3    H271631   6.115   3.892  13.491 -0.1629  1.0762 -0.2883
16714TIP3   OH271632   6.171   0.457  12.244 -0.3776  0.1358 -0.1260
16714TIP3    H171633   6.208   0.477  12.158 -1.4146  0.7523 -0.4507
16714TIP3    H271634   6.095   0.514  12.251 -0.1810  0.2581  1.3040
16715TIP3   OH271635   1.461   1.252   4.157  0.3728  0.3894  0.0628
16715TIP3    H171636   1.379   1.287   4.192 -0.9264 -1.8076 -0.5410
16715TIP3    H271637   1.466   1.163   4.192  1.1587 -0.4285 -1.9724
16716TIP3   OH271638   3.191   2.532  12.831  0.0524 -0.1667  0.0705
16716TIP3    H171639   3.260   2.555  12.770  0.9716 -1.4545  0.5869
16716TIP3    H271640   3.233   2.532  12.917 -1.2891  1.9476  0.8156
16717TIP3   OH271641   3.225   1.785  14.345  0.4485 -0.2666  0.8638
16717TIP3    H171642   3.257   1.870  14.314 -1.0293  0.1339  0.3332
16717TIP3    H271643   3.299   1.746  14.391  2.0066  0.1657 -1.1311
16718TIP3   OH271644   1.084   3.502   1.852 -0.1808 -0.0797  0.2135
16718TIP3    H171645   1.150   3.504   1.921 -0.0683 -1.2560  0.1610
16718TIP3    H271646   1.074   3.409   1.831  0.0806  0.2694 -1.6370
16719TIP3   OH271647   1.542   0.092  11.977 -0.1819  0.1067  0.1567
16719TIP3    H171648   1.460   0.137  12.000 -0.1555  0.3049 -0.1292
16719TIP3    H271649   1.543   0.014  12.033 -0.4210  0.2570  0.3762
16720TIP3   OH271650   6.120   4.225  13.390 -0.2177 -0.0725  0.0065
16720TIP3    H171651   6.072   4.228  13.473 -1.3025  0.5125 -0.6039
16720TIP3    H271652   6.063   4.272  13.329  0.4315 -0.7342 -1.1340
16721TIP3   OH271653   2.540   5.129  12.146  0.1945 -0.4010 -0.7680
16721TIP3    H171654   2.508   5.124  12.056  0.2560 -1.7399 -0.7354
16721TIP3    H271655   2.514   5.046  12.185 -0.6546  0.5346  0.7457
16722TIP3   OH271656   6.071   5.975   4.412 -0.3057 -0.1689  0.1040
16722TIP3    H171657   6.083   5.925   4.492  0.3953 -0.2240 -0.0268
16722TIP3    H271658   6.153   5.964   4.364 -0.5081  0.3118 -0.3694
16723TIP3   OH271659   2.856   2.874   3.748 -0.1579 -0.4067  1.0014
16723TIP3    H171660   2.857   2.790   3.794  1.8484  1.0577  3.9596
16723TIP3    H271661   2.945   2.884   3.713 -0.1644  0.7421  1.2667
16724TIP3   OH271662   2.449   5.944   2.271  0.1173 -0.5742 -0.5030
16724TIP3    H171663   2.435   6.008   2.340  0.2940 -0.8496 -0.2061
16724TIP3    H271664   2.434   5.859   2.313  0.0441 -0.7359 -0.8482
16725TIP3   OH271665   3.883   5.752   3.514 -0.4697  0.5364  0.4399
16725TIP3    H171666   3.812   5.699   3.478  0.4654 -1.2440  1.1178
16725TIP3    H271667   3.916   5.702   3.588 -0.1213  2.5137  1.7072
16726TIP3   OH271668   2.082   5.156  10.721 -0.0859 -0.1990 -0.5194
16726TIP3    H171669   2.150   5.145  10.787 -0.7068 -1.6845 -0.0663
16726TIP3    H271670   2.118   5.116  10.642 -0.0944 -0.1928 -0.5264
16727TIP3   OH271671   0.325   2.528  17.160 -0.0079  0.0793 -0.0265
16727TIP3    H171672   0.357   2.617  17.152  1.4150 -0.2990  1.0118
16727TIP3    H271673   0.287   2.508  17.074  0.2486  1.4498 -0.4807
16728TIP3   OH271674   2.190   0.589   0.860  0.5046  0.1680 -0.3065
16728TIP3    H171675   2.167   0.606   0.769  1.8204 -0.9160 -0.8662
16728TIP3    H271676   2.128   0.522   0.889  1.8500 -1.5939 -1.3264
16729TIP3   OH271677   2.177   1.783  13.123 -0.4063  0.3302 -0.1266
16729TIP3    H171678   2.129   1.865  13.129  0.9791  1.2307 -0.8497
16729TIP3    H271679   2.269   1.807  13.135  0.0528 -1.0705 -0.5967
16730TIP3   OH271680   4.364   5.814  14.904  0.3434  0.1670  0.5640
16730TIP3    H171681   4.368   5.754  14.979  1.2340 -1.3144 -0.5979
16730TIP3    H271682   4.345   5.900  14.943  1.2785 -0.4426  2.5246
16731TIP3   OH271683   2.367   0.802   5.426 -0.1661 -0.2933  0.1747
16731TIP3    H171684   2.421   0.789   5.504  0.1179 -2.4385 -0.3111
16731TIP3    H271685   2.429   0.803   5.353 -0.5321  0.4175 -0.1333
16732TIP3   OH271686   1.703   0.320  14.069  0.0767 -0.1883  0.0607
16732TIP3    H171687   1.766   0.295  14.002 -0.9258  0.1644 -1.0496
16732TIP3    H271688   1.690   0.241  14.121  0.2089 -0.7196 -0.7002
16733TIP3   OH271689   2.906   3.726  13.737  0.0621  0.0208 -0.0565
16733TIP3    H171690   2.968   3.768  13.678 -0.0012  1.3171  0.7531
16733TIP3    H271691   2.820   3.750  13.701 -0.0086 -1.6340 -1.0830
16734TIP3   OH271692   2.294   4.459  13.930 -0.0245  0.0150  0.6734
16734TIP3    H171693   2.314   4.540  13.977 -1.9793  0.0904  1.4646
16734TIP3    H271694   2.202   4.469  13.904  0.8407 -0.1386 -2.9728
16735TIP3   OH271695   0.210   2.692  14.520  0.9561 -0.6330 -0.0073
16735TIP3    H171696   0.216   2.697  14.425  3.0729  0.6726  0.1420
16735TIP3    H271697   0.286   2.639  14.546  0.0608 -1.4922  0.9281
16736TIP3   OH271698   1.392   3.922  15.209  0.2645 -0.4466 -0.0780
16736TIP3    H171699   1.302   3.949  15.227  0.1583 -0.1125 -1.0593
16736TIP3    H271700   1.386   3.828  15.193 -0.0076 -0.3326 -0.6864
16737TIP3   OH271701   2.699   5.562  14.771 -0.3105 -0.0866  0.2259
16737TIP3    H171702   2.766   5.535  14.833  0.5933 -0.0670 -0.7080
16737TIP3    H271703   2.643   5.486  14.761  2.0849 -1.7095 -2.2155
16738TIP3   OH271704   3.672   1.488   1.274  0.2400 -0.3627 -0.1660
16738TIP3    H171705   3.700   1.532   1.194  0.4496 -0.3554 -0.0906
16738TIP3    H271706   3.752   1.482   1.327  0.2112 -0.8463 -0.1802
16739TIP3   OH271707   2.872   4.677  15.644 -0.3117 -0.1662 -0.1360
16739TIP3    H171708   2.876   4.696  15.550 -3.1134 -0.2315 -0.3677
16739TIP3    H271709   2.843   4.586  15.649  1.6393 -0.7809  0.8607
16740TIP3   OH271710   0.010   2.935   0.912 -0.2730  0.2604 -0.0059
16740TIP3    H171711  -0.030   3.002   0.967 -2.2108  0.0431 -1.0620
16740TIP3    H271712   0.090   2.975   0.879  0.1287  0.9536  1.7080
16741TIP3   OH271713   3.386   5.453  14.155 -0.7299 -0.3009  0.4270
16741TIP3    H171714   3.385   5.410  14.069  0.2860  0.4258  0.0314
16741TIP3    H271715   3.380   5.381  14.218  1.2342 -1.1024 -0.2124
16742TIP3   OH271716   1.573   3.754   1.855 -0.5760  0.4993  0.0117
16742TIP3    H171717   1.579   3.696   1.931 -0.6499 -0.3529 -0.6119
16742TIP3    H271718   1.664   3.771   1.831 -0.5534 -0.0939 -0.3386
16743TIP3   OH271719   1.310   6.434   4.719  0.0603 -0.0944 -0.3682
16743TIP3    H171720   1.374   6.372   4.683 -0.2500 -1.9219  1.9798
16743TIP3    H271721   1.360   6.483   4.785 -0.6703 -0.8395  0.7679
16744TIP3   OH271722   3.483   4.564  15.044  0.2739  0.2257  0.1353
16744TIP3    H171723   3.479   4.640  14.986 -2.0473  0.5911  0.6696
16744TIP3    H271724   3.535   4.500  14.997  0.9590  1.5901 -1.0180
16745TIP3   OH271725   4.811   6.184  17.167 -0.1938  0.0150  0.2431
16745TIP3    H171726   4.761   6.204  17.088 -2.0274  2.2587  1.8330
16745TIP3    H271727   4.834   6.270  17.203  0.4571 -0.9235  2.2125
16746TIP3   OH271728   1.330   3.026   0.913 -0.3351 -0.2446  0.0437
16746TIP3    H171729   1.390   2.961   0.949  2.7701  0.6481 -3.0716
16746TIP3    H271730   1.290   2.984   0.837 -2.4845 -0.2232  1.0787
16747TIP3   OH271731   2.392   1.549   4.701  0.2600  0.2840  0.1564
16747TIP3    H171732   2.297   1.559   4.692  0.0885 -0.2184  1.3390
16747TIP3    H271733   2.404   1.474   4.759  1.3724  0.6318  0.4107
16748TIP3   OH271734   2.660   0.362  15.573  0.1547  0.2277  0.2685
16748TIP3    H171735   2.651   0.380  15.480 -0.3609 -0.4207  0.1910
16748TIP3    H271736   2.697   0.443  15.610 -0.7732  0.9214 -0.2947
16749TIP3   OH271737   2.271   4.781   5.103 -0.3657 -0.8221 -0.4481
16749TIP3    H171738   2.203   4.844   5.079 -0.3570 -0.6259  0.0180
16749TIP3    H271739   2.328   4.777   5.027  0.4660  0.8713  0.0189
16750TIP3   OH271740   1.806   2.884   0.583  0.1798  0.7406 -0.0317
16750TIP3    H171741   1.895   2.906   0.611  0.1055  0.6669  0.2656
16750TIP3    H271742   1.788   2.799   0.623  0.2176  0.4506 -0.6356
16751TIP3   OH271743   5.544   5.384  10.514 -0.0975 -0.0844 -0.0857
16751TIP3    H171744   5.451   5.378  10.536 -0.7532 -0.0994 -2.5912
16751TIP3    H271745   5.578   5.297  10.530 -0.8869 -0.4970 -0.5592
16752TIP3   OH271746   2.590   4.636   3.841  0.1607 -0.2897 -0.3714
16752TIP3    H171747   2.683   4.652   3.829  0.1758 -0.6158 -0.7131
16752TIP3    H271748   2.584   4.542   3.859  0.3295  0.3211  4.0523
16753TIP3   OH271749   3.612   0.593  13.371 -0.1152 -0.4710 -0.3326
16753TIP3    H171750   3.643   0.618  13.284 -1.3631  2.3340 -0.0668
16753TIP3    H271751   3.521   0.566  13.358 -0.4511  0.3984  0.1223
16754TIP3   OH271752   2.507   4.798  13.721 -0.0849 -0.1082 -0.6306
16754TIP3    H171753   2.601   4.791  13.739  0.1205 -0.0504 -1.6016
16754TIP3    H271754   2.487   4.890  13.734 -0.0835 -0.1835 -0.0837
16755TIP3   OH271755   0.528   5.615  10.481 -0.4437 -0.2595 -0.2116
16755TIP3    H171756   0.462   5.550  10.459  0.0449 -0.5539 -0.8163
16755TIP3    H271757   0.489   5.699  10.456 -1.3359 -0.2266  1.1621
16756TIP3   OH271758   2.468   0.352  14.448  0.2730 -0.3224 -0.6050
16756TIP3    H171759   2.547   0.321  14.493 -1.0569 -1.4771  1.0922
16756TIP3    H271760   2.478   0.448  14.446  2.3399 -0.5060 -1.7440
16757TIP3   OH271761   0.420   2.030  16.779 -0.2721  0.5446  0.0628
16757TIP3    H171762   0.463   2.110  16.747 -1.1184  0.4269 -1.4585
16757TIP3    H271763   0.452   1.961  16.721  1.0032 -0.4087  1.8037
16758TIP3   OH271764   1.879   1.131  12.841 -0.0801  0.3971  0.2604
16758TIP3    H171765   1.867   1.117  12.747  2.0455  1.0259 -0.1736
16758TIP3    H271766   1.935   1.059  12.869  1.9385  1.8736  0.2974
16759TIP3   OH271767   0.269   6.400   2.871 -0.3335 -0.4286  0.0998
16759TIP3    H171768   0.336   6.358   2.926  1.1462  1.8639  0.1516
16759TIP3    H271769   0.308   6.483   2.844 -2.1055 -0.2494 -2.1938
16760TIP3   OH271770   5.830   4.002   1.630 -0.4149 -0.0218 -0.1134
16760TIP3    H171771   5.835   3.951   1.550  3.4311 -0.1370  0.0211
16760TIP3    H271772   5.869   3.946   1.698  1.7831  2.0674  0.5130
16761TIP3   OH271773   1.249   3.675   4.994 -0.2051 -0.2016  0.0458
16761TIP3    H171774   1.253   3.711   5.082  0.5872  0.0167 -0.0708
16761TIP3    H271775   1.302   3.735   4.941 -1.9997  0.5925 -0.9212
16762TIP3   OH271776   1.814   4.101   0.387 -0.1101 -0.2323  0.4093
16762TIP3    H171777   1.899   4.065   0.412  0.3760 -0.5020 -1.4448
16762TIP3    H271778   1.762   4.099   0.467  1.2286 -1.2175  1.2968
16763TIP3   OH271779   3.946   2.658   5.237  0.4389 -0.1229  0.3974
16763TIP3    H171780   4.036   2.685   5.256  1.1944 -0.9979 -1.6709
16763TIP3    H271781   3.955   2.595   5.166 -1.7494 -1.0798  0.9106
16764TIP3   OH271782   1.868   1.781   1.436 -0.3486  0.0725  0.2248
16764TIP3    H171783   1.806   1.726   1.388 -1.6688  0.0474  1.8447
16764TIP3    H271784   1.814   1.854   1.468  0.8829  1.0720  0.0963
16765TIP3   OH271785   3.982   1.460   2.764  0.1873  0.0205 -0.3913
16765TIP3    H171786   4.009   1.416   2.844  0.7116  0.8176 -0.1146
16765TIP3    H271787   3.918   1.525   2.793  0.6635  0.5700 -0.5656
16766TIP3   OH271788   0.660   2.151   4.515 -0.0858 -0.1131 -0.1000
16766TIP3    H171789   0.680   2.236   4.475 -0.9522 -0.4195 -1.2544
16766TIP3    H271790   0.656   2.169   4.609 -1.9773  1.5322 -0.4213
16767TIP3   OH271791   3.782   1.772  15.785 -0.5978  0.1069 -0.2485
16767TIP3    H171792   3.771   1.804  15.695 -0.0978  0.4405 -0.1936
16767TIP3    H271793   3.830   1.690  15.776 -1.3108 -0.3131 -0.3427
16768TIP3   OH271794   3.177   2.113   0.872  0.1799 -0.1534 -0.2335
16768TIP3    H171795   3.227   2.036   0.847  0.1009 -0.4261  0.4136
16768TIP3    H271796   3.179   2.113   0.968 -0.0364  0.5053 -0.2202
16769TIP3   OH271797   2.872   0.676  11.971 -0.1434 -0.2746 -0.3083
16769TIP3    H171798   2.831   0.759  11.946 -0.8103 -0.7309 -0.7623
16769TIP3    H271799   2.829   0.652  12.053  1.3290  0.7135  0.8079
16770TIP3   OH271800   4.080   4.816   2.354  0.1789 -0.3136  0.3008
16770TIP3    H171801   4.069   4.872   2.277 -0.0767 -1.7561 -0.7541
16770TIP3    H271802   4.031   4.861   2.423 -1.0966  0.1340 -0.8396
16771TIP3   OH271803   6.336   1.798  12.604 -0.4047 -0.2321  0.2159
16771TIP3    H171804   6.357   1.721  12.551  2.2233  1.0414 -0.7487
16771TIP3    H271805   6.292   1.858  12.543  1.7313  0.8327 -0.3702
16772TIP3   OH271806   4.859   1.670  12.138 -0.0295  0.6259  0.0627
16772TIP3    H171807   4.786   1.611  12.121 -1.2558  1.7109  1.3172
16772TIP3    H271808   4.842   1.745  12.081  0.5562  0.5476 -0.2235
16773TIP3   OH271809   6.802   4.476  14.081  0.0861  0.0558  0.0364
16773TIP3    H171810   6.723   4.530  14.081 -1.1621 -1.6632 -0.7576
16773TIP3    H271811   6.854   4.511  14.009 -0.5906  0.3517 -0.3246
16774TIP3   OH271812   1.918   1.333   6.305  0.1557  0.2940  0.1046
16774TIP3    H171813   2.001   1.366   6.269 -0.2250  1.7438  0.5049
16774TIP3    H271814   1.880   1.408   6.350 -1.3423 -0.3811  0.0048
16775TIP3   OH271815   4.507   5.769  13.687 -0.3354  0.4136 -0.4976
16775TIP3    H171816   4.516   5.702  13.620  0.1925 -1.1005  1.0078
16775TIP3    H271817   4.553   5.845  13.652  3.3807 -1.5573 -0.3158
16776TIP3   OH271818   5.958   6.559  15.355  0.2163  0.0208  0.0268
16776TIP3    H171819   5.866   6.542  15.372 -0.0323 -1.2970 -2.2181
16776TIP3    H271820   5.961   6.647  15.319 -0.2689 -0.1682 -0.4840
16777TIP3   OH271821   2.177   2.582  16.589 -0.1107 -0.0852 -0.7271
16777TIP3    H171822   2.145   2.668  16.563 -1.4575  0.0036  0.9829
16777TIP3    H271823   2.115   2.520  16.550 -1.8124  0.0223  1.5718
16778TIP3   OH271824   1.824   0.798  12.949 -0.5224  0.0763 -0.0986
16778TIP3    H171825   1.849   0.796  12.857 -0.4951  1.3020 -0.1391
16778TIP3    H271826   1.885   0.860  12.989  0.2213 -1.2994  1.0036
16779TIP3   OH271827   5.509   0.335   5.421  0.3217 -0.0669 -0.3607
16779TIP3    H171828   5.540   0.261   5.474 -1.2503  0.4811  1.4565
16779TIP3    H271829   5.482   0.296   5.339 -0.6685 -1.5794  0.6310
16780TIP3   OH271830   4.934   6.455  12.231  0.3195 -0.7675 -0.2599
16780TIP3    H171831   4.908   6.510  12.156  0.7432  0.5053  0.4925
16780TIP3    H271832   4.908   6.367  12.206 -0.7601 -0.1727 -1.3594
16781TIP3   OH271833   4.017   1.345   3.010  0.3180 -0.1209  0.1417
16781TIP3    H171834   4.107   1.337   3.044  0.4728  1.0100  0.0364
16781TIP3    H271835   3.988   1.255   2.997  1.1847 -0.5181  0.8527
16782TIP3   OH271836   6.098   0.261  10.899 -0.0809 -0.3651  0.0817
16782TIP3    H171837   6.113   0.167  10.883  0.1601 -0.3482  0.2066
16782TIP3    H271838   6.172   0.305  10.859  0.3187 -0.2968  0.8710
16783TIP3   OH271839   2.604   3.152  13.662 -0.1103  0.7830  0.5400
16783TIP3    H171840   2.577   3.062  13.646 -0.1071  0.7435  0.7520
16783TIP3    H271841   2.626   3.154  13.755 -0.8166  1.1846  0.7065
16784TIP3   OH271842   1.991   5.119  11.149  0.2321 -0.2430  0.1399
16784TIP3    H171843   2.062   5.100  11.211 -0.6671 -1.5128  0.8327
16784TIP3    H271844   1.996   5.213  11.134  0.2745  0.1674  2.4154
16785TIP3   OH271845   2.254   1.409   0.149  0.0823  0.0545  0.0600
16785TIP3    H171846   2.197   1.332   0.142  0.8050 -0.5479  0.6563
16785TIP3    H271847   2.343   1.373   0.149  0.5720  1.0619 -2.3947
16786TIP3   OH271848   6.200   2.105  13.817  0.2246  0.1333 -0.0914
16786TIP3    H171849   6.275   2.143  13.863  0.5208 -0.6239  0.0773
16786TIP3    H271850   6.239   2.039  13.760 -0.3596 -0.6671  0.4144
16787TIP3   OH271851   0.537   3.096  14.835  0.1401  0.0729  0.8717
16787TIP3    H171852   0.622   3.108  14.792  0.3885 -0.5966  1.1546
16787TIP3    H271853   0.480   3.061  14.766  0.2050  0.1292  0.7888
16788TIP3   OH271854   0.092   0.079   2.608  0.0232 -0.2174  0.1189
16788TIP3    H171855   0.117   0.151   2.665  1.0748  0.2158 -0.8343
16788TIP3    H271856   0.154   0.083   2.535 -1.0526 -0.9492 -0.8920
16789TIP3   OH271857   5.418   4.957   2.042 -0.5045  0.4809 -0.3000
16789TIP3    H171858   5.400   4.890   1.976  1.0610 -0.4248  0.1293
16789TIP3    H271859   5.466   4.910   2.111  0.4907  1.9974  0.0914
16790TIP3   OH271860   1.234   1.613   6.243  0.1699 -0.0176 -0.1373
16790TIP3    H171861   1.291   1.635   6.317 -0.6838  1.8580  0.0163
16790TIP3    H271862   1.176   1.545   6.276  0.1315  0.4439  0.7814
16791TIP3   OH271863   0.366   6.415  12.098  0.4963 -0.0841  0.1060
16791TIP3    H171864   0.387   6.471  12.023 -0.3480 -0.5556 -0.5124
16791TIP3    H271865   0.451   6.387  12.132  0.9130 -0.7296 -1.3656
16792TIP3   OH271866   4.558   5.624  16.687  0.7543  0.0824  0.6719
16792TIP3    H171867   4.464   5.619  16.675  0.5483  1.3219  1.5312
16792TIP3    H271868   4.593   5.651  16.602  0.4870 -1.5557  0.0131
16793TIP3   OH271869   1.799   3.459   4.771 -0.7167  0.5058 -0.9043
16793TIP3    H171870   1.865   3.511   4.726 -0.7600 -0.6833 -2.3952
16793TIP3    H271871   1.716   3.486   4.731 -0.7978 -0.2603 -1.2640
16794TIP3   OH271872   1.932   3.366  15.871  0.3528 -0.8762 -0.1559
16794TIP3    H171873   2.022   3.363  15.838  0.6286 -1.2334  0.5799
16794TIP3    H271874   1.899   3.277  15.857  0.6013 -1.1395  0.8241
16795TIP3   OH271875   4.897   5.086   0.848  0.0814 -0.0554  0.0724
16795TIP3    H171876   4.952   5.064   0.923 -0.8354 -2.0027  0.2492
16795TIP3    H271877   4.810   5.054   0.871 -0.7396  1.3178 -0.9382
16796TIP3   OH271878   4.413   3.842  15.338  0.0203 -0.4399 -0.5348
16796TIP3    H171879   4.427   3.934  15.359  1.0987 -1.1606  2.3960
16796TIP3    H271880   4.480   3.822  15.272  0.2451  0.6901 -0.6621
16797TIP3   OH271881   0.724   6.355   3.428  0.4269  0.0731  0.7313
16797TIP3    H171882   0.673   6.365   3.508  1.8845  1.7113  1.5340
16797TIP3    H271883   0.788   6.426   3.432  1.9358 -1.1195 -0.8357
16798TIP3   OH271884   2.144   1.814  17.109 -0.2255  0.3924  0.5013
16798TIP3    H171885   2.156   1.892  17.163  1.3639  1.8939 -1.8600
16798TIP3    H271886   2.194   1.746  17.154  1.2938  1.6660  0.8078
16799TIP3   OH271887   5.472   3.666   2.595 -0.4018 -0.3159  0.4323
16799TIP3    H171888   5.397   3.706   2.639 -0.4430 -0.6344  0.6486
16799TIP3    H271889   5.439   3.585   2.558 -0.0946 -0.6077  0.7869
16800TIP3   OH271890   6.042   5.962  16.528  0.2414 -0.4324 -0.3653
16800TIP3    H171891   6.124   5.976  16.482  0.4649 -0.6867 -0.0466
16800TIP3    H271892   6.026   6.044  16.575  0.4477 -0.4768 -0.2166
16801TIP3   OH271893   0.052   1.117  17.186 -0.2593 -0.5446  0.2516
16801TIP3    H171894   0.018   1.055  17.121  0.7211 -0.9484  0.1023
16801TIP3    H271895   0.044   1.070  17.269 -0.1527 -0.5978  0.2309
16802TIP3   OH271896   4.873   1.496   4.642 -0.1376 -0.4813  0.3958
16802TIP3    H171897   4.791   1.540   4.665 -0.9354 -1.1539 -1.0618
16802TIP3    H271898   4.867   1.411   4.685 -1.0811 -1.2596 -1.1800
16803TIP3   OH271899   2.664   3.299   6.035  0.1304 -0.1061  0.2963
16803TIP3    H171900   2.709   3.337   6.111 -1.6516  0.7418  1.0072
16803TIP3    H271901   2.678   3.362   5.965 -0.2666  0.3773  0.6383
16804TIP3   OH271902   5.913   2.420  12.877  0.0720  0.2642  0.3597
16804TIP3    H171903   5.923   2.462  12.962 -0.0917  0.4106  0.3088
16804TIP3    H271904   5.978   2.350  12.877  0.0890  0.2779  0.5949
16805TIP3   OH271905   1.590   0.872   0.426  0.4474 -0.0451 -0.3159
16805TIP3    H171906   1.500   0.871   0.457  0.3959  0.0596 -0.4624
16805TIP3    H271907   1.633   0.800   0.474 -0.1192 -1.1884 -1.4483
16806TIP3   OH271908   2.588   4.391   1.573  0.2624  0.2994  0.2894
16806TIP3    H171909   2.586   4.477   1.531 -2.4241 -0.3264 -1.0816
16806TIP3    H271910   2.496   4.372   1.593  0.9102 -1.7678  1.6150
16807TIP3   OH271911   2.802   4.927  13.751  0.0189  0.3907  0.1443
16807TIP3    H171912   2.861   4.861  13.714 -1.0214 -0.6197  0.2111
16807TIP3    H271913   2.826   5.008  13.707 -0.8909 -0.6768 -2.5024
16808TIP3   OH271914   1.605   2.296   3.741  0.1450 -0.3516  0.0687
16808TIP3    H171915   1.530   2.357   3.743 -0.7091 -1.3763 -0.0633
16808TIP3    H271916   1.663   2.333   3.674 -0.9259 -0.3165 -0.8794
16809TIP3   OH271917   5.999   1.753  15.365 -0.1920  0.6065 -0.2369
16809TIP3    H171918   5.981   1.723  15.454 -1.4592  1.6612 -0.1012
16809TIP3    H271919   5.981   1.677  15.310 -2.0926  0.6814  0.1991
16810TIP3   OH271920   5.699   6.384   0.156  0.1313 -0.3500  0.3550
16810TIP3    H171921   5.790   6.411   0.165  0.7717 -1.3774 -2.3159
16810TIP3    H271922   5.654   6.427   0.230  2.9246 -0.8238  2.4909
16811TIP3   OH271923   6.338   1.715   5.062 -0.0856 -0.1639 -0.0005
16811TIP3    H171924   6.303   1.757   5.141  0.1846  0.3381 -0.1477
16811TIP3    H271925   6.265   1.664   5.028  0.2842 -1.8955  1.5978
16812TIP3   OH271926   0.238   3.825  10.696  0.2935 -0.6036 -0.5603
16812TIP3    H171927   0.303   3.792  10.758 -0.1236 -1.1312 -0.3963
16812TIP3    H271928   0.214   3.748  10.644 -0.8768 -0.6318 -0.0142
16813TIP3   OH271929   3.298   2.630   0.463 -0.0163 -0.5973 -0.1444
16813TIP3    H171930   3.295   2.671   0.549 -0.3755 -0.9800  0.0309
16813TIP3    H271931   3.391   2.625   0.442  0.0406  0.0947 -0.0731
16814TIP3   OH271932   2.189   0.882   2.602  0.1054  0.0135 -0.2721
16814TIP3    H171933   2.221   0.954   2.656  0.7675 -0.4432 -0.0340
16814TIP3    H271934   2.188   0.806   2.661 -1.4055  0.0047 -0.2903
16815TIP3   OH271935   2.776   4.917  11.967 -0.1253  0.1636 -0.6395
16815TIP3    H171936   2.761   4.852  11.898  0.2103  0.0266 -0.5863
16815TIP3    H271937   2.713   4.987  11.948 -0.9744 -0.4921 -0.2926
16816TIP3   OH271938   0.799   1.047   2.894  0.1827 -0.0537 -0.2892
16816TIP3    H171939   0.788   1.087   2.980  2.3591  1.6005 -0.7077
16816TIP3    H271940   0.796   1.120   2.832 -1.7587 -1.2408 -1.7436
16817TIP3   OH271941   0.790   6.639   6.506  0.4466  0.1089  0.7696
16817TIP3    H171942   0.734   6.611   6.579 -1.4207  0.9176 -0.2781
16817TIP3    H271943   0.826   6.723   6.534  2.1087 -0.9258  1.9067
16818TIP3   OH271944   3.755   1.674   4.192  0.4583 -0.1640 -0.0820
16818TIP3    H171945   3.736   1.678   4.099 -0.4790  0.5665  0.1292
16818TIP3    H271946   3.719   1.755   4.228  0.2922 -0.6967  1.0035
16819TIP3   OH271947   2.966   4.279  17.291  0.1013  0.1202 -0.1833
16819TIP3    H171948   3.033   4.309  17.352  0.6277 -0.1872 -0.6059
16819TIP3    H271949   3.004   4.293  17.204 -0.5369  0.3128 -0.4405
16820TIP3   OH271950   4.021   0.053   2.915  0.6827  0.3474  0.0123
16820TIP3    H171951   4.110   0.019   2.906  0.6318  0.2729 -0.2417
16820TIP3    H271952   3.996   0.077   2.825  0.8810  1.4673  0.2420
16821TIP3   OH271953   3.818   6.364   1.379  0.2645 -0.6617  0.3105
16821TIP3    H171954   3.854   6.283   1.417 -1.7060 -2.2663 -0.9967
16821TIP3    H271955   3.854   6.367   1.291 -0.3916 -0.6278  0.0411
16822TIP3   OH271956   4.963   5.196   4.594 -0.4362 -0.1165  0.4464
16822TIP3    H171957   5.011   5.152   4.664 -1.5697 -2.4434 -0.1318
16822TIP3    H271958   5.027   5.256   4.555  1.5619 -2.0007  0.6258
16823TIP3   OH271959   3.418   4.379  12.120  0.1643 -0.3490  0.1102
16823TIP3    H171960   3.464   4.373  12.204 -2.3221  0.1944  1.6346
16823TIP3    H271961   3.373   4.295  12.111  0.0001 -0.2096 -0.4271
16824TIP3   OH271962   0.508   3.545  16.793  0.1156 -0.2192 -0.2226
16824TIP3    H171963   0.442   3.495  16.841  0.1272 -0.4960 -0.4881
16824TIP3    H271964   0.581   3.554  16.854 -0.6492  1.1822  0.5193
16825TIP3   OH271965   2.659   3.702  13.057 -0.2156 -0.8303 -0.3211
16825TIP3    H171966   2.625   3.694  13.146 -0.0356 -1.5463 -0.3138
16825TIP3    H271967   2.754   3.697  13.067 -0.1130  0.6010 -0.4001
16826TIP3   OH271968   5.576   4.208   3.664 -0.3294 -0.1454 -0.1400
16826TIP3    H171969   5.578   4.258   3.582 -1.0036  1.0242  0.5346
16826TIP3    H271970   5.540   4.269   3.728 -2.7787 -2.0010  0.3861
16827TIP3   OH271971   4.724   1.005   2.681  0.0963 -0.1874  0.0893
16827TIP3    H171972   4.729   1.028   2.588  0.0435  1.4706  0.4700
16827TIP3    H271973   4.799   0.947   2.695  1.3689  1.2238 -0.5583
16828TIP3   OH271974   0.811   0.712   0.227 -0.2570 -0.1502  0.4768
16828TIP3    H171975   0.717   0.696   0.239 -0.6076  1.7508  0.5620
16828TIP3    H271976   0.839   0.755   0.308  0.3718  0.5480 -0.0980
16829TIP3   OH271977   2.092   2.355   4.087  0.1713 -0.3279  0.7189
16829TIP3    H171978   2.013   2.382   4.039 -0.9354 -1.3049  1.9224
16829TIP3    H271979   2.151   2.323   4.018 -1.7774 -2.6972  0.0081
16830TIP3   OH271980   2.606   3.601  13.354  0.1644 -0.5661  0.1401
16830TIP3    H171981   2.566   3.570  13.435  1.7390  0.9784  1.6040
16830TIP3    H271982   2.639   3.689  13.376  1.2110 -0.3610 -1.9856
16831TIP3   OH271983   6.410   6.394  15.379 -0.0049 -0.1296  0.0424
16831TIP3    H171984   6.479   6.332  15.402  1.3134  0.6094 -1.7193
16831TIP3    H271985   6.407   6.393  15.284 -1.5232  0.8609  0.0420
16832TIP3   OH271986   3.409   5.448   1.298 -0.6535 -0.2578  0.5597
16832TIP3    H171987   3.455   5.366   1.277  2.1889  1.1034  0.9271
16832TIP3    H271988   3.415   5.500   1.218 -0.2517  0.4871  1.0647
16833TIP3   OH271989   3.459   1.460   5.166 -0.7989  0.0498 -0.4352
16833TIP3    H171990   3.408   1.381   5.147  0.0758 -0.9850  1.2549
16833TIP3    H271991   3.468   1.461   5.261 -0.5991  2.0975 -0.4407
16834TIP3   OH271992   5.001   2.320   2.768  0.0139  0.6507  0.0601
16834TIP3    H171993   5.087   2.281   2.752 -0.4875 -0.1739 -0.7153
16834TIP3    H271994   4.966   2.271   2.842 -0.1089  0.4507 -0.1289
16835TIP3   OH271995   0.047   1.603   5.895 -0.5847 -0.7526  0.1674
16835TIP3    H171996   0.077   1.558   5.974  0.6224  0.3095  0.3571
16835TIP3    H271997   0.074   1.546   5.823  0.6669 -0.5029  0.4169
16836TIP3   OH271998   6.148   0.043   4.835 -0.1765 -0.4815  0.1364
16836TIP3    H171999   6.067   0.017   4.881 -0.2465  2.0643  1.6512
16836TIP3    H272000   6.214  -0.019   4.867 -1.3455 -2.2588 -0.6973
16837TIP3   OH272001   0.574   5.501  14.203  0.1630  0.4038  0.2954
16837TIP3    H172002   0.587   5.592  14.232  2.7452  0.0867  0.3665
16837TIP3    H272003   0.581   5.450  14.284  2.0226 -0.0636 -0.1160
16838TIP3   OH272004   1.714   5.265  16.285  0.0128 -0.1052 -0.5940
16838TIP3    H172005   1.629   5.225  16.267  0.3060 -0.3979 -1.3529
16838TIP3    H272006   1.733   5.240  16.376  0.3068 -1.9443 -1.1190
16839TIP3   OH272007   5.104   0.084   0.402 -0.5834  0.0473  0.8028
16839TIP3    H172008   5.122  -0.009   0.389 -2.3019 -0.4074  1.4409
16839TIP3    H272009   5.057   0.088   0.485  0.6963  1.6598  1.5126
16840TIP3   OH272010   5.687   1.281   5.082 -0.0946  0.0376  0.1668
16840TIP3    H172011   5.650   1.211   5.027  0.3768 -0.0843  0.0003
16840TIP3    H272012   5.665   1.362   5.035  0.3708 -0.0697 -0.2457
16841TIP3   OH272013   5.408   5.841  15.514  0.6208 -0.0316  0.2596
16841TIP3    H172014   5.426   5.890  15.434  3.9026 -1.9872 -0.3939
16841TIP3    H272015   5.443   5.754  15.497  1.7844 -0.4499  3.9257
16842TIP3   OH272016   0.994   6.137   5.961 -0.2399 -0.7839 -0.2861
16842TIP3    H172017   0.996   6.045   5.936  0.0421 -0.8343 -0.0772
16842TIP3    H272018   0.915   6.146   6.015 -0.2232 -0.9188 -0.2406
16843TIP3   OH272019   3.094   4.587  15.768 -0.7783  0.0259 -0.5300
16843TIP3    H172020   3.027   4.644  15.729 -0.0743  0.6681 -0.8252
16843TIP3    H272021   3.098   4.614  15.860 -0.3174  0.5977 -0.7085
16844TIP3   OH272022   2.115   1.732   1.256  0.0872 -0.6660 -0.0358
16844TIP3    H172023   2.026   1.765   1.263  0.9128  1.8518 -0.4290
16844TIP3    H272024   2.119   1.661   1.321 -1.9278 -0.2768  0.6034
16845TIP3   OH272025   6.477   6.675  15.106  0.3345 -0.5916  0.0431
16845TIP3    H172026   6.396   6.725  15.107  0.4216 -0.3799 -1.3897
16845TIP3    H272027   6.546   6.740  15.116  0.3714 -0.6929  0.4915
16846TIP3   OH272028   1.543   0.146  13.083 -0.1970 -0.1654 -0.1093
16846TIP3    H172029   1.472   0.209  13.070 -0.9707 -0.8996  0.4166
16846TIP3    H272030   1.613   0.177  13.027 -0.2526  1.6199  0.7342
16847TIP3   OH272031   4.639   3.290   1.568 -0.0630  0.7220  0.7514
16847TIP3    H172032   4.724   3.255   1.542 -1.3758 -1.3109 -1.2037
16847TIP3    H272033   4.643   3.383   1.543  0.4667 -0.0738 -2.6041
16848TIP3   OH272034   5.485   2.808   3.357 -0.0078 -0.0329  0.3682
16848TIP3    H172035   5.488   2.774   3.447 -0.1080 -0.2281  0.2991
16848TIP3    H272036   5.496   2.903   3.367 -0.1694 -0.0370  0.5997
16849TIP3   OH272037   6.608   5.022  14.463  0.5304 -0.0861  0.0979
16849TIP3    H172038   6.610   4.994  14.555  0.9070  0.9909  0.4415
16849TIP3    H272039   6.517   5.050  14.449  0.6609  0.4946  0.3873
16850TIP3   OH272040   3.141   0.454   0.826 -0.1624 -0.1458  0.3747
16850TIP3    H172041   3.123   0.531   0.880  0.0624  0.2748 -0.1394
16850TIP3    H272042   3.226   0.423   0.856 -0.1716 -0.0873  0.4621
16851TIP3   OH272043   0.490   5.994  17.264 -0.1749  0.0121 -0.8351
16851TIP3    H172044   0.405   5.969  17.226 -0.0066 -0.0839 -1.1518
16851TIP3    H272045   0.507   6.081  17.229 -1.1166  0.9390  0.8540
16852TIP3   OH272046   0.914   4.264  17.058  0.0730  0.7298  0.7333
16852TIP3    H172047   0.881   4.180  17.026  1.1267  0.4308  0.3857
16852TIP3    H272048   0.996   4.277  17.010  0.4255  1.4792  1.5153
16853TIP3   OH272049   3.038   1.858  13.803  0.2749 -0.0229 -0.1822
16853TIP3    H172050   3.077   1.888  13.886  0.2127 -0.7361  0.1087
16853TIP3    H272051   3.018   1.939  13.756  1.7784  0.3785 -0.1979
16854TIP3   OH272052   0.989   0.451  12.174 -0.2457  0.3092  0.8572
16854TIP3    H172053   1.007   0.544  12.189  1.3169  0.0904  0.5136
16854TIP3    H272054   1.051   0.405  12.230 -0.7492 -0.5301  0.7390
16855TIP3   OH272055   0.149   1.999  16.858 -0.0398  0.7191 -0.0523
16855TIP3    H172056   0.167   1.915  16.901 -0.0833  0.3356 -0.7663
16855TIP3    H272057   0.228   2.017  16.807 -0.5008  0.4865 -0.8763
16856TIP3   OH272058   1.083   3.600  12.502  0.2647  0.0922 -0.4039
16856TIP3    H172059   1.018   3.530  12.499  1.3741 -0.9787 -0.1867
16856TIP3    H272060   1.087   3.632  12.412 -1.6662  1.2675 -0.1380
16857TIP3   OH272061   3.713   0.809  11.376  0.4167 -0.0217  0.4448
16857TIP3    H172062   3.807   0.823  11.367  0.1157  0.7704 -2.2362
16857TIP3    H272063   3.681   0.888  11.420  0.5955  1.4062 -1.8567
16858TIP3   OH272064   1.515   5.332  12.435  0.8062  0.5351 -0.6948
16858TIP3    H172065   1.524   5.292  12.349  0.7061 -1.9004  0.3481
16858TIP3    H272066   1.578   5.286  12.490 -1.0118  0.0573  1.1336
16859TIP3   OH272067   4.655   3.648   0.108  0.5803 -0.4750 -0.3561
16859TIP3    H172068   4.586   3.705   0.141 -0.1087 -0.2586 -2.0531
16859TIP3    H272069   4.722   3.708   0.076  0.7729 -0.6530 -0.2852
16860TIP3   OH272070   3.436   0.607   4.608 -0.0242  0.0142  0.4125
16860TIP3    H172071   3.378   0.531   4.617 -1.3851  1.1938  2.5167
16860TIP3    H272072   3.397   0.660   4.538 -0.3701 -0.1475  0.4823
16861TIP3   OH272073   3.722   2.931   2.609  0.2007 -0.3406 -0.8379
16861TIP3    H172074   3.685   2.855   2.654  1.0014 -0.6633 -0.7104
16861TIP3    H272075   3.696   3.006   2.664 -0.6511 -0.5105 -1.0062
16862TIP3   OH272076   5.329   5.246   0.838 -0.5192  0.2349  1.0191
16862TIP3    H172077   5.260   5.277   0.897  0.1514  1.7564  1.0512
16862TIP3    H272078   5.391   5.319   0.833 -0.3659  0.0248 -1.2775
16863TIP3   OH272079   3.193   0.218  11.372  0.4015 -0.0212  0.9785
16863TIP3    H172080   3.201   0.122  11.372  1.6786  0.0722  1.1985
16863TIP3    H272081   3.280   0.249  11.348 -0.5561  1.0698 -1.3653
16864TIP3   OH272082   1.555   1.809   0.174 -0.5502 -0.4323 -0.4106
16864TIP3    H172083   1.576   1.816   0.080 -0.7815  0.4032 -0.4072
16864TIP3    H272084   1.531   1.898   0.200 -3.2744 -1.1221 -0.2197
16865TIP3   OH272085   0.469   2.366  11.543 -0.3526  0.1044  0.3649
16865TIP3    H172086   0.520   2.287  11.559  0.4047  0.5348  0.1637
16865TIP3    H272087   0.405   2.368  11.613  0.4327 -0.0428  1.1041
16866TIP3   OH272088   6.245   2.263  11.614 -0.2932 -0.3553  0.2313
16866TIP3    H172089   6.297   2.276  11.534  0.2875  0.2655  0.7057
16866TIP3    H272090   6.239   2.168  11.623  0.0912 -0.4305 -0.2569
16867TIP3   OH272091   5.675   5.766  11.145  0.1326 -0.5677 -0.7022
16867TIP3    H172092   5.715   5.810  11.220  2.9297 -2.3910 -0.9873
16867TIP3    H272093   5.687   5.826  11.072  0.7790 -0.3334 -0.4098
16868TIP3   OH272094   1.630   0.702  14.225  0.2542  0.2025  0.2902
16868TIP3    H172095   1.641   0.687  14.319  0.2789  2.6098  0.7262
16868TIP3    H272096   1.695   0.769  14.204  1.9997 -2.0207 -2.0338
16869TIP3   OH272097   6.547   0.439   6.121 -0.1180  0.2401  0.0906
16869TIP3    H172098   6.546   0.434   6.026 -1.2322 -0.2633  0.1147
16869TIP3    H272099   6.611   0.508   6.141 -0.1988  0.6547 -1.0196
16870TIP3   OH272100   4.940   2.751  13.207  0.3885 -0.3677  0.1175
16870TIP3    H172101   4.918   2.810  13.279 -0.5807 -1.1711  0.4981
16870TIP3    H272102   4.917   2.800  13.128  1.0547  0.3515  0.3619
16871TIP3   OH272103   3.398   0.332  14.002 -0.1917 -0.0801  0.2980
16871TIP3    H172104   3.333   0.348  13.934  0.7873  2.4154 -0.1549
16871TIP3    H272105   3.387   0.405  14.064  0.9114 -0.6622  1.2286
16872TIP3   OH272106   3.381   6.592   5.344  0.5465 -0.2730  0.5409
16872TIP3    H172107   3.311   6.537   5.378 -0.1786  0.3691  0.1217
16872TIP3    H272108   3.344   6.680   5.340  1.2192  0.0013 -0.1197
16873TIP3   OH272109   2.484   0.470   3.546 -0.0912 -0.0291  0.0257
16873TIP3    H172110   2.392   0.463   3.572 -0.2259  0.5216 -0.2926
16873TIP3    H272111   2.517   0.545   3.594  0.0355  0.1258 -0.2962
16874TIP3   OH272112   3.744   0.857   1.782  0.1968 -0.2228 -0.4536
16874TIP3    H172113   3.794   0.930   1.818 -1.2757  0.0178  1.2266
16874TIP3    H272114   3.797   0.779   1.802 -0.0202  0.0284  1.2110
16875TIP3   OH272115   5.659   3.604   5.830 -0.2774 -0.5253 -0.5169
16875TIP3    H172116   5.739   3.655   5.840  0.6891 -2.2036  0.6972
16875TIP3    H272117   5.626   3.629   5.743  1.0191  0.9146 -0.6359
16876TIP3   OH272118   4.434   1.774  14.109 -0.6140  0.3092  0.3213
16876TIP3    H172119   4.348   1.786  14.068 -0.7432  1.0976  0.7931
16876TIP3    H272120   4.496   1.794  14.039 -0.7289 -2.3738 -0.6749
16877TIP3   OH272121   4.313   5.563  11.797 -0.1900 -0.0751  0.3197
16877TIP3    H172122   4.377   5.544  11.728  1.1951  1.8292  1.0038
16877TIP3    H272123   4.236   5.593  11.749  0.7946  1.3493 -0.4803
16878TIP3   OH272124   5.363   6.125  10.615 -0.5533  0.2027 -0.0305
16878TIP3    H172125   5.439   6.068  10.611 -0.1302  0.5504  1.9338
16878TIP3    H272126   5.292   6.069  10.645 -1.0061 -0.0148 -1.4116
16879TIP3   OH272127   4.470   1.466  12.861 -0.2240  0.1087  0.2148
16879TIP3    H172128   4.462   1.536  12.925  2.2771  0.2928  0.4193
16879TIP3    H272129   4.533   1.499  12.797 -0.7228 -1.0863 -0.9522
16880TIP3   OH272130   3.494   5.614   4.947  0.1240 -0.6176  0.5208
16880TIP3    H172131   3.590   5.612   4.945  0.1728  0.9640  0.1569
16880TIP3    H272132   3.472   5.707   4.951 -1.4105 -0.9039 -0.4055
16881TIP3   OH272133   5.553   0.211  14.542 -0.1400  0.0354 -0.1766
16881TIP3    H172134   5.566   0.229  14.448 -1.7195  1.6019 -0.1582
16881TIP3    H272135   5.610   0.275  14.586 -0.0358 -0.1264 -0.0779
16882TIP3   OH272136   6.498   3.877  14.623 -0.3606 -0.4499  0.2390
16882TIP3    H172137   6.477   3.793  14.582 -0.5860  0.3378 -1.3350
16882TIP3    H272138   6.413   3.919  14.636 -0.2595 -0.5020  1.1630
16883TIP3   OH272139   2.289   5.315  15.860 -0.5276 -0.0684  0.3699
16883TIP3    H172140   2.275   5.232  15.814 -2.4516 -0.1312  0.9575
16883TIP3    H272141   2.312   5.377  15.790 -2.3699 -0.3917 -0.6007
16884TIP3   OH272142   0.244   3.405   2.102 -0.2859  0.3624  0.1737
16884TIP3    H172143   0.208   3.320   2.128 -0.6183  0.1395 -0.9920
16884TIP3    H272144   0.333   3.405   2.138 -0.4145 -0.3089  0.5122
16885TIP3   OH272145   2.629   4.104  14.327 -0.4078 -0.4336 -0.5628
16885TIP3    H172146   2.641   4.025  14.380 -0.6205  0.7783  1.3980
16885TIP3    H272147   2.535   4.119  14.326 -0.6313 -1.5820 -3.1338
16886TIP3   OH272148   1.816   2.607  16.944  0.2319  0.4091 -0.2986
16886TIP3    H172149   1.753   2.669  16.906  0.4420  0.0395 -1.2589
16886TIP3    H272150   1.784   2.521  16.918  0.8869  0.1971 -0.4079
16887TIP3   OH272151   2.327   6.078   1.996 -0.2364 -0.7588 -0.3415
16887TIP3    H172152   2.338   5.996   1.947 -0.6627 -1.1655  0.2174
16887TIP3    H272153   2.324   6.050   2.088 -0.6421 -0.1420 -0.1591
16888TIP3   OH272154   2.221   4.114  12.945 -0.1909 -0.9026 -0.3985
16888TIP3    H172155   2.232   4.139  12.854  0.7857  0.1079 -0.0301
16888TIP3    H272156   2.296   4.059  12.965  0.1490 -0.3003  0.0452
16889TIP3   OH272157   4.295   4.469   0.948 -0.1703 -0.2569  0.5096
16889TIP3    H172158   4.277   4.531   1.018 -0.3211 -0.6414  0.8117
16889TIP3    H272159   4.330   4.392   0.992 -1.3860 -0.9662  0.3061
16890TIP3   OH272160   4.557   4.307  12.178 -0.3923 -0.1605  0.2246
16890TIP3    H172161   4.514   4.222  12.167 -0.5632  0.1317 -1.6268
16890TIP3    H272162   4.542   4.330  12.270  0.2295 -2.4211  0.9586
16891TIP3   OH272163   4.022   1.675   0.647  0.1547 -0.1020 -0.6717
16891TIP3    H172164   3.936   1.641   0.670  0.2186 -0.2232 -0.6136
16891TIP3    H272165   4.084   1.618   0.692  0.2292  1.3612  1.2010
16892TIP3   OH272166   5.907   3.207  16.815  0.4371  0.1886  0.2918
16892TIP3    H172167   5.855   3.287  16.825  1.2981  1.0252 -1.3829
16892TIP3    H272168   5.871   3.165  16.737  0.6922 -0.5049  0.5415
16893TIP3   OH272169   1.516   4.811  13.554  0.4301  0.1042 -0.2962
16893TIP3    H172170   1.541   4.753  13.626 -3.1945 -0.7543  0.4588
16893TIP3    H272171   1.554   4.896  13.577 -0.7879 -0.0699  2.8488
16894TIP3   OH272172   4.713   5.557  17.141 -0.6064  0.1366  0.7209
16894TIP3    H172173   4.668   5.605  17.072 -1.4655 -1.7341 -0.0887
16894TIP3    H272174   4.803   5.550  17.109 -0.2580  1.8423  1.2321
16895TIP3   OH272175   4.573   6.807   2.885 -0.4318  0.0172 -0.2911
16895TIP3    H172176   4.491   6.824   2.839  0.3878 -1.4712 -2.4704
16895TIP3    H272177   4.616   6.893   2.890 -1.3651  0.5199 -0.6579
16896TIP3   OH272178   5.020   0.590  11.155  0.1149  0.0279  0.9911
16896TIP3    H172179   5.093   0.642  11.121  0.0899 -0.4472  0.1684
16896TIP3    H272180   4.965   0.652  11.202  0.3178  0.6598  0.4029
16897TIP3   OH272181   6.011   2.925  13.504  0.1988  0.3357 -0.3347
16897TIP3    H172182   5.983   3.016  13.497 -3.1064 -0.4407  0.6278
16897TIP3    H272183   5.930   2.877  13.523  2.1680 -2.4936  1.7495
16898TIP3   OH272184   0.836   0.962  17.121  0.0607 -0.1953 -0.0267
16898TIP3    H172185   0.858   0.883  17.072 -0.3995 -0.8990  0.9050
16898TIP3    H272186   0.919   1.010  17.126  1.0057 -1.8751  1.6868
16899TIP3   OH272187   2.215   0.192   4.018  0.2865 -0.7293  0.0032
16899TIP3    H172188   2.215   0.100   3.990  0.2266 -0.5087 -0.7514
16899TIP3    H272189   2.133   0.227   3.983 -0.5392 -0.8037  1.7456
16900TIP3   OH272190   2.121   6.729   5.893 -0.4458  0.7324 -0.1839
16900TIP3    H172191   2.054   6.743   5.825  0.7599  1.1107 -1.3251
16900TIP3    H272192   2.186   6.673   5.851  0.6836  1.5755  0.4093
16901TIP3   OH272193   3.779   3.105   2.890  0.4625  0.0619 -0.3539
16901TIP3    H172194   3.764   3.136   2.979 -1.2859  1.4497 -1.0749
16901TIP3    H272195   3.765   3.010   2.895 -3.2802  0.4857  0.2674
16902TIP3   OH272196   5.027   6.611  16.078 -0.2346 -0.8961  0.0743
16902TIP3    H172197   5.101   6.625  16.018 -0.1950 -0.5042  0.2140
16902TIP3    H272198   4.957   6.577  16.022 -0.7916  1.1528 -0.5503
16903TIP3   OH272199   3.460   1.224  14.041  0.0066 -0.3176 -0.0401
16903TIP3    H172200   3.499   1.200  13.957 -4.0733  0.0214 -2.2843
16903TIP3    H272201   3.452   1.142  14.088  0.1815 -0.9064 -1.0073
16904TIP3   OH272202   3.150   2.411  14.745  0.4764 -0.0797  0.5680
16904TIP3    H172203   3.201   2.491  14.735  0.3319 -0.0588 -0.0503
16904TIP3    H272204   3.072   2.438  14.795 -0.9118  0.7815 -1.8867
16905TIP3   OH272205   0.088   0.775  12.889  0.3791  0.0582 -0.2026
16905TIP3    H172206  -0.006   0.792  12.897 -0.0872 -2.4096  0.6789
16905TIP3    H272207   0.129   0.836  12.950 -0.8119  0.1544  0.5276
16906TIP3   OH272208   2.047   0.391   2.823  0.4500  0.1537  0.2185
16906TIP3    H172209   2.112   0.423   2.886 -0.2523  1.1582  0.4563
16906TIP3    H272210   1.992   0.331   2.873 -0.8395  1.8541  0.9103
16907TIP3   OH272211   4.479   6.480   2.697 -0.0455  0.0786 -0.6479
16907TIP3    H172212   4.505   6.441   2.780 -0.0876  0.3194 -0.5191
16907TIP3    H272213   4.464   6.406   2.639  0.5268 -0.0779 -0.6064
16908TIP3   OH272214   6.510   3.385  12.934  0.3603 -0.0732  0.4327
16908TIP3    H172215   6.477   3.392  13.023 -0.1787 -0.8805  0.3073
16908TIP3    H272216   6.432   3.366  12.881  0.7506 -0.1298 -0.1290
16909TIP3   OH272217   4.062   6.187   4.404  0.3603 -0.0217  0.4828
16909TIP3    H172218   4.086   6.183   4.496 -0.7283 -0.8139  0.7528
16909TIP3    H272219   3.981   6.135   4.398  1.8057 -2.2946 -1.3679
16910TIP3   OH272220   4.229   1.018  13.281 -0.1246 -0.5695  0.5362
16910TIP3    H172221   4.134   1.008  13.273 -0.3664  0.3980  1.9050
16910TIP3    H272222   4.255   1.060  13.198 -0.5445 -2.6732 -0.7378
16911TIP3   OH272223   1.837   6.672   0.984 -0.2317 -0.2683  0.3524
16911TIP3    H172224   1.787   6.696   0.907 -0.4481  3.4949  1.4898
16911TIP3    H272225   1.928   6.670   0.955  0.0097  3.7742  0.3459
16912TIP3   OH272226   5.143   0.409  13.978 -0.2974 -1.2873 -0.2270
16912TIP3    H172227   5.065   0.354  13.989 -1.5391  0.0504 -1.7804
16912TIP3    H272228   5.157   0.411  13.883  0.7135 -0.2762 -0.0688
16913TIP3   OH272229   2.210   6.556   4.908  0.3483  0.2624  0.2055
16913TIP3    H172230   2.160   6.612   4.849 -0.2729  0.2265  0.6868
16913TIP3    H272231   2.216   6.472   4.863 -0.7238  0.0259  0.4866
16914TIP3   OH272232   1.708   2.611  16.019  0.1523  0.7731  0.0486
16914TIP3    H172233   1.625   2.569  16.041 -0.0890  0.8355 -0.7061
16914TIP3    H272234   1.774   2.547  16.044 -0.1653  0.3646 -0.1310
16915TIP3   OH272235   5.015   2.786   6.390 -0.2167 -0.5754  0.1817
16915TIP3    H172236   4.934   2.831   6.413  0.1869  0.0092  0.4978
16915TIP3    H272237   5.020   2.713   6.452 -0.2051 -0.2582  0.5624
16916TIP3   OH272238   3.678   5.216  14.466 -0.5111  0.7789  0.0416
16916TIP3    H172239   3.710   5.194  14.378 -0.1570 -1.2439  0.6063
16916TIP3    H272240   3.652   5.131  14.503  1.1693  1.2493  2.5761
16917TIP3   OH272241   2.078   1.665   5.987  0.4825 -0.4992  0.0186
16917TIP3    H172242   2.110   1.665   5.896 -0.5106  0.5031 -0.3447
16917TIP3    H272243   2.091   1.574   6.016 -1.1305 -1.4111 -1.8468
16918TIP3   OH272244   5.377   1.257  14.073 -0.1436 -0.0515 -0.2015
16918TIP3    H172245   5.296   1.299  14.101  2.2079  3.2976  2.6155
16918TIP3    H272246   5.393   1.291  13.985 -1.0094  0.6175 -0.1136
16919TIP3   OH272247   4.105   4.637   0.266 -0.2488  0.1024 -0.0777
16919TIP3    H172248   4.077   4.635   0.357  0.8467  1.8508  0.3576
16919TIP3    H272249   4.152   4.555   0.253  0.1272  0.1097  1.1359
16920TIP3   OH272250   3.774   1.717   0.246  0.1612 -0.1944 -0.4501
16920TIP3    H172251   3.691   1.672   0.259  1.2373 -2.2921 -0.3661
16920TIP3    H272252   3.751   1.798   0.201 -1.7443 -1.7844 -2.5965
16921TIP3   OH272253   6.202   4.260   3.381 -0.1716 -0.2215  0.1899
16921TIP3    H172254   6.182   4.234   3.471  1.8130 -0.4952  0.6134
16921TIP3    H272255   6.117   4.273   3.340 -1.1353 -0.0559  2.1118
16922TIP3   OH272256   0.710   3.823  11.872 -0.4780 -0.0572  0.5555
16922TIP3    H172257   0.634   3.870  11.906 -1.3835 -0.5551 -0.7187
16922TIP3    H272258   0.674   3.762  11.807  1.1781  1.0811 -1.5584
16923TIP3   OH272259   3.554   1.937   5.005 -0.1772 -0.7293  0.4812
16923TIP3    H172260   3.567   1.853   4.961  1.7885 -1.3068  2.0032
16923TIP3    H272261   3.638   1.981   4.998 -0.6692  0.3677  1.1801
16924TIP3   OH272262   5.191   5.512  13.498  0.1940 -0.5211 -0.1528
16924TIP3    H172263   5.125   5.446  13.476  1.3665 -1.2221 -1.7842
16924TIP3    H272264   5.143   5.595  13.497 -0.6958 -1.0288 -1.1123
16925TIP3   OH272265   3.313   1.704  16.289  0.0809  0.2073  0.0115
16925TIP3    H172266   3.312   1.726  16.196  0.2364 -0.9059 -0.2606
16925TIP3    H272267   3.371   1.770  16.328  0.3349  0.4392 -0.7406
16926TIP3   OH272268   6.473   6.265  11.888  0.5369  0.2216 -0.2605
16926TIP3    H172269   6.524   6.324  11.833  0.0083  1.4037  0.4912
16926TIP3    H272270   6.524   6.258  11.969 -0.4823  1.4594  0.5207
16927TIP3   OH272271   4.908   5.344   0.756  0.0154  0.1107  0.0624
16927TIP3    H172272   4.879   5.266   0.803 -1.1836  0.6341  0.2261
16927TIP3    H272273   4.853   5.346   0.678 -0.7640  1.3753  0.6097
16928TIP3   OH272274   4.693   1.524  11.180 -0.0920 -0.0735  0.3676
16928TIP3    H172275   4.640   1.455  11.221  0.9311 -0.4388  1.1460
16928TIP3    H272276   4.630   1.584  11.142 -1.0535 -0.5666  1.1378
16929TIP3   OH272277   5.905   4.404   5.715  0.1551  0.0507  0.0799
16929TIP3    H172278   5.861   4.389   5.798 -2.8741  1.0484 -1.2051
16929TIP3    H272279   5.879   4.330   5.661 -0.6643  1.0320 -0.9318
16930TIP3   OH272280   5.445   6.425   2.817  0.1500 -0.1092 -0.1984
16930TIP3    H172281   5.414   6.515   2.810  1.4745  0.4162  0.4278
16930TIP3    H272282   5.481   6.418   2.906  0.3286 -1.1634 -0.3342
16931TIP3   OH272283   1.124   2.576  12.495  0.2488 -0.1789  0.3857
16931TIP3    H172284   1.102   2.575  12.402  0.9365 -0.1837  0.2182
16931TIP3    H272285   1.080   2.655  12.529  0.9738  0.4921 -0.1958
16932TIP3   OH272286   1.774   1.244  14.278 -0.3356  0.1752  0.5465
16932TIP3    H172287   1.765   1.178  14.347  0.1274 -1.5036 -0.9298
16932TIP3    H272288   1.867   1.243  14.255  0.0660  2.6832  1.6970
16933TIP3   OH272289   4.534   4.705   5.661  0.4969  0.1286  0.8639
16933TIP3    H172290   4.508   4.788   5.700 -3.3720  0.4486 -1.8332
16933TIP3    H272291   4.616   4.725   5.616  0.2280  2.2130  1.1712
16934TIP3   OH272292   4.907   5.219   1.209  0.2083  0.1379 -0.5218
16934TIP3    H172293   4.816   5.232   1.181  0.5234  0.2590 -1.5190
16934TIP3    H272294   4.900   5.196   1.302 -0.7632  1.5183 -0.2074
16935TIP3   OH272295   6.418   3.361  13.198  0.3625 -0.2151  0.4057
16935TIP3    H172296   6.328   3.381  13.225  0.1587  3.2308 -2.1157
16935TIP3    H272297   6.423   3.266  13.203 -3.6098 -0.6389  0.1726
16936TIP3   OH272298   4.900   0.017  14.233  0.0596  0.1425 -0.4981
16936TIP3    H172299   4.932  -0.003  14.321 -0.6022 -0.2388 -0.3340
16936TIP3    H272300   4.804   0.018  14.242 -0.0133  0.1121 -1.2071
16937TIP3   OH272301   5.305   1.274   5.275  0.2307  0.0247 -0.5155
16937TIP3    H172302   5.212   1.296   5.272  0.3589  0.5290 -2.5513
16937TIP3    H272303   5.331   1.293   5.365 -1.3890  0.9433 -0.1925
16938TIP3   OH272304   4.214   2.426   3.963 -0.1397  0.7696 -0.0968
16938TIP3    H172305   4.300   2.410   3.924 -0.0721  0.5883  0.1259
16938TIP3    H272306   4.180   2.501   3.915  0.4816  1.3463  0.3493
16939TIP3   OH272307   6.774   3.687  13.095  0.6388  0.4990 -0.9767
16939TIP3    H172308   6.707   3.743  13.134  1.8896  0.8753  0.7189
16939TIP3    H272309   6.785   3.615  13.156 -0.1570 -1.0768 -2.6068
16940TIP3   OH272310   4.848   0.665  16.594  0.4414 -0.0680 -0.3512
16940TIP3    H172311   4.774   0.661  16.534 -0.2490  1.2574  0.3907
16940TIP3    H272312   4.821   0.612  16.669  0.5464 -0.1807 -0.3917
16941TIP3   OH272313   6.497   3.449   4.746 -0.0463  0.2379 -0.0060
16941TIP3    H172314   6.527   3.507   4.816 -0.4892  1.0242 -0.4537
16941TIP3    H272315   6.562   3.459   4.676  0.9594 -1.3215  0.6515
16942TIP3   OH272316   5.243   2.654   3.045  0.0227  0.6341 -0.1216
16942TIP3    H172317   5.312   2.588   3.052 -1.2633 -0.9950 -1.9315
16942TIP3    H272318   5.203   2.655   3.132  1.2384  0.4062  0.4647
16943TIP3   OH272319   1.300   5.826   0.034  0.0891  0.2883 -0.5616
16943TIP3    H172320   1.387   5.864   0.046  0.0365  0.3695 -0.4374
16943TIP3    H272321   1.293   5.810  -0.061 -0.0180  0.8961 -0.6598
16944TIP3   OH272322   2.261   0.149   5.727  0.0821  0.2968 -0.0998
16944TIP3    H172323   2.322   0.206   5.680  0.9244 -1.1031 -0.7686
16944TIP3    H272324   2.226   0.204   5.798  1.6446  1.3046 -0.0695
16945TIP3   OH272325   6.236   4.633   2.221 -0.3106  0.9848 -0.7285
16945TIP3    H172326   6.284   4.612   2.141  0.7961  0.6536 -0.0165
16945TIP3    H272327   6.292   4.599   2.291 -1.2216  1.3192  0.1831
16946TIP3   OH272328   1.299   0.448  14.260 -0.3989  0.1721 -0.4654
16946TIP3    H172329   1.230   0.383  14.272  0.8539 -1.0239  0.6873
16946TIP3    H272330   1.267   0.525  14.306 -1.6698  0.2352 -1.3824
16947TIP3   OH272331   3.549   5.796  14.593  1.1329 -0.0399 -0.1180
16947TIP3    H172332   3.461   5.769  14.564  0.8943  1.4648 -0.9054
16947TIP3    H272333   3.608   5.747  14.536  0.7582 -0.0959 -0.4712
16948TIP3   OH272334   4.029   2.126   2.677 -0.0026 -0.0154 -0.6845
16948TIP3    H172335   4.109   2.092   2.636 -0.1726 -1.5317  0.1533
16948TIP3    H272336   4.053   2.138   2.768 -0.8163 -0.8926 -0.3351
16949TIP3   OH272337   6.147   6.166   2.647  0.2078  0.1106 -0.1671
16949TIP3    H172338   6.078   6.222   2.610 -1.4573 -0.5198  1.7937
16949TIP3    H272339   6.219   6.172   2.584 -0.7249  2.6735 -1.1361
16950TIP3   OH272340   1.135   2.322  13.489  0.0535 -0.5238 -0.4623
16950TIP3    H172341   1.191   2.275  13.551 -0.3637 -1.0139 -0.4550
16950TIP3    H272342   1.150   2.279  13.405 -0.0764 -0.4547 -0.5210
16951TIP3   OH272343   1.500   1.372   0.834 -0.2942 -0.2461  0.0043
16951TIP3    H172344   1.552   1.452   0.821  0.1483 -0.5399 -0.0470
16951TIP3    H272345   1.417   1.404   0.869  0.6619  0.0971  2.1382
16952TIP3   OH272346   2.345   6.612   5.147 -0.3008  1.1167 -0.1020
16952TIP3    H172347   2.361   6.706   5.144  0.0064  1.0611 -2.9200
16952TIP3    H272348   2.289   6.594   5.071 -1.6864 -0.7729  1.2706
16953TIP3   OH272349   3.307   1.472   2.218 -0.5476 -0.3759  0.1257
16953TIP3    H172350   3.356   1.471   2.300 -1.6184  0.0467  0.7865
16953TIP3    H272351   3.311   1.564   2.190 -0.1827 -0.5193 -0.3089
16954TIP3   OH272352   6.308   1.076   4.179 -0.1944 -0.8622  0.7195
16954TIP3    H172353   6.303   1.091   4.085  0.6613 -0.6053  0.7058
16954TIP3    H272354   6.242   1.010   4.197 -0.4569 -0.8099 -0.0387
16955TIP3   OH272355   5.875   1.502   0.320 -0.1740  0.3197 -0.5887
16955TIP3    H172356   5.829   1.490   0.237 -0.3322 -0.1807 -0.4334
16955TIP3    H272357   5.926   1.422   0.330  1.0149  1.0116 -0.9296
16956TIP3   OH272358   4.292   6.511   1.935  0.0873 -0.5083 -0.4584
16956TIP3    H172359   4.368   6.452   1.934  0.0764 -0.5517  0.4752
16956TIP3    H272360   4.226   6.464   1.986  0.0370  0.2619  0.1990
16957TIP3   OH272361   6.189   4.342  14.245  0.0057 -0.5515  0.2959
16957TIP3    H172362   6.255   4.276  14.265  0.4603 -0.1228  0.2310
16957TIP3    H272363   6.105   4.301  14.268  0.2570 -1.2695 -0.0621
16958TIP3   OH272364   4.286   2.652   0.311  0.4275 -0.3005 -0.1943
16958TIP3    H172365   4.212   2.660   0.371  0.6848  0.8269  0.0009
16958TIP3    H272366   4.357   2.699   0.354  0.0788  2.3584 -2.1911
16959TIP3   OH272367   4.277   0.121  13.126  0.2953 -0.2299  0.0369
16959TIP3    H172368   4.290   0.213  13.150 -2.7227  0.1055  0.8086
16959TIP3    H272369   4.239   0.124  13.039  2.2605 -0.9362 -0.8907
16960TIP3   OH272370   0.620   4.470   0.916 -0.6724 -0.2327  0.1138
16960TIP3    H172371   0.579   4.431   0.839 -1.6892 -1.8089  1.3954
16960TIP3    H272372   0.659   4.397   0.963  0.9353  0.8429  0.5494
16961TIP3   OH272373   5.685   6.183   4.010  0.0149  0.0369 -0.9952
16961TIP3    H172374   5.640   6.103   3.984 -1.2387 -0.2168  1.6702
16961TIP3    H272375   5.615   6.245   4.029  0.9539  1.6676 -2.4846
16962TIP3   OH272376   6.220   3.721  15.014  0.0244 -0.1783  0.0987
16962TIP3    H172377   6.284   3.786  14.983 -0.0695 -0.5784 -0.9817
16962TIP3    H272378   6.148   3.727  14.951 -1.2928  0.6670  1.6339
16963TIP3   OH272379   2.471   5.857  14.449  0.5765 -0.0416  0.0447
16963TIP3    H172380   2.488   5.916  14.522  2.3906 -0.3031 -0.1165
16963TIP3    H272381   2.430   5.780  14.489  0.7341  0.1871  0.6555
16964TIP3   OH272382   3.912   3.093   1.695  0.4569  1.1075 -0.0208
16964TIP3    H172383   3.944   3.180   1.672  0.0137  1.0489 -0.8908
16964TIP3    H272384   3.972   3.033   1.651  1.5625  0.9308  1.6471
16965TIP3   OH272385   0.750   6.669  11.542  0.1509  0.4098  0.0154
16965TIP3    H172386   0.816   6.700  11.605 -1.1526 -0.3351  1.8017
16965TIP3    H272387   0.668   6.709  11.571 -0.5696 -0.3356 -0.9339
16966TIP3   OH272388   1.283   1.738   4.384 -0.0951  0.1782 -0.3603
16966TIP3    H172389   1.271   1.759   4.291  0.5482 -0.9744 -0.7297
16966TIP3    H272390   1.209   1.680   4.405 -0.2628  0.4701 -0.1330
16967TIP3   OH272391   3.843   6.145  15.276 -0.6049 -0.5820 -0.1208
16967TIP3    H172392   3.859   6.197  15.355 -0.0085  0.4866 -0.9124
16967TIP3    H272393   3.760   6.100  15.293 -0.4023 -0.5023  1.1707
16968TIP3   OH272394   6.740   5.532  12.061 -0.3257 -0.0216 -0.2867
16968TIP3    H172395   6.804   5.592  12.022 -0.2921 -0.3865 -0.8121
16968TIP3    H272396   6.708   5.480  11.987 -2.2981  1.1042 -0.2756
16969TIP3   OH272397   6.760   6.361  16.690 -0.2767 -0.6593  0.2338
16969TIP3    H172398   6.744   6.453  16.711 -0.6761 -0.7105  0.1584
16969TIP3    H272399   6.681   6.316  16.719 -0.0883 -0.9756  0.2530
16970TIP3   OH272400   3.815   5.325   1.253  0.4316 -0.2303  0.3952
16970TIP3    H172401   3.824   5.382   1.329 -1.1088 -0.0654  0.4812
16970TIP3    H272402   3.738   5.272   1.271 -1.3275  1.3160 -1.9520
16971TIP3   OH272403   3.183   1.193   0.699 -0.1182 -0.3583 -0.4029
16971TIP3    H172404   3.203   1.234   0.615 -1.0664  0.2610 -0.3559
16971TIP3    H272405   3.189   1.265   0.762 -0.1715 -0.6471 -0.0665
16972TIP3   OH272406   3.820   3.197  11.434  0.2857  0.4789  0.5570
16972TIP3    H172407   3.914   3.219  11.439  0.7111 -1.3307  1.5847
16972TIP3    H272408   3.811   3.119  11.489 -1.6298 -0.0856 -0.4634
16973TIP3   OH272409   4.185   2.823   0.737 -0.3073 -0.0565  0.4088
16973TIP3    H172410   4.273   2.855   0.715 -0.0083 -1.1851 -0.0689
16973TIP3    H272411   4.171   2.749   0.679 -1.6953  0.2678  0.2941
16974TIP3   OH272412   5.330   6.766   0.238 -0.4757 -0.1966  0.2679
16974TIP3    H172413   5.385   6.800   0.167 -1.2687 -0.8693 -0.7024
16974TIP3    H272414   5.256   6.726   0.193 -1.0424 -0.5695  1.4972
16975TIP3   OH272415   5.671   1.007  14.213  0.0035 -0.2419 -0.3673
16975TIP3    H172416   5.694   0.922  14.251  0.5456 -1.0761 -2.4254
16975TIP3    H272417   5.751   1.035  14.169 -0.6515  0.5737 -1.0438
16976TIP3   OH272418   6.282   3.704   2.247  0.5684  0.4002  0.0216
16976TIP3    H172419   6.310   3.648   2.320  1.7825  1.3862  0.3471
16976TIP3    H272420   6.192   3.728   2.268 -0.3605 -2.1514 -0.5969
16977TIP3   OH272421   1.127   3.876   4.565  0.0365  0.0611 -0.0633
16977TIP3    H172422   1.108   3.945   4.629  0.2754  0.3299 -0.2813
16977TIP3    H272423   1.087   3.907   4.484 -1.1509 -0.7474  0.1861
16978TIP3   OH272424   3.127   3.793   6.093  0.2685  0.4417  0.2301
16978TIP3    H172425   3.149   3.881   6.121  0.1759  0.3879  0.4690
16978TIP3    H272426   3.125   3.741   6.173 -1.0000  0.5044  0.2670
16979TIP3   OH272427   0.921   0.684  16.387  0.4903  0.3424 -0.2219
16979TIP3    H172428   0.833   0.722  16.389 -1.0369 -2.7494  2.6819
16979TIP3    H272429   0.964   0.717  16.466  0.9816 -0.0367 -0.3245
16980TIP3   OH272430   1.883   1.501   1.840  0.2702 -0.2481 -0.3105
16980TIP3    H172431   1.928   1.439   1.897  0.1660  1.6106  1.9369
16980TIP3    H272432   1.952   1.559   1.809  0.2573 -0.9892 -1.8284
16981TIP3   OH272433   4.819   2.664   3.769 -0.4098 -0.0974  0.1965
16981TIP3    H172434   4.807   2.662   3.864  2.0872  0.1573  0.5852
16981TIP3    H272435   4.772   2.586   3.738  0.2791 -1.2588  1.8839
16982TIP3   OH272436   5.067   4.038   3.859  0.3489  0.7440  0.3942
16982TIP3    H172437   5.077   4.074   3.771 -0.7701 -2.0451 -1.0341
16982TIP3    H272438   5.135   3.971   3.864 -1.0251 -0.6883  0.6880
16983TIP3   OH272439   1.403   4.024   3.726  0.7598  0.4584 -0.4565
16983TIP3    H172440   1.473   3.961   3.746  1.5480  0.7468 -2.0776
16983TIP3    H272441   1.398   4.079   3.804 -0.4059 -1.9289  1.2984
16984TIP3   OH272442   1.707   2.892  13.487 -0.1930 -0.2816  0.5250
16984TIP3    H172443   1.796   2.873  13.519  0.6472  1.1269 -0.8438
16984TIP3    H272444   1.682   2.972  13.533 -0.8535 -0.7816  1.0507
16985TIP3   OH272445   2.824   0.881   3.224 -0.3164 -0.0800  0.1351
16985TIP3    H172446   2.777   0.917   3.149  3.2695  2.5133 -1.1631
16985TIP3    H272447   2.772   0.907   3.300 -1.9753  0.8306 -1.2419
16986TIP3   OH272448   4.918   6.662   5.391 -0.3805 -0.2363 -0.2022
16986TIP3    H172449   4.884   6.607   5.462 -0.2718  1.1141  0.9254
16986TIP3    H272450   4.976   6.603   5.342  0.1342 -1.0147  1.2673
16987TIP3   OH272451   1.333   5.609   3.261 -0.1714  0.8017  0.3113
16987TIP3    H172452   1.387   5.531   3.274  0.9682  1.4259 -0.4585
16987TIP3    H272453   1.293   5.626   3.346  3.2396  2.0429  1.8252
16988TIP3   OH272454   1.051   2.288  11.258  0.5140 -0.1058 -0.4081
16988TIP3    H172455   1.030   2.315  11.347  2.4244  1.0279 -0.2526
16988TIP3    H272456   1.076   2.196  11.267 -1.8564 -0.8244 -0.2651
16989TIP3   OH272457   6.218   5.337   5.909  0.5643  0.1721  0.1286
16989TIP3    H172458   6.151   5.383   5.860  0.8025  0.0735 -0.2975
16989TIP3    H272459   6.181   5.250   5.926  0.0813  0.5417  1.0095
16990TIP3   OH272460   6.592   5.368  12.244  0.5044 -0.1096  0.0718
16990TIP3    H172461   6.620   5.448  12.201 -1.2779 -0.2202 -1.4214
16990TIP3    H272462   6.573   5.395  12.334  0.4813  1.0168 -0.2598
16991TIP3   OH272463   3.895   3.088  11.850 -0.1545 -0.4973 -0.6236
16991TIP3    H172464   3.806   3.082  11.885 -1.0018  0.2765 -2.5100
16991TIP3    H272465   3.925   2.997  11.845 -0.9333 -0.7861 -0.2141
16992TIP3   OH272466   1.183   5.622  16.630 -0.7280 -0.7151 -0.1970
16992TIP3    H172467   1.167   5.547  16.687  1.2986 -1.0807 -0.0418
16992TIP3    H272468   1.248   5.674  16.676  0.8457 -0.9251 -2.0357
16993TIP3   OH272469   3.830   1.584  14.332 -0.4026  0.2748  0.4313
16993TIP3    H172470   3.908   1.553  14.287 -0.5524 -1.5104  1.3123
16993TIP3    H272471   3.858   1.664  14.377  0.8007 -0.0979  0.3792
16994TIP3   OH272472   0.573   0.735   2.258 -0.1311  0.2048  0.1653
16994TIP3    H172473   0.487   0.773   2.240  0.1421 -0.1197 -2.1602
16994TIP3    H272474   0.627   0.809   2.286 -1.2884  0.2946  2.3855
16995TIP3   OH272475   1.989   2.337   0.290 -0.1329  0.1050  0.3878
16995TIP3    H172476   2.064   2.392   0.314  0.8770 -1.3766  0.7582
16995TIP3    H272477   1.917   2.399   0.278  1.3470  1.6969 -0.9442
16996TIP3   OH272478   0.290   2.703   2.961 -0.2625 -0.5944  0.7491
16996TIP3    H172479   0.274   2.674   3.051  0.9875 -1.8878  0.5914
16996TIP3    H272480   0.366   2.653   2.933  0.4399  1.0419 -0.4624
16997TIP3   OH272481   4.361   3.763  12.467  0.4266  0.2831 -0.3363
16997TIP3    H172482   4.283   3.710  12.450  0.9314 -0.4773 -0.3492
16997TIP3    H272483   4.403   3.719  12.541 -0.6447  2.3295  1.6298
16998TIP3   OH272484   4.309   4.078  15.363  0.3535 -0.1803  0.4242
16998TIP3    H172485   4.267   4.158  15.332 -1.1523 -1.1363 -0.0978
16998TIP3    H272486   4.382   4.109  15.416  0.1000  1.5314 -0.1583
16999TIP3   OH272487   0.760   5.186  14.281  0.2634 -0.3930  0.5091
16999TIP3    H172488   0.782   5.093  14.280  0.2959 -0.3909 -1.2057
16999TIP3    H272489   0.681   5.192  14.228  1.6097  0.8359 -1.4769
17000TIP3   OH272490   0.632   3.677  11.464  0.4850 -0.2127  0.4589
17000TIP3    H172491   0.671   3.596  11.432 -0.2000 -0.4361  0.1809
17000TIP3    H272492   0.545   3.680  11.423  1.3854  1.8641 -1.5307
17001TIP3   OH272493   1.873   6.543  13.918 -0.1588  0.4070  0.2299
17001TIP3    H172494   1.787   6.522  13.881 -0.8439  0.3295  1.7850
17001TIP3    H272495   1.869   6.510  14.007  1.9079 -0.5656  0.0010
17002TIP3   OH272496   6.442   1.687  12.842  0.0915 -0.1687 -0.0373
17002TIP3    H172497   6.379   1.688  12.914  0.7134  0.2589  0.5115
17002TIP3    H272498   6.397   1.729  12.769 -1.1060 -1.9705 -0.3998
17003TIP3   OH272499   5.837   5.552   3.094 -0.5077 -0.0174 -0.5083
17003TIP3    H172500   5.856   5.551   3.000 -1.9213 -1.7426 -0.8341
17003TIP3    H272501   5.742   5.561   3.100 -0.5694 -1.0474  0.6910
17004TIP3   OH272502   5.553   0.304  16.397 -0.6149  0.0926  0.0783
17004TIP3    H172503   5.519   0.262  16.476  1.5555  0.8876  1.5277
17004TIP3    H272504   5.490   0.281  16.328 -2.0637 -1.4265  1.8159
17005TIP3   OH272505   1.024   5.296   0.530 -0.4188 -0.1094 -0.1044
17005TIP3    H172506   0.964   5.248   0.587 -1.2314  0.4557 -0.4503
17005TIP3    H272507   1.011   5.258   0.443 -0.5999  0.2935 -0.2594
17006TIP3   OH272508   6.369   2.289  12.026  0.5195 -0.2074  0.1103
17006TIP3    H172509   6.432   2.236  11.977 -0.3387  0.9074 -2.3726
17006TIP3    H272510   6.397   2.379  12.012 -0.7876  0.2258  0.1618
17007TIP3   OH272511   0.635   1.609   3.589  0.1844 -0.6602  0.4472
17007TIP3    H172512   0.569   1.548   3.622 -0.6799  0.2958  0.5605
17007TIP3    H272513   0.656   1.576   3.501 -1.2058 -0.4528 -0.0009
17008TIP3   OH272514   4.452   1.038  12.796  0.1598 -0.0105  0.1683
17008TIP3    H172515   4.465   1.083  12.880  0.0878 -0.2177  0.2926
17008TIP3    H272516   4.491   1.095  12.731  0.1985  0.1615  0.3434
17009TIP3   OH272517   0.946   3.877  11.784 -0.1544 -0.3717 -0.1433
17009TIP3    H172518   0.870   3.831  11.819  0.4998 -1.0531  0.3932
17009TIP3    H272519   0.970   3.828  11.705 -0.1401 -0.2849 -0.1937
17010TIP3   OH272520   0.102   4.433  16.138 -0.2253 -0.7396  0.2404
17010TIP3    H172521   0.144   4.405  16.057  1.5685  2.3745 -0.0806
17010TIP3    H272522   0.011   4.451  16.114  0.2826  0.1360 -1.1026
17011TIP3   OH272523   1.390   3.811  15.521  0.1691  0.0117 -0.3883
17011TIP3    H172524   1.427   3.830  15.435 -0.1987  1.4015 -0.2558
17011TIP3    H272525   1.296   3.807  15.507  0.1867 -1.0772 -0.2756
17012TIP3   OH272526   5.366   1.463   0.777  0.8860  0.1145  0.1873
17012TIP3    H172527   5.447   1.427   0.741  0.3545  0.2870 -1.2275
17012TIP3    H272528   5.297   1.429   0.720 -0.2120 -1.0966  2.1456
17013TIP3   OH272529   6.609   5.531   5.586  0.2445 -0.1799 -0.2022
17013TIP3    H172530   6.533   5.476   5.570  0.2358 -0.0227 -0.7101
17013TIP3    H272531   6.602   5.556   5.678  0.7000 -1.7134  0.2808
17014TIP3   OH272532   0.852   1.917  14.545  0.2022 -0.7209 -0.4318
17014TIP3    H172533   0.898   1.833  14.557 -1.2114 -1.4581  0.0049
17014TIP3    H272534   0.760   1.896  14.558 -0.0307  1.3167  1.9455
17015TIP3   OH272535   1.646   1.583   0.693 -1.0354  0.1535  0.1970
17015TIP3    H172536   1.621   1.562   0.603 -1.5454 -1.9356  0.7931
17015TIP3    H272537   1.638   1.679   0.698  1.2989  0.6174 -2.6240
17016TIP3   OH272538   6.550   3.178   2.711  0.9967 -0.0849 -0.1816
17016TIP3    H172539   6.625   3.134   2.672  1.6923 -0.3993  1.4316
17016TIP3    H272540   6.588   3.249   2.764  0.0495  0.7922 -0.6259
17017TIP3   OH272541   6.624   1.544  14.925  0.2248  0.2278  0.2857
17017TIP3    H172542   6.700   1.545  14.983  0.7923 -1.2783 -0.3852
17017TIP3    H272543   6.607   1.452  14.909 -1.1711  0.5673 -0.3442
17018TIP3   OH272544   2.764   3.144  11.187  0.2977 -0.2056  0.0402
17018TIP3    H172545   2.722   3.062  11.212  0.8777 -0.2189  1.0637
17018TIP3    H272546   2.723   3.169  11.105 -2.7399  0.5225  1.6336
17019TIP3   OH272547   0.457   0.503   2.464 -0.6167 -0.4192  0.2073
17019TIP3    H172548   0.546   0.508   2.498 -1.1455  0.4763  1.5524
17019TIP3    H272549   0.463   0.543   2.377  0.4447 -1.1946 -0.0983
17020TIP3   OH272550   1.724   1.341   5.493  0.3338  0.0175  0.3706
17020TIP3    H172551   1.805   1.363   5.540  1.4684 -0.0818 -1.4249
17020TIP3    H272552   1.678   1.425   5.485  0.7320  0.2604  0.5569
17021TIP3   OH272553   1.149   2.121  11.602  0.1705 -0.5352 -0.1202
17021TIP3    H172554   1.135   2.204  11.647  0.1670  0.8652 -2.5154
17021TIP3    H272555   1.207   2.071  11.659  0.5609  1.3022  1.1602
17022TIP3   OH272556   6.362   2.722   5.412  0.3317  0.0221  0.3537
17022TIP3    H172557   6.445   2.723   5.461  0.8255  2.3123 -0.4351
17022TIP3    H272558   6.387   2.703   5.322  0.1705  1.6905 -0.0776
17023TIP3   OH272559   4.251   3.175  14.248  0.2436 -0.4710 -0.2324
17023TIP3    H172560   4.251   3.210  14.337 -2.2372 -0.9329  0.0219
17023TIP3    H272561   4.339   3.139  14.236  3.1491  5.5107 -0.4754
17024TIP3   OH272562   2.285   4.658  16.747 -0.0129 -0.0711 -0.0813
17024TIP3    H172563   2.236   4.740  16.745  0.0687 -0.0084  0.4936
17024TIP3    H272564   2.253   4.613  16.825 -0.4372 -0.8246 -0.6785
17025TIP3   OH272565   2.977   6.159   3.504 -0.4746 -0.2742  0.6078
17025TIP3    H172566   2.920   6.233   3.527 -0.8730  0.0727 -1.2510
17025TIP3    H272567   2.928   6.081   3.529 -0.7166  0.0668  1.2013
17026TIP3   OH272568   0.338   4.351  13.152  0.5662  0.2626 -0.2419
17026TIP3    H172569   0.244   4.357  13.131  0.7101  1.7410 -0.5436
17026TIP3    H272570   0.374   4.296  13.083 -0.1315 -0.6476  0.0923
17027TIP3   OH272571   5.555   1.865  14.253  0.1639 -0.1143  0.2707
17027TIP3    H172572   5.462   1.849  14.273  0.2798  0.4908  1.3296
17027TIP3    H272573   5.563   1.841  14.160 -0.5816 -2.1875  0.6902
17028TIP3   OH272574   0.000   4.880   2.504  0.4676 -0.1304 -0.0214
17028TIP3    H172575   0.063   4.838   2.445 -1.0778 -1.7501 -0.5799
17028TIP3    H272576  -0.029   4.810   2.562 -0.7764  0.5940  0.2519
17029TIP3   OH272577   5.256   4.560  15.830  0.2028 -0.0453  0.1165
17029TIP3    H172578   5.254   4.472  15.792  2.3131  0.1316 -0.5079
17029TIP3    H272579   5.190   4.608  15.781 -1.3672 -1.3720  0.8191
17030TIP3   OH272580   3.094   1.647   0.005  0.4949  0.1435  0.1862
17030TIP3    H172581   3.015   1.697  -0.013 -0.2130 -1.3613 -1.1607
17030TIP3    H272582   3.130   1.627  -0.081  1.3888 -0.6516  0.7205
17031TIP3   OH272583   6.556   0.666   3.675  0.3309 -0.6116  0.3562
17031TIP3    H172584   6.605   0.645   3.755  0.0109  0.6484  0.9146
17031TIP3    H272585   6.511   0.585   3.652  1.8904 -1.5295  0.3783
17032TIP3   OH272586   2.492   3.476   2.588  0.2724  0.8274 -0.2460
17032TIP3    H172587   2.504   3.397   2.534 -0.7339  0.4264  0.0866
17032TIP3    H272588   2.549   3.541   2.548  1.3869 -0.1678 -0.3220
17033TIP3   OH272589   1.359   4.453  12.230 -1.1294  0.5232 -0.0131
17033TIP3    H172590   1.306   4.373  12.225  1.5438 -1.5199  1.4271
17033TIP3    H272591   1.350   4.482  12.320 -1.0248  1.0902 -0.1810
17034TIP3   OH272592   0.843   6.719   4.657  0.3182 -0.1212 -0.3321
17034TIP3    H172593   0.792   6.741   4.735 -0.2202  0.1659 -0.7491
17034TIP3    H272594   0.933   6.708   4.688 -0.2721 -2.4993  0.7418
17035TIP3   OH272595   5.475   3.384  12.040  0.0552  0.4536 -0.5168
17035TIP3    H172596   5.490   3.289  12.033 -1.1199  0.1573  0.6037
17035TIP3    H272597   5.552   3.417  12.086  0.3402 -0.0162 -0.6520
17036TIP3   OH272598   3.084   4.956   3.471 -0.3070  0.1026  0.0343
17036TIP3    H172599   2.999   4.914   3.483  0.4855 -1.2420  1.2694
17036TIP3    H272600   3.097   4.959   3.376  0.1935 -3.8367 -0.1656
17037TIP3   OH272601   0.900   4.320  14.575 -0.0194  0.0731  0.2144
17037TIP3    H172602   0.918   4.227  14.588  0.1029  0.0423 -0.1781
17037TIP3    H272603   0.867   4.326  14.485  2.4569  0.7558 -0.7344
17038TIP3   OH272604   2.845   6.194  13.794  0.4822 -0.5898 -0.5120
17038TIP3    H172605   2.918   6.252  13.815 -0.9172  0.4429  1.8496
17038TIP3    H272606   2.884   6.107  13.790  1.8204 -0.0929  0.8740
17039TIP3   OH272607   2.628   4.106  16.622  1.2573 -0.0181 -0.2312
17039TIP3    H172608   2.607   4.051  16.547  2.6025 -0.2646 -0.4584
17039TIP3    H272609   2.717   4.080  16.646  1.5048  1.2851  0.3510
17040TIP3   OH272610   4.036   5.083  12.656 -0.5190  0.3960  0.0353
17040TIP3    H172611   4.036   5.132  12.574  0.2230  0.7038  0.2131
17040TIP3    H272612   4.128   5.083  12.684 -0.7282  0.0793  0.7357
17041TIP3   OH272613   6.530   1.837   3.053  0.8943  0.3169 -0.1522
17041TIP3    H172614   6.529   1.741   3.057  1.6105  0.2769 -0.7202
17041TIP3    H272615   6.608   1.863   3.102  1.4246  0.5333 -1.0845
17042TIP3   OH272616   5.800   2.548   0.949  0.1504  0.2697  0.4459
17042TIP3    H172617   5.850   2.597   0.884 -1.2401  0.3986 -0.5741
17042TIP3    H272618   5.763   2.615   1.007 -0.4795  0.3425 -0.0235
17043TIP3   OH272619   0.634   2.359  16.269  0.6166  0.2105  0.4684
17043TIP3    H172620   0.625   2.265  16.282  0.6439  0.2510  0.7820
17043TIP3    H272621   0.547   2.388  16.243  0.3250  0.2764  1.4866
17044TIP3   OH272622   0.811   0.053   6.887  0.5047  0.1546  0.2233
17044TIP3    H172623   0.878   0.118   6.905 -1.3498  1.6522  2.3532
17044TIP3    H272624   0.817   0.036   6.793  1.7733  2.5613 -0.1890
17045TIP3   OH272625   6.438   0.386  17.130 -0.1473  0.6225  0.0083
17045TIP3    H172626   6.415   0.461  17.185  0.8178  1.3321 -0.5273
17045TIP3    H272627   6.415   0.412  17.041  2.6534  1.4378 -0.5921
17046TIP3   OH272628   2.009   4.056  14.621  0.3494 -0.1501 -0.0294
17046TIP3    H172629   1.966   4.110  14.554 -0.2554 -0.0307  0.4499
17046TIP3    H272630   2.033   3.976  14.574 -0.5851 -0.3058 -0.2660
17047TIP3   OH272631   4.145   0.247   1.709 -0.3324  0.2715 -0.1519
17047TIP3    H172632   4.205   0.249   1.634  0.0776 -0.9944  0.1358
17047TIP3    H272633   4.123   0.339   1.723  2.4601  0.9139  0.4782
17048TIP3   OH272634   2.984   6.789  16.807  0.0691 -0.5492  0.0595
17048TIP3    H172635   2.987   6.717  16.743 -2.0221  0.4352 -1.2947
17048TIP3    H272636   2.977   6.868  16.753 -1.2485  0.3663  1.4912
17049TIP3   OH272637   6.733   2.482  11.336 -0.0718 -0.0260 -0.1573
17049TIP3    H172638   6.805   2.541  11.314 -0.3895  0.6295  0.4988
17049TIP3    H272639   6.720   2.429  11.257  0.6304  0.3616 -0.5425
17050TIP3   OH272640   2.349   3.775  12.731  0.0710 -0.0360 -0.4903
17050TIP3    H172641   2.440   3.779  12.761 -0.0610  1.8483 -0.2577
17050TIP3    H272642   2.353   3.724  12.650  1.4669  0.7300 -0.9393
17051TIP3   OH272643   3.249   2.334   0.282  0.1451 -0.1937  0.0302
17051TIP3    H172644   3.229   2.276   0.208  1.0845 -2.2456  1.2888
17051TIP3    H272645   3.163   2.356   0.318 -0.2189 -1.7905  0.2109
17052TIP3   OH272646   2.950   0.807  14.754  0.7461 -0.3500 -0.0057
17052TIP3    H172647   2.870   0.859  14.747  0.7869 -0.3554 -0.5393
17052TIP3    H272648   2.937   0.734  14.694  0.4763 -1.2574  1.1110
17053TIP3   OH272649   0.603   3.681  14.784 -0.3933  0.4307  0.4330
17053TIP3    H172650   0.623   3.612  14.847 -1.6658 -0.0040  0.3860
17053TIP3    H272651   0.568   3.753  14.837  0.0501  0.6857  0.3840
17054TIP3   OH272652   2.081   0.166  12.011 -0.0355 -0.4420  0.5609
17054TIP3    H172653   2.016   0.216  11.962  0.5222  0.6770  0.9184
17054TIP3    H272654   2.066   0.075  11.987 -1.5341 -0.1698  0.4176
17055TIP3   OH272655   5.530   2.690  14.098  0.1544  0.2080 -0.0554
17055TIP3    H172656   5.479   2.771  14.091 -1.5910 -0.8770 -0.4493
17055TIP3    H272657   5.479   2.634  14.157  1.6246 -0.4128  0.6788
17056TIP3   OH272658   5.764   0.722  14.883  0.3796 -0.2418  0.5285
17056TIP3    H172659   5.692   0.702  14.823  0.6858 -0.3187  0.1808
17056TIP3    H272660   5.772   0.817  14.881 -1.1933 -0.0226  2.3177
17057TIP3   OH272661   0.406   1.257   3.136 -0.7216  0.6641 -0.5177
17057TIP3    H172662   0.419   1.163   3.129  0.7090  0.8947 -1.2544
17057TIP3    H272663   0.319   1.272   3.098 -2.7139 -0.7311  3.0351
17058TIP3   OH272664   1.760   0.537  15.773  0.0964  0.1107 -0.0200
17058TIP3    H172665   1.734   0.532  15.681  0.3844 -0.0878 -0.0944
17058TIP3    H272666   1.680   0.518  15.822  0.3014 -1.4983 -0.2512
17059TIP3   OH272667   4.213   1.500   2.176  0.3192  0.2905 -0.2920
17059TIP3    H172668   4.246   1.423   2.129  2.6046  0.1997  1.3309
17059TIP3    H272669   4.118   1.488   2.177  0.6204 -3.1440  0.8807
17060TIP3   OH272670   3.529   6.313  14.640  0.0531  0.4272  0.4827
17060TIP3    H172671   3.592   6.384  14.652 -1.6942  1.8476  1.6939
17060TIP3    H272672   3.468   6.346  14.574  0.5409 -0.9517 -0.7156
17061TIP3   OH272673   1.433   3.291   5.640  0.5490 -0.1579 -0.5957
17061TIP3    H172674   1.512   3.322   5.595  0.3565  2.6455  0.7777
17061TIP3    H272675   1.449   3.312   5.732 -0.9543 -1.5368  0.0219
17062TIP3   OH272676   1.593   4.720  16.263 -0.4116  0.0274  0.0259
17062TIP3    H172677   1.652   4.659  16.307 -2.6331 -0.3423  2.7905
17062TIP3    H272678   1.580   4.791  16.326 -0.3059  1.8193 -1.8837
17063TIP3   OH272679   2.988   1.130  16.128 -0.4070 -0.1400  0.4023
17063TIP3    H172680   2.896   1.101  16.126 -0.6796  0.7335 -0.1586
17063TIP3    H272681   2.994   1.195  16.058 -0.1227  2.0815  2.4004
17064TIP3   OH272682   6.653   0.852  13.946 -0.3995  0.3408 -0.0106
17064TIP3    H172683   6.675   0.902  14.024  2.3029 -0.8521  0.1198
17064TIP3    H272684   6.667   0.912  13.873  4.1680 -0.3052  0.0339
17065TIP3   OH272685   5.741   3.239  15.057 -0.0101 -0.2837  0.2962
17065TIP3    H172686   5.768   3.229  15.148  0.2828  0.8683  0.3519
17065TIP3    H272687   5.646   3.225  15.059  0.0033 -0.3320  0.7738
17066TIP3   OH272688   5.647   0.321  15.196  0.1114 -0.1010 -0.0671
17066TIP3    H172689   5.693   0.276  15.267  0.1321 -0.9066 -0.5716
17066TIP3    H272690   5.717   0.355  15.140  0.1846 -2.0741 -1.3068
17067TIP3   OH272691   3.117   0.166   4.607 -0.0836  0.2718 -0.1154
17067TIP3    H172692   3.133   0.090   4.552  1.2243  0.9398 -0.6912
17067TIP3    H272693   3.022   0.173   4.611 -0.3010  1.0826 -3.5562
17068TIP3   OH272694   4.348   4.180   3.436 -0.4660 -0.3449 -0.5193
17068TIP3    H172695   4.392   4.185   3.351  0.4689 -1.8844 -0.1603
17068TIP3    H272696   4.419   4.166   3.499 -1.1833  0.4009  0.4881
17069TIP3   OH272697   4.991   5.403  10.927  0.4268 -0.7058  0.2186
17069TIP3    H172698   4.897   5.384  10.921  0.0510  1.1239 -0.2974
17069TIP3    H272699   4.995   5.497  10.942  2.2204 -0.3780 -1.8386
17070TIP3   OH272700   4.031   4.658  12.695 -0.5596  0.4441 -0.0954
17070TIP3    H172701   4.050   4.651  12.601 -2.9994 -1.6000 -0.5639
17070TIP3    H272702   4.089   4.593  12.735 -0.3268  0.5131 -0.3099
17071TIP3   OH272703   3.735   0.433  13.104 -0.2751  0.2251  0.2471
17071TIP3    H172704   3.698   0.366  13.161 -1.8612  2.1873  1.6664
17071TIP3    H272705   3.723   0.398  13.015 -0.9426 -1.3827  0.9385
17072TIP3   OH272706   6.194   6.095  16.730 -0.0512 -0.1941 -0.2740
17072TIP3    H172707   6.223   6.114  16.641  1.4224  0.5551  0.3301
17072TIP3    H272708   6.113   6.145  16.740  1.4743  2.4410 -0.1661
17073TIP3   OH272709   0.053   2.193  11.439  0.4701  0.5409  0.0709
17073TIP3    H172710   0.012   2.111  11.412  2.3537 -0.9306  1.4275
17073TIP3    H272711  -0.014   2.237  11.491  0.0576 -1.0978  1.0008
17074TIP3   OH272712   1.139   5.021   0.075 -0.4119 -0.4207 -0.6512
17074TIP3    H172713   1.219   5.055   0.035 -0.4585 -0.8343 -1.1129
17074TIP3    H272714   1.150   4.926   0.072  0.4632 -0.4790  2.1236
17075TIP3   OH272715   1.825   5.332   5.269 -0.2783 -0.5047  0.1576
17075TIP3    H172716   1.820   5.415   5.316  0.3534 -0.4253  0.0994
17075TIP3    H272717   1.905   5.291   5.301 -0.4305 -0.9605 -0.0312
17076TIP3   OH272718   2.719   0.893   3.840 -0.1336 -0.4431  0.3014
17076TIP3    H172719   2.795   0.881   3.897 -0.5839 -0.4383  0.9155
17076TIP3    H272720   2.696   0.804   3.812  1.5833 -0.2651 -1.8998
17077TIP3   OH272721   1.881   4.880  13.096 -0.1983  0.2422 -0.4500
17077TIP3    H172722   1.845   4.792  13.095 -0.5164  0.3734 -0.8768
17077TIP3    H272723   1.924   4.889  13.010  1.5292 -0.1843  0.3172
17078TIP3   OH272724   0.612   2.937  16.167  0.0616  0.7199 -0.5988
17078TIP3    H172725   0.576   2.926  16.255  0.2722 -2.2152 -0.7706
17078TIP3    H272726   0.693   2.986  16.180  0.0005  0.4864  0.8113
17079TIP3   OH272727   5.494   4.662   0.415  0.8977 -0.0108 -0.2903
17079TIP3    H172728   5.558   4.642   0.347  0.2508 -0.5947 -0.7423
17079TIP3    H272729   5.536   4.728   0.470  2.3340 -1.1999  0.0929
17080TIP3   OH272730   1.476   5.488   1.841 -0.0956  0.3036  0.9431
17080TIP3    H172731   1.468   5.430   1.765 -0.0251  1.2539  0.1959
17080TIP3    H272732   1.386   5.507   1.866 -0.1244  0.5634  0.6465
17081TIP3   OH272733   1.951   5.368   6.045 -0.1907  0.5001  0.2821
17081TIP3    H172734   1.911   5.355   6.131  0.7493  0.5637  0.7433
17081TIP3    H272735   2.027   5.424   6.063 -0.3541  1.0465 -0.6905
17082TIP3   OH272736   3.327   4.372  12.903 -0.4986  0.4735 -0.4707
17082TIP3    H172737   3.328   4.338  12.813 -0.6117  2.4435 -1.2781
17082TIP3    H272738   3.236   4.362  12.930 -0.8913  1.5163 -1.3018
17083TIP3   OH272739   5.632   3.292   1.282 -0.7927  0.3198 -0.2756
17083TIP3    H172740   5.597   3.309   1.195 -0.9514  0.8291 -0.1133
17083TIP3    H272741   5.723   3.323   1.278 -0.6422 -0.1235 -0.4070
17084TIP3   OH272742   2.200   4.063  12.089 -0.2316 -0.2521 -0.3725
17084TIP3    H172743   2.286   4.103  12.084 -0.7842  1.4519  2.2623
17084TIP3    H272744   2.158   4.088  12.006  1.5104 -0.5735 -1.4180
17085TIP3   OH272745   6.307   5.401   2.301  0.1324  0.0490  0.0531
17085TIP3    H172746   6.382   5.347   2.325  0.3418  0.1543 -0.3545
17085TIP3    H272747   6.345   5.487   2.281 -0.4294  1.2215  3.3521
17086TIP3   OH272748   6.161   3.938   1.380  0.0881  0.3413 -0.4141
17086TIP3    H172749   6.083   3.938   1.437  0.3748 -0.4267 -0.0098
17086TIP3    H272750   6.126   3.945   1.292 -0.3170  3.0536 -0.1211
17087TIP3   OH272751   4.518   4.591  15.708  0.0782 -0.1848  0.8276
17087TIP3    H172752   4.563   4.619  15.787 -0.5858  0.1690  1.0892
17087TIP3    H272753   4.452   4.528  15.738 -0.2740  0.0602  0.5808
17088TIP3   OH272754   2.134   0.307  10.766  0.0982  0.1604 -0.0540
17088TIP3    H172755   2.080   0.299  10.845  0.3454  0.6898  0.1675
17088TIP3    H272756   2.100   0.239  10.707 -0.4319  0.1119  0.3048
17089TIP3   OH272757   3.291   6.570   3.484  0.0415 -0.0838  0.5415
17089TIP3    H172758   3.252   6.654   3.460  1.0758  0.0971 -0.5501
17089TIP3    H272759   3.224   6.528   3.538 -0.4557  1.4745  1.2044
17090TIP3   OH272760   4.356   2.115   6.189 -0.3536 -0.0841  0.2304
17090TIP3    H172761   4.386   2.184   6.248 -0.5825  0.4149 -0.2335
17090TIP3    H272762   4.400   2.036   6.221  1.2371  0.5743 -0.2610
17091TIP3   OH272763   6.739   1.492   1.712 -0.5011  0.3176  0.1281
17091TIP3    H172764   6.800   1.556   1.676 -3.2079  2.7057 -0.5850
17091TIP3    H272765   6.773   1.474   1.800  2.9718 -1.1024 -1.3026
17092TIP3   OH272766   1.161   2.307   3.648  0.0487 -0.2624 -0.1744
17092TIP3    H172767   1.116   2.244   3.593 -0.7832 -0.4496  0.6985
17092TIP3    H272768   1.179   2.260   3.730 -0.9549  0.7112  0.6543
17093TIP3   OH272769   2.538   6.575  14.192 -0.1101 -0.3670 -0.1892
17093TIP3    H172770   2.629   6.560  14.165 -0.4169 -0.5309 -1.1691
17093TIP3    H272771   2.520   6.507  14.257 -0.3083 -1.9685 -1.8394
17094TIP3   OH272772   5.465   4.996   0.820  0.4469  0.5233 -0.1602
17094TIP3    H172773   5.417   5.078   0.830  0.0170  0.3220 -0.5783
17094TIP3    H272774   5.556   5.020   0.837  1.0764  2.0282 -4.4811
17095TIP3   OH272775   2.613   0.338  10.571  1.1358 -0.6005 -0.1116
17095TIP3    H172776   2.524   0.354  10.599  1.1779  0.3943 -0.5249
17095TIP3    H272777   2.609   0.254  10.525  0.4036 -0.5176 -0.2027
17096TIP3   OH272778   3.603   1.405   1.925 -0.5379  0.4876 -0.3753
17096TIP3    H172779   3.650   1.372   1.848 -0.3822  0.8891 -0.4530
17096TIP3    H272780   3.554   1.329   1.957 -0.0014  0.1215 -0.4139
17097TIP3   OH272781   6.024   1.351   3.600 -0.4193 -0.2234  0.4198
17097TIP3    H172782   6.029   1.256   3.613  0.3493 -0.3259 -0.5046
17097TIP3    H272783   5.982   1.361   3.515  2.3142  0.1479 -0.9674
17098TIP3   OH272784   1.531   4.399   4.047  0.1792  0.4610 -0.5466
17098TIP3    H172785   1.568   4.311   4.048  1.4970  0.9841  0.7081
17098TIP3    H272786   1.601   4.453   4.010 -0.7674  0.9448 -1.6885
17099TIP3   OH272787   2.656   4.284   1.328  0.1986  0.0124 -0.1233
17099TIP3    H172788   2.650   4.331   1.411 -0.9647  3.3408 -1.8912
17099TIP3    H272789   2.621   4.197   1.348  0.4408  0.4978  2.9488
17100TIP3   OH272790   0.920   1.555  12.458 -0.3787 -0.2940 -0.1415
17100TIP3    H172791   0.826   1.567  12.443 -0.7973  1.1724  2.9220
17100TIP3    H272792   0.926   1.470  12.502 -0.5643  0.5141  1.4968
17101TIP3   OH272793   0.070   3.031   5.928  0.3287 -0.0373  0.0513
17101TIP3    H172794   0.155   3.061   5.896  0.1127  0.2726 -0.2387
17101TIP3    H272795   0.084   3.010   6.020  0.6705  0.1937  0.0506
17102TIP3   OH272796   2.462   6.396  11.080 -0.2127  0.2467 -0.7112
17102TIP3    H172797   2.418   6.423  11.000  0.1410  0.3980 -0.8556
17102TIP3    H272798   2.532   6.338  11.051 -0.0810  0.3046 -0.5133
17103TIP3   OH272799   3.376   1.619  13.009  0.0677 -0.2895 -0.2810
17103TIP3    H172800   3.429   1.577  13.077 -0.0541 -1.8166 -1.1024
17103TIP3    H272801   3.387   1.713  13.026  0.3326 -0.6178  1.6100
17104TIP3   OH272802   0.720   3.859  13.290 -0.1997  0.0419 -0.2740
17104TIP3    H172803   0.627   3.862  13.268 -0.4706 -0.1925  0.7981
17104TIP3    H272804   0.762   3.826  13.211 -0.7185  2.3519 -1.6230
17105TIP3   OH272805   5.199   4.559  16.162 -0.4116 -0.0155 -0.1037
17105TIP3    H172806   5.155   4.507  16.095 -2.2046  1.9050 -0.5521
17105TIP3    H272807   5.138   4.558  16.236 -0.7165  1.6926 -0.2816
17106TIP3   OH272808   1.162   3.240   2.099 -0.1077  0.1715  0.2588
17106TIP3    H172809   1.217   3.316   2.083  0.1624  0.0500  0.6013
17106TIP3    H272810   1.143   3.205   2.012  0.6051  0.0412  0.1525
17107TIP3   OH272811   4.917   6.019   2.800  0.3365 -0.3903  0.2421
17107TIP3    H172812   4.901   5.928   2.826 -1.3093 -0.5647 -1.1860
17107TIP3    H272813   4.938   6.013   2.707 -3.3038  0.8682 -0.8398
17108TIP3   OH272814   3.461   2.346   0.521  0.2755  0.0400 -0.7343
17108TIP3    H172815   3.471   2.382   0.433  0.4328 -0.8474 -1.0886
17108TIP3    H272816   3.381   2.386   0.554 -0.0986 -0.0624 -1.5037
17109TIP3   OH272817   1.330   6.626  12.437  0.0182  0.0420  0.3216
17109TIP3    H172818   1.411   6.608  12.484 -0.5261  3.1383  2.8503
17109TIP3    H272819   1.262   6.617  12.504 -1.3643  0.5012 -0.9751
17110TIP3   OH272820   6.114   0.625   2.560  0.1106 -0.0909  0.2401
17110TIP3    H172821   6.107   0.569   2.637  0.1365  1.3981  1.3749
17110TIP3    H272822   6.187   0.590   2.510  0.5655 -0.6435  1.2737
17111TIP3   OH272823   2.788   6.440   0.150  0.0812 -0.3693  0.0779
17111TIP3    H172824   2.797   6.398   0.235  1.1536 -1.5541 -0.5991
17111TIP3    H272825   2.846   6.516   0.155 -0.6887  0.1984  0.7609
17112TIP3   OH272826   4.503   0.491  14.969 -0.2154  0.1504  0.2626
17112TIP3    H172827   4.577   0.549  14.989 -0.8883  0.7419  1.1118
17112TIP3    H272828   4.426   0.548  14.975 -0.7333 -0.4115 -0.8074
17113TIP3   OH272829   6.715   2.278  15.278 -1.1027  0.2836  0.3347
17113TIP3    H172830   6.692   2.370  15.296 -3.2881  0.1599 -1.3833
17113TIP3    H272831   6.705   2.234  15.363 -1.0264  1.4423  0.9667
17114TIP3   OH272832   5.977   3.684   0.001  0.3006 -0.4370  0.2401
17114TIP3    H172833   6.038   3.610   0.005  1.0057  0.1407  0.5116
17114TIP3    H272834   6.034   3.761  -0.002 -0.2634  0.0532 -3.4153
17115TIP3   OH272835   3.709   2.179   4.516  0.0819 -0.5579 -0.0145
17115TIP3    H172836   3.687   2.098   4.470  1.5223 -2.2001  2.0333
17115TIP3    H272837   3.651   2.180   4.592  0.7066 -0.1362  0.4640
17116TIP3   OH272838   4.844   3.846   0.045 -0.4060  0.2175  0.3502
17116TIP3    H172839   4.935   3.821   0.027 -1.1656 -0.7099 -2.8033
17116TIP3    H272840   4.851   3.932   0.087  1.9420  1.2232 -1.8160
17117TIP3   OH272841   3.939   2.063  12.873  0.2627  0.1486  0.1801
17117TIP3    H172842   3.986   2.137  12.832 -0.9429  1.4844  1.1326
17117TIP3    H272843   3.849   2.093  12.881 -0.7926 -2.2819 -1.3871
17118TIP3   OH272844   0.029   2.907  14.597  0.1313  0.0384 -0.0781
17118TIP3    H172845   0.081   2.836  14.560  0.4816  0.5753 -0.6605
17118TIP3    H272846  -0.052   2.866  14.627 -0.1814 -0.4359 -1.4800
17119TIP3   OH272847   4.928   0.260  14.065  0.3235 -0.0877  0.5473
17119TIP3    H172848   4.843   0.304  14.072  0.0506 -0.6647  0.9127
17119TIP3    H272849   4.915   0.175  14.107  0.7706 -0.6391 -0.3916
17120TIP3   OH272850   0.201   5.191   3.376  0.2571  0.5213 -0.1567
17120TIP3    H172851   0.200   5.145   3.292  0.2666 -1.9570  1.0984
17120TIP3    H272852   0.230   5.125   3.438  1.7804  2.6999  1.5987
17121TIP3   OH272853   2.195   1.652   2.699 -0.3217  0.0138 -0.5582
17121TIP3    H172854   2.223   1.562   2.680  0.0701  0.3841 -1.8835
17121TIP3    H272855   2.247   1.677   2.776  0.0686 -0.6647 -0.5868
17122TIP3   OH272856   1.231   0.298   2.821 -0.6475 -0.1225  0.2661
17122TIP3    H172857   1.306   0.268   2.770  0.2340 -2.7024  2.8185
17122TIP3    H272858   1.260   0.383   2.856 -0.0608  0.2039 -0.9210
17123TIP3   OH272859   2.057   2.273  13.329  0.1848 -0.1532  0.3736
17123TIP3    H172860   2.127   2.249  13.388 -0.2918  1.5682  1.7123
17123TIP3    H272861   2.101   2.290  13.245  1.8320  3.1464  1.7172
17124TIP3   OH272862   1.083   2.247  16.553  0.0388 -0.7509 -0.6388
17124TIP3    H172863   1.035   2.197  16.619 -0.8496 -1.4784 -1.8041
17124TIP3    H272864   1.175   2.226  16.570  0.3234  2.3504  3.0246
17125TIP3   OH272865   1.383   6.384   5.256  0.1330 -0.6175  0.6935
17125TIP3    H172866   1.418   6.354   5.340  2.3029  0.1587  0.1290
17125TIP3    H272867   1.346   6.471   5.275  0.3649 -0.5634  0.9030
17126TIP3   OH272868   4.445   5.631   5.472 -0.2185 -0.7469  0.1144
17126TIP3    H172869   4.458   5.644   5.378  0.9036 -1.1984  0.1975
17126TIP3    H272870   4.513   5.570   5.498 -0.9779 -1.2052  1.0946
17127TIP3   OH272871   1.450   3.734   5.339 -0.3073  0.0924 -0.4393
17127TIP3    H172872   1.480   3.699   5.255  0.3315  0.5707 -0.4115
17127TIP3    H272873   1.364   3.693   5.351  0.3801 -1.4437 -0.4349
17128TIP3   OH272874   2.402   6.701   1.092  0.1272 -0.1555  0.0322
17128TIP3    H172875   2.352   6.743   1.163  0.9337 -0.3466  0.7280
17128TIP3    H272876   2.401   6.608   1.113 -0.6024 -0.3653 -0.8461
17129TIP3   OH272877   4.025   4.683   0.737  0.3125 -0.5246  0.2765
17129TIP3    H172878   4.002   4.767   0.698 -0.0077 -0.1468  1.2264
17129TIP3    H272879   4.103   4.654   0.690 -0.1775 -0.1953 -0.7510
17130TIP3   OH272880   1.827   2.415   3.063 -1.1034 -0.1159 -0.6146
17130TIP3    H172881   1.783   2.349   3.009 -0.2494 -0.5732 -0.7852
17130TIP3    H272882   1.814   2.385   3.153 -2.2648  0.4777 -0.5714
17131TIP3   OH272883   5.697   2.802  11.337  0.0018 -0.0821 -0.0325
17131TIP3    H172884   5.737   2.722  11.370  1.2969  0.4486 -0.2469
17131TIP3    H272885   5.732   2.812  11.249 -0.0648  0.7699  0.0289
17132TIP3   OH272886   5.919   5.726  13.936  0.3352  0.0473  0.0110
17132TIP3    H172887   5.931   5.673  13.857 -0.8019 -0.7348  0.3340
17132TIP3    H272888   5.937   5.665  14.008 -0.0409  0.3652  0.3755
17133TIP3   OH272889   4.675   5.952   0.477  0.1721 -0.2098 -0.4837
17133TIP3    H172890   4.662   5.892   0.550 -2.7764  2.4177  1.4130
17133TIP3    H272891   4.727   6.024   0.512 -0.8149  0.8381 -1.0967
17134TIP3   OH272892   2.423   4.855   4.882  0.2221  0.0548 -0.0634
17134TIP3    H172893   2.465   4.940   4.870 -1.0087  0.5275 -1.1621
17134TIP3    H272894   2.483   4.793   4.840 -1.1925  0.9956 -3.8371
17135TIP3   OH272895   1.426   4.325   3.757  0.6927  0.3131 -0.6103
17135TIP3    H172896   1.362   4.374   3.706 -0.6546 -1.4899 -0.7358
17135TIP3    H272897   1.405   4.344   3.848  1.8057  1.9200 -0.6502
17136TIP3   OH272898   0.984   5.412  14.041  0.3749  0.2800 -0.1671
17136TIP3    H172899   0.938   5.492  14.068 -0.4794 -1.0480  2.7858
17136TIP3    H272900   0.925   5.370  13.979 -0.2437  0.8554  0.0153
17137TIP3   OH272901   6.521   3.838   1.281 -0.2389 -0.4299 -0.0124
17137TIP3    H172902   6.595   3.839   1.341 -0.1462 -2.5962 -0.0113
17137TIP3    H272903   6.467   3.911   1.308  0.2932 -0.7486  2.0799
17138TIP3   OH272904   5.845   6.259  15.487  0.0355  0.1846 -0.0515
17138TIP3    H172905   5.847   6.222  15.398 -2.4287  3.0607 -1.4624
17138TIP3    H272906   5.904   6.334  15.483 -1.3077  1.2864  0.2051
17139TIP3   OH272907   4.277   3.851  11.101  0.3601  0.0034  0.0211
17139TIP3    H172908   4.306   3.771  11.143  1.9651 -0.0946 -1.1910
17139TIP3    H272909   4.338   3.918  11.131 -0.5719  0.6567  0.5127
17140TIP3   OH272910   3.177   1.380  17.015 -0.2101  0.4399  0.4201
17140TIP3    H172911   3.218   1.377  16.928  1.9357  0.3478  1.3716
17140TIP3    H272912   3.095   1.332  17.004  0.0124  0.4004 -1.5362
17141TIP3   OH272913   2.823   4.973  14.316 -0.4068 -0.3617  0.2481
17141TIP3    H172914   2.851   4.903  14.375 -0.2244 -0.9798 -0.5536
17141TIP3    H272915   2.751   4.934  14.265 -1.5599  0.6422  1.0759
17142TIP3   OH272916   0.594   0.231  13.475  0.0755 -0.1193  0.0605
17142TIP3    H172917   0.546   0.211  13.556  1.4799  3.6223  2.0678
17142TIP3    H272918   0.685   0.205  13.494  0.5089  1.2265 -0.0981
17143TIP3   OH272919   0.280   2.903   4.774  0.2806  0.0242 -0.8364
17143TIP3    H172920   0.362   2.947   4.797 -0.5777  2.6926 -2.4646
17143TIP3    H272921   0.237   2.963   4.713 -1.6208 -2.5489 -2.2110
17144TIP3   OH272922   1.084   0.777  15.474 -0.3411 -0.4467 -0.3313
17144TIP3    H172923   1.051   0.688  15.490 -0.9537 -0.3351 -0.9438
17144TIP3    H272924   1.149   0.791  15.543 -0.6402 -1.1628  0.1071
17145TIP3   OH272925   4.853   0.290  15.905 -0.4147  0.0025 -0.3953
17145TIP3    H172926   4.774   0.295  15.852  0.8307 -0.0667 -2.3668
17145TIP3    H272927   4.893   0.376  15.897 -0.1647 -0.0346  0.3896
17146TIP3   OH272928   4.535   5.562  11.949 -0.2667 -0.0109  0.4920
17146TIP3    H172929   4.449   5.582  11.912  0.0852 -0.0335 -0.3557
17146TIP3    H272930   4.597   5.585  11.880  0.5081  1.2087  1.5605
17147TIP3   OH272931   1.620   2.004  12.257  0.2951  0.4234 -0.2622
17147TIP3    H172932   1.535   2.021  12.217  0.1453  0.5912  0.1161
17147TIP3    H272933   1.677   2.072  12.223  0.2053  0.4814 -0.2956
17148TIP3   OH272934   2.888   4.866   1.293 -0.0891 -0.2126 -0.8792
17148TIP3    H172935   2.944   4.909   1.228  0.1308  0.5688 -0.1862
17148TIP3    H272936   2.807   4.847   1.246 -0.1760  0.9245 -1.2240
17149TIP3   OH272937   1.410   3.654   7.027 -0.1353 -0.0151  0.7641
17149TIP3    H172938   1.314   3.651   7.027 -0.1653 -0.0024  2.2455
17149TIP3    H272939   1.432   3.727   6.969 -1.0305  0.1546  0.6256
17150TIP3   OH272940   2.571   5.356  14.056  0.4207 -0.1196  0.0522
17150TIP3    H172941   2.508   5.377  13.988  1.9313 -0.5321 -1.5519
17150TIP3    H272942   2.628   5.433  14.061  0.1857  0.0085  1.0518
17151TIP3   OH272943   5.676   2.227   4.676  0.6952  0.1774  0.2899
17151TIP3    H172944   5.636   2.277   4.747 -0.4300 -0.3738  0.0694
17151TIP3    H272945   5.753   2.187   4.715  0.2962  0.1809  1.1101
17152TIP3   OH272946   2.905   4.638  16.585 -0.4731  0.3448  0.0943
17152TIP3    H172947   2.854   4.563  16.616 -0.7197  0.6605  0.4642
17152TIP3    H272948   2.839   4.699  16.551 -0.4828  1.3072  1.7265
17153TIP3   OH272949   5.692   4.623   0.216  0.3682  0.5298  0.5060
17153TIP3    H172950   5.777   4.593   0.249  0.5451 -0.6051 -0.8998
17153TIP3    H272951   5.688   4.591   0.126 -1.5380  0.5841  0.5277
17154TIP3   OH272952   6.385   4.478   3.328  0.3631  0.2737  0.3199
17154TIP3    H172953   6.380   4.405   3.266 -0.6356  0.6848 -0.1085
17154TIP3    H272954   6.363   4.439   3.412  1.6429 -0.2716  0.4143
17155TIP3   OH272955   6.248   4.318   2.043 -0.2523  0.4888 -0.0941
17155TIP3    H172956   6.306   4.373   2.095 -0.1744 -0.2544  0.6084
17155TIP3    H272957   6.277   4.331   1.953  0.4759  0.7499  0.1740
17156TIP3   OH272958   4.573   3.191   4.518  0.2221  0.1135  0.1230
17156TIP3    H172959   4.607   3.175   4.606 -1.2897  0.9789  0.9006
17156TIP3    H272960   4.497   3.133   4.511  1.4991 -1.5001 -1.4417
17157TIP3   OH272961   2.834   1.595  11.943  0.1429  0.2270  0.8330
17157TIP3    H172962   2.901   1.528  11.927 -0.2907 -0.4506  1.7769
17157TIP3    H272963   2.883   1.677  11.952  0.7425 -0.0861  0.4841
17158TIP3   OH272964   1.283   3.665   3.866 -0.1225  0.0366  0.3293
17158TIP3    H172965   1.254   3.742   3.817  1.4275  0.3662 -0.1375
17158TIP3    H272966   1.345   3.621   3.807 -0.0407 -0.8806  1.0776
17159TIP3   OH272967   4.805   0.597  14.958 -0.3831  0.2529 -0.1267
17159TIP3    H172968   4.834   0.577  15.047 -1.2586  1.4870  0.4781
17159TIP3    H272969   4.827   0.520  14.907  1.3973  0.0530  0.8623
17160TIP3   OH272970   5.957   4.167   5.963  0.2292  0.3900 -0.0319
17160TIP3    H172971   5.905   4.104   6.013  0.4930  0.2540  0.0718
17160TIP3    H272972   5.926   4.158   5.873 -0.9846  1.3619  0.2468
17161TIP3   OH272973   2.897   0.474  16.649 -0.3163  0.0815  0.2406
17161TIP3    H172974   2.918   0.476  16.742  4.2639 -0.6830 -0.5158
17161TIP3    H272975   2.907   0.564  16.619 -0.8525  0.1749  0.3485
17162TIP3   OH272976   4.016   3.345   1.632  0.0475  0.7200 -0.4747
17162TIP3    H172977   4.073   3.368   1.559 -0.6074 -0.8173 -1.5487
17162TIP3    H272978   3.962   3.422   1.647  0.2155  1.0736 -1.6241
17163TIP3   OH272979   6.755   0.903  13.385  0.3522 -0.1072  0.1678
17163TIP3    H172980   6.730   0.821  13.426 -0.2512  0.0949  0.2134
17163TIP3    H272981   6.810   0.948  13.450 -0.4355  0.1272  0.6847
17164TIP3   OH272982   2.304   0.666  14.050 -0.4543 -0.2926  0.4762
17164TIP3    H172983   2.232   0.726  14.073 -2.2542 -1.8522 -0.8186
17164TIP3    H272984   2.382   0.722  14.048 -1.7087  1.5930  1.2883
17165TIP3   OH272985   6.382   1.708  14.873 -0.0136  0.1055  0.2157
17165TIP3    H172986   6.364   1.764  14.949 -0.9465 -0.2253  0.2534
17165TIP3    H272987   6.467   1.669  14.892 -0.0486  0.3403  0.9075
17166TIP3   OH272988   4.830   5.704   0.600  0.2579  0.2056  0.2434
17166TIP3    H172989   4.776   5.631   0.569  1.1676 -0.8356  0.9972
17166TIP3    H272990   4.919   5.681   0.573  0.4787  1.3772 -0.0774
17167TIP3   OH272991   1.904   0.203  15.185 -0.0399 -0.2271  0.2553
17167TIP3    H172992   1.958   0.266  15.138 -0.3458 -0.1033  0.0668
17167TIP3    H272993   1.967   0.142  15.225  0.2229 -0.3661 -0.3547
17168TIP3   OH272994   5.113   6.464  11.675 -0.4760  0.0018  0.2655
17168TIP3    H172995   5.089   6.535  11.615  1.4210 -0.6693 -1.4216
17168TIP3    H272996   5.190   6.497  11.722  1.2599 -1.2725 -1.4822
17169TIP3   OH272997   2.095   4.154  16.658  0.3529  0.1056  0.2908
17169TIP3    H172998   2.097   4.178  16.566 -0.1071  1.9989  0.7458
17169TIP3    H272999   2.031   4.083  16.662  1.8890 -1.4648 -1.1105
17170TIP3   OH273000   1.998   1.450   0.847  0.5804 -0.0407 -0.6079
17170TIP3    H173001   1.959   1.394   0.913  1.7265  0.6339  0.6976
17170TIP3    H273002   2.021   1.391   0.775 -0.6657 -0.7901 -0.4138
17171TIP3   OH273003   1.003   6.593  17.257  0.4074 -0.2223  0.0992
17171TIP3    H173004   1.066   6.585  17.329  0.1098  1.1924  0.5468
17171TIP3    H273005   1.055   6.577  17.178  1.6398  2.1015  0.3708
17172TIP3   OH273006   4.112   2.675   3.683 -0.1876 -0.0685  0.0527
17172TIP3    H173007   4.042   2.644   3.740 -1.0752  1.5023 -0.1112
17172TIP3    H273008   4.076   2.755   3.644  0.4876 -0.9381 -2.5146
17173TIP3   OH273009   5.846   6.378  12.506  0.1203  0.5517  0.1283
17173TIP3    H173010   5.807   6.345  12.587  0.6720 -1.2361 -0.2807
17173TIP3    H273011   5.936   6.401  12.529  0.6613 -1.0808 -0.1542
17174TIP3   OH273012   0.409   2.600   6.559 -0.2639 -0.3022  0.4567
17174TIP3    H173013   0.380   2.541   6.488 -0.9984 -0.6515  1.0309
17174TIP3    H273014   0.491   2.562   6.589  0.5054  0.3241 -0.7573
17175TIP3   OH273015   3.293   1.215   2.147  0.1567 -0.2248 -0.3784
17175TIP3    H173016   3.318   1.195   2.237 -0.6851 -2.8522 -0.6223
17175TIP3    H273017   3.291   1.310   2.143  0.5922 -0.0258  2.2654
17176TIP3   OH273018   2.051   5.166  13.744 -0.3910 -0.4457  0.3137
17176TIP3    H173019   2.096   5.234  13.693  0.9245 -0.7157  1.0613
17176TIP3    H273020   1.958   5.184  13.731 -0.1612 -0.8710 -2.6713
17177TIP3   OH273021   5.114   0.838  12.421  0.5019 -0.2447  0.8214
17177TIP3    H173022   5.149   0.780  12.354 -0.3076 -2.2280  2.0356
17177TIP3    H273023   5.173   0.827  12.496  0.5535  0.8135  0.9566
17178TIP3   OH273024   0.844   6.792  12.846 -0.2276  0.5939  0.3648
17178TIP3    H173025   0.773   6.749  12.800  0.0226  0.7279 -0.1515
17178TIP3    H273026   0.874   6.727  12.910 -0.1272  0.1557 -0.1231
17179TIP3   OH273027   4.393   0.053  10.797  1.1321  0.1361  0.1747
17179TIP3    H173028   4.313   0.060  10.850  1.2748  2.2904  0.1984
17179TIP3    H273029   4.450  -0.006  10.847 -0.1663 -0.9016  0.4905
17180TIP3   OH273030   0.073   4.273   4.703 -0.2974 -0.2012 -0.1853
17180TIP3    H173031   0.013   4.210   4.663 -1.7594  1.7886 -1.3175
17180TIP3    H273032   0.028   4.303   4.782  0.1350 -0.1670  0.0514
17181TIP3   OH273033   2.189   2.081   6.711  0.5245 -0.0921 -0.6678
17181TIP3    H173034   2.102   2.070   6.750  0.3720  1.2169 -0.5759
17181TIP3    H273035   2.171   2.102   6.619  0.7122  0.6708 -0.5364
17182TIP3   OH273036   0.543   1.280  11.433 -0.0851 -0.0844  0.3755
17182TIP3    H173037   0.491   1.358  11.453  2.1521  1.4944  0.4089
17182TIP3    H273038   0.525   1.220  11.505 -0.4466  1.1747  1.3766
17183TIP3   OH273039   0.689   5.308  16.135  0.1196 -0.2327  0.2747
17183TIP3    H173040   0.672   5.393  16.176  2.8957 -0.5218  2.3364
17183TIP3    H273041   0.622   5.250  16.172 -1.3068  0.8434 -0.5393
17184TIP3   OH273042   3.891   3.323  15.291 -0.6329 -0.3784  0.3061
17184TIP3    H173043   3.966   3.331  15.232  1.4592  1.7395  2.9941
17184TIP3    H273044   3.872   3.229  15.293  2.0572 -1.0301 -0.3780
17185TIP3   OH273045   2.735   6.545   4.583  0.1191 -0.0490 -0.1199
17185TIP3    H173046   2.685   6.622   4.555 -0.9516 -1.2184 -1.5585
17185TIP3    H273047   2.757   6.500   4.502  1.9143 -0.5766  0.6159
17186TIP3   OH273048   2.930   0.135  10.663 -0.3806  0.0034 -0.7883
17186TIP3    H173049   2.891   0.216  10.630  1.5372  0.9956 -0.7548
17186TIP3    H273050   2.857   0.088  10.702 -1.0998  3.2479  2.2696
17187TIP3   OH273051   1.704   3.785   4.136  0.5088 -0.5161  0.1687
17187TIP3    H173052   1.650   3.848   4.184  2.9312  0.9149  1.2201
17187TIP3    H273053   1.642   3.732   4.087 -1.7582  1.5370  0.6461
17188TIP3   OH273054   5.058   0.196   1.513 -0.1253  0.8576 -0.2441
17188TIP3    H173055   5.132   0.235   1.468  0.1458  1.2006  0.4822
17188TIP3    H273056   5.070   0.102   1.503  1.8971  0.7535  2.0762
17189TIP3   OH273057   4.491   6.548  11.761 -0.8867 -0.1480 -0.3843
17189TIP3    H173058   4.517   6.567  11.671 -1.4023 -0.1326 -0.5313
17189TIP3    H273059   4.407   6.593  11.772  0.5337  2.3034  1.0419
17190TIP3   OH273060   6.390   0.121  16.795 -0.2782  0.0347  0.1919
17190TIP3    H173061   6.352   0.162  16.873  0.4968 -0.6936  0.9752
17190TIP3    H273062   6.416   0.034  16.824  1.2343  0.2139 -0.5191
17191TIP3   OH273063   3.910   1.189  15.105 -0.5327 -0.5110  0.0371
17191TIP3    H173064   4.005   1.191  15.097 -0.6107 -0.7494 -1.1746
17191TIP3    H273065   3.889   1.266  15.159  0.5457 -2.4290  3.4403
17192TIP3   OH273066   6.216   3.459  15.952 -0.6809 -0.4437  0.4463
17192TIP3    H173067   6.235   3.448  16.045  3.1785 -1.4738 -0.2991
17192TIP3    H273068   6.247   3.548  15.932  0.9867 -1.1249 -0.2485
17193TIP3   OH273069   1.276   4.656  10.748 -0.4190  0.6796 -0.6524
17193TIP3    H173070   1.319   4.741  10.735  0.1585  0.8094  1.6601
17193TIP3    H273071   1.200   4.676  10.803  1.2880 -0.5300  2.4114
17194TIP3   OH273072   5.794   2.580   0.558  0.2909 -0.0252  0.5461
17194TIP3    H173073   5.852   2.645   0.519  1.3727 -1.6067 -0.6277
17194TIP3    H273074   5.849   2.502   0.567 -1.1475 -0.9955  1.2326
17195TIP3   OH273075   6.385   0.771   1.888  0.0558 -0.0297 -0.0479
17195TIP3    H173076   6.472   0.747   1.857  0.4794  0.6615  0.5744
17195TIP3    H273077   6.325   0.723   1.831  0.8344 -0.2218 -0.7207
17196TIP3   OH273078   3.735   6.625   3.763  0.6437 -0.0892 -0.3981
17196TIP3    H173079   3.693   6.543   3.788 -1.0520  1.0413  0.6198
17196TIP3    H273080   3.671   6.669   3.707 -0.4449  2.4625  2.5836
17197TIP3   OH273081   1.767   3.026   3.964  0.0983  0.8857  0.6503
17197TIP3    H173082   1.777   3.094   4.031  1.0185  0.7336  0.6899
17197TIP3    H273083   1.730   2.951   4.011  0.4057  0.8986  0.9173
17198TIP3   OH273084   3.446   0.103   5.242  0.8481  0.5147  0.4181
17198TIP3    H173085   3.363   0.061   5.263  1.2676 -1.1220 -1.0098
17198TIP3    H273086   3.461   0.164   5.315 -0.3090 -1.0300  2.0265
17199TIP3   OH273087   0.206   6.261  11.357  0.3582  0.2774 -0.3808
17199TIP3    H173088   0.116   6.241  11.333 -0.1450  1.0882  0.7639
17199TIP3    H273089   0.203   6.279  11.450  1.6361  0.7885 -0.4148
17200TIP3   OH273090   1.431   4.650  12.063 -0.3133  0.0217 -0.2696
17200TIP3    H173091   1.348   4.698  12.063 -0.6660 -0.5432 -1.6849
17200TIP3    H273092   1.416   4.576  12.122 -0.2825  0.7536  0.6864
17201TIP3   OH273093   3.573   6.078   2.836 -0.4357 -0.6848  0.0265
17201TIP3    H173094   3.618   6.031   2.766 -0.1231  0.6326 -0.6975
17201TIP3    H273095   3.486   6.095   2.802 -1.0752 -2.0372  0.8923
17202TIP3   OH273096   4.215   0.601   5.281 -0.1460 -0.4553  0.1706
17202TIP3    H173097   4.269   0.673   5.314 -0.2385  0.0799 -0.8101
17202TIP3    H273098   4.222   0.608   5.186  1.4331 -2.9262  0.0051
17203TIP3   OH273099   6.120   4.451   6.012  0.0764  0.0747 -0.0627
17203TIP3    H173100   6.088   4.361   6.002  1.6578 -0.5471  0.2121
17203TIP3    H273101   6.102   4.473   6.103 -1.2951  0.4617 -0.4028
17204TIP3   OH273102   6.430   3.608   2.619 -0.4292 -0.4792 -0.4283
17204TIP3    H173103   6.385   3.542   2.672 -0.4125 -0.2485 -0.1275
17204TIP3    H273104   6.374   3.685   2.623 -0.2598 -0.3542 -0.4681
17205TIP3   OH273105   0.823   4.080   5.858 -0.4965  0.1564 -0.2188
17205TIP3    H173106   0.729   4.078   5.875 -0.1671  0.3987  1.9039
17205TIP3    H273107   0.839   4.169   5.826 -0.9365  0.2201 -0.2740
17206TIP3   OH273108   5.774   6.076  12.476 -0.1965 -0.5481  0.3374
17206TIP3    H173109   5.791   6.159  12.433 -1.2416  0.1436  1.2027
17206TIP3    H273110   5.822   6.012  12.424 -0.5570  0.3806 -1.2183
17207TIP3   OH273111   0.523   1.726   0.580 -0.2496  0.0371  0.6725
17207TIP3    H173112   0.469   1.801   0.554 -1.3433 -0.1896  2.1506
17207TIP3    H273113   0.501   1.657   0.518 -1.8953 -0.1265  1.3832
17208TIP3   OH273114   4.306   5.150  16.530 -0.2025  0.3889  0.5429
17208TIP3    H173115   4.298   5.243  16.550 -0.1967  0.5908 -0.3641
17208TIP3    H273116   4.382   5.145  16.471 -0.4625 -0.1321  0.2463
17209TIP3   OH273117   0.371   4.666   0.771  0.1832 -0.1919  0.2439
17209TIP3    H173118   0.328   4.589   0.808 -1.2468 -0.1039 -1.0798
17209TIP3    H273119   0.415   4.708   0.844 -0.0369 -1.6108  1.2165
17210TIP3   OH273120   1.546   3.416  11.668 -0.6866  0.1471  0.4877
17210TIP3    H173121   1.601   3.348  11.707  0.8881  0.3905 -1.1909
17210TIP3    H273122   1.593   3.498  11.686 -0.6760  0.4028 -0.6404
17211TIP3   OH273123   6.049   0.231  16.448 -0.4134 -0.4439 -0.0143
17211TIP3    H173124   5.981   0.197  16.389 -0.0424 -1.1158 -0.0666
17211TIP3    H273125   6.105   0.155  16.466  0.5092  0.1812 -0.2242
17212TIP3   OH273126   1.237   4.919  15.913  0.3974 -0.7337  0.0329
17212TIP3    H173127   1.184   4.898  15.990 -0.6787 -0.9560 -0.7432
17212TIP3    H273128   1.194   4.872  15.841  0.8996  0.1211 -0.8468
17213TIP3   OH273129   4.619   0.557  11.387 -0.4607 -0.2143 -0.4288
17213TIP3    H173130   4.580   0.538  11.472  1.6474  0.5962  0.8020
17213TIP3    H273131   4.711   0.531  11.396  0.5593  2.6453 -1.4077
17214TIP3   OH273132   4.716   4.307   5.138 -0.4392 -0.2365  0.1122
17214TIP3    H173133   4.635   4.332   5.183 -0.7024 -3.2662  1.5817
17214TIP3    H273134   4.711   4.211   5.133  3.3895 -0.6268  1.0361
17215TIP3   OH273135   0.762   2.580  16.093  0.0097 -0.2226 -0.2875
17215TIP3    H173136   0.741   2.534  16.175  0.1871  1.1898  0.5726
17215TIP3    H273137   0.848   2.545  16.067  1.0449  0.9416  1.3817
17216TIP3   OH273138   5.582   4.372  12.126 -0.1205  0.5303  0.3510
17216TIP3    H173139   5.543   4.443  12.177 -0.6115  0.3542  0.2217
17216TIP3    H273140   5.619   4.313  12.191  0.9927  1.2992  0.4377
17217TIP3   OH273141   3.858   5.667  17.153  0.1651  0.2588 -0.1355
17217TIP3    H173142   3.872   5.753  17.191  0.0696 -0.2922  1.2119
17217TIP3    H273143   3.774   5.638  17.190 -0.5733  0.2022 -1.7673
17218TIP3   OH273144   6.414   6.463   4.264 -0.5081  0.4188 -0.2784
17218TIP3    H173145   6.415   6.444   4.170  0.5003 -1.3743  0.0551
17218TIP3    H273146   6.344   6.408   4.299 -1.0922  1.3145  0.0086
17219TIP3   OH273147   2.816   5.749  17.294 -0.3422 -0.6362 -0.5123
17219TIP3    H173148   2.829   5.733  17.387 -0.3160  1.3577 -0.1230
17219TIP3    H273149   2.721   5.752  17.283 -0.3452  0.2997 -0.3013
17220TIP3   OH273150   4.758   0.029   1.781 -0.3202  0.0801  0.3811
17220TIP3    H173151   4.691   0.046   1.847  0.4908 -3.0061  2.2040
17220TIP3    H273152   4.841   0.035   1.829  0.4170 -0.5259 -0.7667
17221TIP3   OH273153   0.123   4.781  12.711 -0.2931  0.3708 -0.6153
17221TIP3    H173154   0.125   4.828  12.795 -1.3187 -0.0834 -0.3139
17221TIP3    H273155   0.033   4.791  12.681  0.5024  2.2270 -2.6845
17222TIP3   OH273156   3.236   3.159  15.198  0.5438  0.2245  0.0942
17222TIP3    H173157   3.146   3.151  15.168 -0.7315  3.6438  2.4161
17222TIP3    H273158   3.275   3.073  15.179 -2.2981 -0.5332 -3.4722
17223TIP3   OH273159   4.814   1.512   1.343 -0.5581 -0.0393  0.8627
17223TIP3    H173160   4.732   1.472   1.313 -0.6190  0.1620  0.7585
17223TIP3    H273161   4.813   1.600   1.304 -0.7965  0.3485  1.7116
17224TIP3   OH273162   1.590   0.373   3.194 -0.6098 -0.0845 -0.3573
17224TIP3    H173163   1.652   0.384   3.266 -1.1649 -0.8123  0.2492
17224TIP3    H273164   1.514   0.425   3.219 -1.0949 -0.9163 -0.0458
17225TIP3   OH273165   0.010   5.629  13.533  0.1297 -0.4118  0.3346
17225TIP3    H173166   0.095   5.615  13.575  0.9031  0.5743 -0.8369
17225TIP3    H273167  -0.046   5.664  13.603  1.0990  0.2561  0.7980
17226TIP3   OH273168   6.808   6.453  13.321  0.7653 -0.4592 -0.3235
17226TIP3    H173169   6.733   6.403  13.351 -0.3695  1.4771  0.2646
17226TIP3    H273170   6.770   6.527  13.274  2.2876  0.7476  0.2533
17227TIP3   OH273171   2.906   1.136  12.697  0.0925 -0.1111  0.1772
17227TIP3    H173172   2.830   1.179  12.736 -0.0801 -1.0130  0.8579
17227TIP3    H273173   2.929   1.192  12.623  0.4700  1.6935  1.5787
17228TIP3   OH273174   2.243   3.507  16.172 -0.2509  0.1057  0.3704
17228TIP3    H173175   2.167   3.555  16.137  0.0379 -0.1147 -0.6011
17228TIP3    H273176   2.213   3.471  16.255 -1.7880 -1.3885 -0.7549
17229TIP3   OH273177   4.604   0.019  11.845  0.2956  0.0451  0.0181
17229TIP3    H173178   4.608   0.085  11.914  1.6192 -0.7847  0.7781
17229TIP3    H273179   4.645   0.061  11.769 -0.1941  0.5922  0.0514
17230TIP3   OH273180   2.385   3.328   0.100 -0.6024  0.0189 -0.4554
17230TIP3    H173181   2.313   3.342   0.038 -0.5349  0.2794 -0.4753
17230TIP3    H273182   2.371   3.394   0.168  0.0986  0.6272 -0.8944
17231TIP3   OH273183   1.972   6.229   3.673 -0.0443  0.7706  0.3940
17231TIP3    H173184   1.903   6.168   3.700 -0.6349  1.4570  0.4487
17231TIP3    H273185   1.977   6.293   3.743  0.7317  0.6683  0.4387
17232TIP3   OH273186   3.746   2.074   3.376  0.2055 -0.0265 -0.0139
17232TIP3    H173187   3.786   2.021   3.308 -0.4211 -1.5008  0.7116
17232TIP3    H273188   3.779   2.163   3.361  0.2874 -0.3666 -2.0379
17233TIP3   OH273189   2.481   5.504   0.703 -0.1955 -0.2445 -0.0733
17233TIP3    H173190   2.391   5.535   0.709  0.3696  1.6706 -0.6970
17233TIP3    H273191   2.522   5.563   0.639  0.7760 -2.9150 -2.0838
17234TIP3   OH273192   3.557   2.462  15.841 -0.2369 -0.5518 -0.2563
17234TIP3    H173193   3.558   2.516  15.921 -0.4040 -1.1726  0.1716
17234TIP3    H273194   3.551   2.372  15.873 -0.0431 -0.8243 -0.9688
17235TIP3   OH273195   4.667   3.454   3.762  0.3782  0.2924  0.3058
17235TIP3    H173196   4.652   3.398   3.686  2.0363 -2.2913  1.7141
17235TIP3    H273197   4.664   3.394   3.837  2.0039  2.1240  1.9501
17236TIP3   OH273198   1.278   6.160   1.415  0.0116  0.0685  0.1540
17236TIP3    H173199   1.371   6.148   1.432 -0.0494 -0.3130  0.2276
17236TIP3    H273200   1.268   6.140   1.322 -0.3814 -2.3160  0.6497
17237TIP3   OH273201   6.292   1.903  11.304  0.2827  0.3514  0.1503
17237TIP3    H173202   6.238   1.953  11.243  0.7184  1.0450  0.3277
17237TIP3    H273203   6.345   1.846  11.248 -1.6220 -1.4079  0.0188
17238TIP3   OH273204   1.020   1.453  14.826  0.2343  0.1939 -0.2497
17238TIP3    H173205   0.933   1.449  14.867 -1.1628  1.1229 -2.9003
17238TIP3    H273206   1.032   1.546  14.804  2.4477  0.2899  1.0179
17239TIP3   OH273207   2.755   3.552   5.892 -0.2539 -0.6705 -0.2484
17239TIP3    H173208   2.668   3.573   5.857  0.0309  0.0036 -0.5659
17239TIP3    H273209   2.750   3.577   5.984  0.3679  1.7666 -0.8213
17240TIP3   OH273210   5.133   6.333   2.555 -0.0583  0.1977  0.4557
17240TIP3    H173211   5.117   6.239   2.568 -0.7139  0.4261  1.3496
17240TIP3    H273212   5.067   6.360   2.491 -0.9979  0.3940  1.4805
17241TIP3   OH273213   4.058   1.961   4.890 -0.4803  0.6198  0.0181
17241TIP3    H173214   4.044   1.977   4.983  1.2088 -0.5644  0.5318
17241TIP3    H273215   4.070   2.048   4.852  0.2485  1.0440  1.1763
17242TIP3   OH273216   4.136   0.545   6.011 -0.1743 -0.0684 -1.0685
17242TIP3    H173217   4.140   0.635   6.045 -2.1206 -0.6380  0.8683
17242TIP3    H273218   4.210   0.500   6.053 -0.7968 -0.0230  0.1006
17243TIP3   OH273219   4.781   1.188   1.823 -0.2876 -0.3069  0.5535
17243TIP3    H173220   4.826   1.273   1.829  0.6990 -0.7618 -0.0485
17243TIP3    H273221   4.852   1.123   1.830 -0.9168 -1.0589  0.0732
17244TIP3   OH273222   6.053   1.135   1.413  0.1579  0.3122  0.0533
17244TIP3    H173223   5.994   1.092   1.474  1.0592 -0.5021  0.3818
17244TIP3    H273224   6.122   1.172   1.468 -1.2485  3.4290 -0.0751
17245TIP3   OH273225   4.739   5.132   5.061  0.2411  0.5887 -0.0320
17245TIP3    H173226   4.674   5.180   5.010  1.6782  0.0132 -2.6047
17245TIP3    H273227   4.767   5.192   5.129 -0.7682  1.9624 -0.7964
17246TIP3   OH273228   3.568   3.321  12.134 -0.1350 -0.4665 -0.1099
17246TIP3    H173229   3.612   3.376  12.069 -0.0647  1.0800  1.1880
17246TIP3    H273230   3.625   3.325  12.211 -1.3049 -0.4330  0.7783
17247TIP3   OH273231   4.488   0.132  16.519 -0.1309 -0.2143  0.5092
17247TIP3    H173232   4.467   0.058  16.576  0.0385 -1.9285 -1.5552
17247TIP3    H273233   4.435   0.119  16.441  2.9603 -0.5956 -1.7115
17248TIP3   OH273234   3.430   3.296  12.694  0.0513  0.3901 -0.0215
17248TIP3    H173235   3.387   3.354  12.756 -0.6298 -2.1611  2.0302
17248TIP3    H273236   3.520   3.289  12.726  0.1728  0.4092 -0.3502
17249TIP3   OH273237   1.011   3.454  14.731  0.0120  0.5097 -0.2370
17249TIP3    H173238   1.064   3.529  14.703 -0.0404  2.1664  3.4809
17249TIP3    H273239   1.014   3.457  14.826 -3.3522 -1.8817  0.1148
17250TIP3   OH273240   0.552   3.322   0.630  0.0267  0.6192  0.0104
17250TIP3    H173241   0.505   3.391   0.677  0.1258 -0.0196  1.0894
17250TIP3    H273242   0.612   3.285   0.695  0.9367  0.4071 -0.9231
17251TIP3   OH273243   3.583   1.570   1.623  1.0630 -0.0715  0.6890
17251TIP3    H173244   3.665   1.566   1.574  1.5838  0.4203  1.4860
17251TIP3    H273245   3.523   1.514   1.575  1.5586  0.3785 -0.4878
17252TIP3   OH273246   2.518   2.313  13.744 -0.5171  0.8747  0.4203
17252TIP3    H173247   2.525   2.400  13.783  1.0689  1.4117 -0.9119
17252TIP3    H273248   2.444   2.272  13.788 -1.2169  2.8476  1.1731
17253TIP3   OH273249   5.322   3.216  11.411 -0.0329  0.3054 -0.3830
17253TIP3    H173250   5.382   3.164  11.358  1.7649  3.6931 -2.0162
17253TIP3    H273251   5.241   3.218  11.360  0.3006  0.1208 -0.9343
17254TIP3   OH273252   0.197   4.444   3.987  0.2810  0.0172  0.3020
17254TIP3    H173253   0.115   4.437   3.938 -0.5579 -0.9928  1.7647
17254TIP3    H273254   0.176   4.504   4.059  0.9862  0.1564  0.3950
17255TIP3   OH273255   1.868   6.030  14.105  0.3255 -0.2032 -0.1206
17255TIP3    H173256   1.922   6.092  14.155 -0.7379 -0.6031  1.6205
17255TIP3    H273257   1.788   6.079  14.086 -0.5318 -0.9869  1.2888
17256TIP3   OH273258   5.944   2.052   1.049 -0.3613 -0.0429  0.4120
17256TIP3    H173259   5.853   2.025   1.063 -0.5451  0.5058  0.2801
17256TIP3    H273260   5.942   2.147   1.055  0.2147 -0.0316  0.4493
17257TIP3   OH273261   5.563   0.955  15.707  0.2319 -0.2933  0.3119
17257TIP3    H173262   5.583   0.872  15.664 -1.6613  0.1887 -1.7058
17257TIP3    H273263   5.482   0.984  15.666  1.4538  3.1721  0.0310
17258TIP3   OH273264   3.922   5.318  16.899  0.3158  0.0601  0.0488
17258TIP3    H173265   3.904   5.283  16.811 -1.6526  0.4639  0.2368
17258TIP3    H273266   3.869   5.264  16.957  2.6302 -1.0925  1.2338
17259TIP3   OH273267   2.912   4.372   4.875  0.0483  0.4456  0.2895
17259TIP3    H173268   2.896   4.466   4.887 -0.2996  0.2037  1.9990
17259TIP3    H273269   2.938   4.341   4.962  1.9164 -0.7353 -0.6096
17260TIP3   OH273270   5.126   2.096  13.925  0.2960 -0.1359 -0.1361
17260TIP3    H173271   5.104   2.091  13.832 -2.3148 -0.9021  0.4401
17260TIP3    H273272   5.161   2.184  13.937 -1.6811  0.8847 -1.4161
17261TIP3   OH273273   2.870   3.308   3.947  0.4881 -0.5890  0.0394
17261TIP3    H173274   2.904   3.220   3.962 -0.1000 -0.9159 -0.4799
17261TIP3    H273275   2.795   3.315   4.006 -0.5321 -1.0980 -1.1412
17262TIP3   OH273276   3.897   2.384  15.820  0.5118  0.2307 -0.2433
17262TIP3    H173277   3.951   2.427  15.754  0.8377  0.0568 -0.0889
17262TIP3    H273278   3.867   2.304  15.778 -0.9307  1.0694 -0.9039
17263TIP3   OH273279   2.440   2.706  12.160  0.1388 -0.4698 -0.6011
17263TIP3    H173280   2.435   2.611  12.157 -0.1921 -0.4677 -0.1960
17263TIP3    H273281   2.515   2.724  12.217  0.2302 -0.4874 -0.7151
17264TIP3   OH273282   1.967   3.268   1.673  0.2960  0.2203 -1.1586
17264TIP3    H173283   2.041   3.268   1.734 -1.0601 -0.9793  0.5759
17264TIP3    H273284   1.896   3.226   1.721 -1.6047  1.4832 -2.7044
17265TIP3   OH273285   5.781   5.290   1.948  0.0654  0.4015  0.4797
17265TIP3    H173286   5.737   5.291   1.863  1.8479 -0.4058 -0.5055
17265TIP3    H273287   5.712   5.309   2.011 -1.7404 -1.0318 -0.9561
17266TIP3   OH273288   2.592   6.501   1.531 -0.0131 -0.8329 -0.7600
17266TIP3    H173289   2.567   6.594   1.525  2.1083 -0.1206  0.3755
17266TIP3    H273290   2.536   6.457   1.466 -1.7490  1.0679 -0.6620
17267TIP3   OH273291   3.626   5.090  16.613  0.1586  0.0993 -0.0328
17267TIP3    H173292   3.638   5.179  16.580 -0.4634 -0.8120 -3.0469
17267TIP3    H273293   3.671   5.034  16.548 -1.8181 -1.9342  0.2173
17268TIP3   OH273294   2.823   3.094  14.397 -0.0839 -0.1326 -0.5018
17268TIP3    H173295   2.744   3.130  14.358  0.1875  1.4579  0.3422
17268TIP3    H273296   2.837   3.146  14.476 -0.6635 -3.2392  1.8525
17269TIP3   OH273297   3.459   4.625   3.145  0.3033 -0.1316 -0.0079
17269TIP3    H173298   3.386   4.595   3.090 -0.9734  0.6671  1.1910
17269TIP3    H273299   3.515   4.547   3.154 -0.5154 -0.8337 -0.7579
17270TIP3   OH273300   3.055   3.355  12.298 -0.3107  0.1348 -0.5545
17270TIP3    H173301   2.964   3.381  12.286 -0.5644 -1.2518 -1.8501
17270TIP3    H273302   3.096   3.372  12.213  0.0123 -1.6173 -0.7846
17271TIP3   OH273303   0.934   5.398   5.502 -0.0744  0.2689 -0.0887
17271TIP3    H173304   0.901   5.312   5.526 -0.2476 -0.7698 -3.5241
17271TIP3    H273305   0.880   5.425   5.428 -0.1487  3.4752  0.9837
17272TIP3   OH273306   3.612   1.847   3.058  0.3654 -1.1452  0.1651
17272TIP3    H173307   3.657   1.927   3.032 -0.1259 -0.7911  0.4054
17272TIP3    H273308   3.613   1.792   2.979 -1.3050  0.0009 -0.6939
17273TIP3   OH273309   5.918   0.685   5.008 -0.3613 -0.5408  0.0628
17273TIP3    H173310   5.854   0.616   5.028 -1.4250  0.1315 -0.9013
17273TIP3    H273311   5.988   0.639   4.962 -0.5745 -1.1425  0.3218
17274TIP3   OH273312   4.085   1.258  15.727 -0.2029 -0.0318 -0.7148
17274TIP3    H173313   3.993   1.274  15.704 -0.9530  1.2488  2.6814
17274TIP3    H273314   4.082   1.182  15.785  0.7961  0.4380 -0.0372
17275TIP3   OH273315   2.194   5.018  10.519  0.5807  0.3464 -0.2935
17275TIP3    H173316   2.120   5.064  10.479 -0.3677 -0.8849 -0.0018
17275TIP3    H273317   2.183   4.927  10.492  2.7538  0.3338 -1.3547
17276TIP3   OH273318   3.826   1.323  15.617  0.2556 -0.7506 -0.3731
17276TIP3    H173319   3.848   1.318  15.524 -0.2866 -1.6548 -0.4581
17276TIP3    H273320   3.793   1.412  15.628 -0.3923 -0.8752 -1.2063
17277TIP3   OH273321   2.436   4.760   4.032 -0.2640 -0.3444  0.1250
17277TIP3    H173322   2.470   4.742   3.944  1.5667  1.3538  0.4166
17277TIP3    H273323   2.475   4.691   4.087  0.9287  0.2608  0.0638
17278TIP3   OH273324   4.527   1.414  11.986 -0.0058  0.0517  0.1817
17278TIP3    H173325   4.437   1.425  12.016 -0.0117  0.5629 -0.0121
17278TIP3    H273326   4.564   1.502  11.988  0.4331 -0.1277  0.0799
17279TIP3   OH273327   5.141   5.812   5.212  0.3602  0.3234 -0.0164
17279TIP3    H173328   5.180   5.894   5.244  1.8949  1.3144 -3.8623
17279TIP3    H273329   5.051   5.836   5.189  0.6861  0.9136 -0.7561
17280TIP3   OH273330   1.447   3.146  16.719 -0.2252  0.7029 -0.2229
17280TIP3    H173331   1.486   3.178  16.638  0.0028 -0.6066 -0.6402
17280TIP3    H273332   1.492   3.064  16.738 -1.2009  0.3093  0.5079
17281TIP3   OH273333   3.175   1.809  13.554  0.3367 -0.0027  0.1325
17281TIP3    H173334   3.113   1.839  13.621 -0.6338 -1.3733 -0.1184
17281TIP3    H273335   3.250   1.778  13.605 -0.1573 -0.5026  0.5749
17282TIP3   OH273336   0.935   1.666  13.407 -0.2761 -0.4634 -0.3650
17282TIP3    H173337   1.016   1.710  13.431 -0.2386 -0.6500 -0.1425
17282TIP3    H273338   0.870   1.735  13.402  0.2129 -0.0877 -2.0305
17283TIP3   OH273339   2.625   2.738   5.882 -0.1069 -0.0275  0.9759
17283TIP3    H173340   2.580   2.782   5.954 -0.3998 -0.0789  0.8214
17283TIP3    H273341   2.589   2.649   5.881 -0.4966  0.1357  0.4167
17284TIP3   OH273342   1.894   6.408  17.079 -0.0920 -0.5740  0.0666
17284TIP3    H173343   1.813   6.440  17.039  0.9266  1.0530 -0.7963
17284TIP3    H273344   1.889   6.313  17.068 -1.9862 -0.5479  0.2870
17285TIP3   OH273345   2.967   2.259   3.201  0.3002 -0.6250 -0.1198
17285TIP3    H173346   2.965   2.170   3.166  0.6299 -1.0466  0.8743
17285TIP3    H273347   2.967   2.315   3.124  1.1824 -1.5044 -0.8003
17286TIP3   OH273348   5.717   5.507  10.352 -0.3373 -0.3828 -0.1137
17286TIP3    H173349   5.650   5.462  10.403 -0.5675  0.2860  0.1781
17286TIP3    H273350   5.702   5.600  10.368 -0.8005 -0.1175 -1.8794
17287TIP3   OH273351   5.683   1.084   3.928 -0.3865 -0.0656 -0.1695
17287TIP3    H173352   5.721   1.029   3.859  0.9276 -0.1157  0.5761
17287TIP3    H273353   5.591   1.093   3.902  0.2030  0.4973 -2.3046
17288TIP3   OH273354   5.097   2.644  12.683 -0.0121  0.2539  0.3014
17288TIP3    H173355   5.002   2.647  12.695  0.1424 -0.4542  1.8681
17288TIP3    H273356   5.111   2.573  12.620 -0.4893 -0.0726  0.5585
17289TIP3   OH273357   6.089   0.478  13.154 -0.3578  0.3568 -0.3394
17289TIP3    H173358   6.164   0.460  13.098  0.6385  0.0763  1.0386
17289TIP3    H273359   6.016   0.434  13.110  0.6740 -1.1320 -0.6622
17290TIP3   OH273360   4.419   3.492  13.461  0.5962 -0.1498 -0.2006
17290TIP3    H173361   4.340   3.475  13.512  1.3559 -0.4176  0.9123
17290TIP3    H273362   4.433   3.587  13.468 -0.6903  0.2224 -2.0270
17291TIP3   OH273363   3.167   0.949   0.379 -0.8502 -0.4201  0.2046
17291TIP3    H173364   3.227   1.010   0.422 -1.5053  2.5470 -2.7054
17291TIP3    H273365   3.224   0.883   0.339  0.2855  0.7812 -0.2300
17292TIP3   OH273366   4.287   3.182  15.783  0.0572  0.0327  0.2493
17292TIP3    H173367   4.324   3.125  15.716 -1.3566 -0.8819  0.2173
17292TIP3    H273368   4.193   3.182  15.767 -0.1063  1.3885  1.0265
17293TIP3   OH273369   2.566   4.902   6.045 -0.2377  0.2586 -0.3355
17293TIP3    H173370   2.655   4.885   6.077  1.1318  0.7126 -3.4812
17293TIP3    H273371   2.579   4.932   5.955 -3.6251  0.1698 -0.9759
17294TIP3   OH273372   3.019   1.581   1.919 -0.3816  0.1676 -0.2295
17294TIP3    H173373   3.097   1.595   1.971  0.7988 -3.6601 -0.7089
17294TIP3    H273374   3.044   1.607   1.830 -1.1922  3.0677  0.2801
17295TIP3   OH273375   0.125   4.492  16.922  0.0973  0.3729 -0.1789
17295TIP3    H173376   0.051   4.541  16.885  0.1993  0.8155  0.2044
17295TIP3    H273377   0.086   4.410  16.954  0.2305 -0.7309 -2.6198
17296TIP3   OH273378   4.913   1.499  11.425  0.3122 -0.1220  0.2164
17296TIP3    H173379   4.919   1.520  11.331  1.7983 -0.6489  0.1591
17296TIP3    H273380   4.923   1.583  11.469  1.0383 -0.0454 -0.0831
17297TIP3   OH273381   3.791   1.650   2.379 -0.3003  0.3599  0.6340
17297TIP3    H173382   3.752   1.601   2.307  0.5841  0.0897  0.3323
17297TIP3    H273383   3.785   1.591   2.454 -3.1919  1.4199  1.3792
17298TIP3   OH273384   0.021   1.730   0.282 -0.4128 -0.0725 -0.3795
17298TIP3    H173385   0.022   1.663   0.214  2.0348 -0.0425 -0.4863
17298TIP3    H273386   0.070   1.691   0.354  1.0805  1.5489 -0.4569
17299TIP3   OH273387   0.228   6.731   2.345 -0.7301  0.0540 -1.0095
17299TIP3    H173388   0.298   6.667   2.337 -1.3313 -0.5216 -2.0086
17299TIP3    H273389   0.269   6.815   2.327  0.1585  0.0419  0.7465
17300TIP3   OH273390   1.588   6.276   2.960  0.4100 -0.6502 -0.2071
17300TIP3    H173391   1.584   6.184   2.989 -1.4913 -1.1764 -1.9247
17300TIP3    H273392   1.498   6.297   2.935  1.0537  1.2828 -1.0551
17301TIP3   OH273393   6.411   1.481  15.368 -0.0082  0.4262 -0.1319
17301TIP3    H173394   6.344   1.450  15.307 -0.3602 -0.0914  0.5143
17301TIP3    H273395   6.378   1.566  15.399 -0.2221  0.3139 -0.0485
17302TIP3   OH273396   6.013   3.370  14.037  0.1268 -1.0471 -0.7375
17302TIP3    H173397   6.098   3.347  13.999  1.2916 -0.3221  1.2842
17302TIP3    H273398   6.000   3.306  14.108  0.1933  0.3140  0.5533
17303TIP3   OH273399   6.481   6.349  12.579  0.2217  0.2640  0.0012
17303TIP3    H173400   6.556   6.399  12.611  0.1209  0.9759 -0.8535
17303TIP3    H273401   6.405   6.390  12.621  0.2203  0.1904  0.0712
17304TIP3   OH273402   3.286   0.289  16.776  0.1656  0.1418 -0.9648
17304TIP3    H173403   3.291   0.238  16.857 -0.7714  1.0972 -0.2685
17304TIP3    H273404   3.344   0.244  16.715  0.4388 -0.9348  0.0575
17305TIP3   OH273405   6.750   0.640  17.235  0.7925  0.0144  0.0207
17305TIP3    H173406   6.827   0.596  17.272  0.2101 -0.0977  1.1661
17305TIP3    H273407   6.675   0.590  17.269  0.0564  2.2428  2.0319
17306TIP3   OH273408   0.059   0.850   1.349  0.7020 -0.0197  0.5343
17306TIP3    H173409   0.078   0.758   1.331  1.0495  0.3280 -0.9978
17306TIP3    H273410  -0.019   0.847   1.405  0.5847 -1.2257  0.3487
17307TIP3   OH273411   5.942   4.465  15.874 -0.1916  0.4130 -0.4768
17307TIP3    H173412   6.025   4.428  15.844  0.1996 -0.1541  1.1718
17307TIP3    H273413   5.925   4.422  15.958 -1.3053  1.7195  0.0220
17308TIP3   OH273414   5.952   2.486   2.043 -0.1497  0.6202  0.2241
17308TIP3    H173415   5.897   2.426   2.093 -0.8809 -0.9589 -2.2753
17308TIP3    H273416   5.975   2.555   2.105 -2.7339 -0.0568  2.1206
17309TIP3   OH273417   5.674   3.286  16.269 -0.4710  0.2330 -0.1496
17309TIP3    H173418   5.761   3.296  16.307 -0.8165  0.1417  0.6870
17309TIP3    H273419   5.663   3.364  16.214  0.0250  0.3911 -0.0309
17310TIP3   OH273420   2.574   4.767  11.847  0.7307  0.0726 -0.2992
17310TIP3    H173421   2.592   4.690  11.792  0.0580  0.0664 -0.5213
17310TIP3    H273422   2.488   4.797  11.818  0.6269  0.4218  0.3594
17311TIP3   OH273423   1.708   1.929  16.116  0.2403  0.6204  0.0483
17311TIP3    H173424   1.729   1.838  16.138 -0.4162  0.5492  0.4174
17311TIP3    H273425   1.670   1.965  16.196  0.0363  1.0738 -0.2456
17312TIP3   OH273426   4.186   1.135   2.605  0.1906 -0.3892 -0.3655
17312TIP3    H173427   4.271   1.115   2.565 -0.1591 -2.0384 -0.3564
17312TIP3    H273428   4.146   1.049   2.621 -1.2013  0.3364  0.2427
17313TIP3   OH273429   4.184   5.685  13.790 -0.2505  1.0832 -0.2839
17313TIP3    H173430   4.143   5.734  13.719 -0.2033  1.0672 -0.3230
17313TIP3    H273431   4.277   5.704  13.782  0.0138 -0.4665 -1.4505
17314TIP3   OH273432   0.828   4.312   1.865 -0.3920  0.7435  0.1742
17314TIP3    H173433   0.823   4.286   1.957 -2.6705  2.2772  0.5826
17314TIP3    H273434   0.920   4.301   1.842  0.2994  0.4924  2.6997
17315TIP3   OH273435   5.172   3.183  12.050  0.1333 -0.1303 -0.3304
17315TIP3    H173436   5.165   3.207  11.957  0.2795  0.5863 -0.1586
17315TIP3    H273437   5.259   3.145  12.058  0.3603  0.3746 -0.3649
17316TIP3   OH273438   6.476   0.929   3.607 -0.6234 -0.3661 -0.0698
17316TIP3    H173439   6.458   0.836   3.615 -1.1649 -0.1569  1.4314
17316TIP3    H273440   6.468   0.947   3.513  0.5538 -2.0114 -0.5178
17317TIP3   OH273441   3.528   0.700   0.010 -0.1094 -0.3167  0.1676
17317TIP3    H173442   3.577   0.768   0.056 -0.7060  0.9651 -1.0083
17317TIP3    H273443   3.587   0.670  -0.059  0.3975 -1.5057  1.0737
17318TIP3   OH273444   1.136   2.883  17.272 -0.2765  0.3004  0.4172
17318TIP3    H173445   1.190   2.962  17.275  2.3372 -1.3326 -0.4282
17318TIP3    H273446   1.152   2.840  17.356  1.6007 -1.2238 -0.6076
17319TIP3   OH273447   2.409   1.462  14.452  0.0989  0.3322  0.3166
17319TIP3    H173448   2.335   1.464  14.512 -1.2739  2.3595 -1.2799
17319TIP3    H273449   2.459   1.541  14.473  0.5986  0.1066 -0.0141
17320TIP3   OH273450   1.926   2.449  10.722 -0.0569  0.0902  0.5979
17320TIP3    H173451   1.862   2.516  10.746  0.5337  0.5709  0.8562
17320TIP3    H273452   1.991   2.451  10.791 -0.9032 -1.9778  1.5571
17321TIP3   OH273453   1.733   4.309   3.802  0.5156 -0.0344  0.1090
17321TIP3    H173454   1.645   4.323   3.768  1.0143  2.4015 -0.3675
17321TIP3    H273455   1.751   4.216   3.785 -1.6099 -0.3734 -0.5535
17322TIP3   OH273456   6.207   0.380   3.229  0.4334 -0.0903  0.2643
17322TIP3    H173457   6.228   0.461   3.275 -1.9218  1.1836 -0.7186
17322TIP3    H273458   6.124   0.352   3.267  0.4390 -1.1788 -0.4821
17323TIP3   OH273459   0.080   1.678   4.320  0.2006 -0.1013 -0.0440
17323TIP3    H173460   0.065   1.758   4.370  1.4080 -0.4925  1.0009
17323TIP3    H273461   0.175   1.667   4.320  0.1734 -0.6155 -1.6584
17324TIP3   OH273462   1.852   3.794   1.810 -0.0044 -0.2777 -0.2372
17324TIP3    H173463   1.915   3.776   1.880 -0.1651 -0.0669 -0.0383
17324TIP3    H273464   1.858   3.718   1.753  2.3979  0.8480 -1.6822
17325TIP3   OH273465   6.680   3.667   0.555  0.1367  0.2673  0.4624
17325TIP3    H173466   6.649   3.576   0.550  0.4200  0.1167  1.2807
17325TIP3    H273467   6.747   3.673   0.487 -2.0468  0.7882 -1.8308
17326TIP3   OH273468   2.592   1.620  13.416 -0.5611  0.1853 -0.3042
17326TIP3    H173469   2.585   1.530  13.386 -0.6268  0.1417 -0.1576
17326TIP3    H273470   2.501   1.649  13.426 -0.5764  0.7620 -1.8328
17327TIP3   OH273471   2.440   3.317   0.688 -0.3501  0.3282  0.0616
17327TIP3    H173472   2.423   3.252   0.620  2.3644  0.2400 -0.6574
17327TIP3    H273473   2.447   3.400   0.639 -0.6513  0.6564  0.5654
17328TIP3   OH273474   2.746   5.305   5.480 -0.3489 -0.3882 -0.0794
17328TIP3    H173475   2.674   5.261   5.436 -0.6864 -0.0992  0.1851
17328TIP3    H273476   2.715   5.317   5.570 -0.5112  0.9800 -0.3080
17329TIP3   OH273477   6.007   1.538  15.180 -0.5069 -0.6810  0.2991
17329TIP3    H173478   6.098   1.510  15.194 -0.9326 -1.9837  0.5091
17329TIP3    H273479   5.994   1.528  15.086 -0.3011 -0.0430  0.1955
17330TIP3   OH273480   0.477   2.215   3.720  0.4223  0.2897 -0.2664
17330TIP3    H173481   0.555   2.230   3.774  0.9743 -1.1047 -0.6460
17330TIP3    H273482   0.406   2.205   3.784  0.7748  0.3113  0.1372
17331TIP3   OH273483   6.139   4.865  16.415 -0.0573 -0.4315 -0.1689
17331TIP3    H173484   6.131   4.879  16.509  0.8230  1.3726 -0.3165
17331TIP3    H273485   6.119   4.950  16.376  1.7020 -0.5544 -1.4689
17332TIP3   OH273486   2.204   4.809  16.118 -0.3862  0.3275 -0.1209
17332TIP3    H173487   2.242   4.731  16.158  0.1662  0.7759  0.2518
17332TIP3    H273488   2.212   4.877  16.186  0.1055  0.9771 -0.8160
17333TIP3   OH273489   3.638   3.076  12.000 -0.1604  0.7800  1.1363
17333TIP3    H173490   3.573   3.056  11.933  1.0505 -0.8210  0.3569
17333TIP3    H273491   3.630   3.170  12.015 -0.1696  1.2939 -1.6229
17334TIP3   OH273492   3.150   3.701   2.673 -0.6555  0.3192  0.0981
17334TIP3    H173493   3.124   3.793   2.674 -2.4620 -0.1549  0.8127
17334TIP3    H273494   3.071   3.655   2.645  0.7309 -0.9014 -2.1032
17335TIP3   OH273495   0.238   5.913   0.539 -0.3100  0.0902 -0.1241
17335TIP3    H173496   0.261   5.832   0.584  0.4045 -0.7057 -1.8041
17335TIP3    H273497   0.146   5.927   0.560 -0.4762 -1.2249  0.1301
17336TIP3   OH273498   1.910   1.357   4.047 -0.6291 -0.2911  0.3720
17336TIP3    H173499   1.819   1.355   4.076 -1.0520  0.8416 -0.7938
17336TIP3    H273500   1.905   1.353   3.952  0.5049  0.4506  0.2633
17337TIP3   OH273501   2.844   3.044   2.976 -0.5608  0.1568  0.6688
17337TIP3    H173502   2.924   2.992   2.987 -0.1714  1.0199  2.3912
17337TIP3    H273503   2.859   3.095   2.896  1.2385  1.2673  1.6450
17338TIP3   OH273504   2.070   2.039  13.147 -0.2874  0.4150 -0.3155
17338TIP3    H173505   2.061   2.105  13.215 -1.5970 -0.8314  0.7689
17338TIP3    H273506   1.982   2.029  13.111 -0.0580 -0.5759 -0.6241
17339TIP3   OH273507   1.623   0.788  14.687 -0.2246 -0.0236 -0.1445
17339TIP3    H173508   1.625   0.836  14.770  0.6329  1.3898 -0.9509
17339TIP3    H273509   1.588   0.851  14.624  2.1709  0.0650 -1.5110
17340TIP3   OH273510   0.138   5.642  15.495  0.7599 -0.0988  0.4163
17340TIP3    H173511   0.170   5.564  15.541 -1.0253 -1.4108 -0.4219
17340TIP3    H273512   0.182   5.640  15.410 -0.6152 -1.2883 -0.3148
17341TIP3   OH273513   5.741   6.140  17.229 -0.5804 -0.4541  0.4578
17341TIP3    H173514   5.680   6.198  17.276 -0.9175  1.1869 -1.8328
17341TIP3    H273515   5.692   6.059  17.217 -1.9925  0.4920 -0.4629
17342TIP3   OH273516   5.171   2.933  12.287 -0.6480 -0.0015  0.0283
17342TIP3    H173517   5.108   2.871  12.322 -0.9260 -0.2266 -0.8451
17342TIP3    H273518   5.136   3.019  12.310 -0.0390 -0.1528  1.6163
17343TIP3   OH273519   5.326   3.486  14.615 -0.2191 -0.2115  0.4184
17343TIP3    H173520   5.344   3.422  14.546 -0.8286 -0.5224  0.5394
17343TIP3    H273521   5.292   3.434  14.687 -2.3717  0.4056 -0.0816
17344TIP3   OH273522   1.853   1.343  15.988 -0.4681 -0.1903  1.1019
17344TIP3    H173523   1.915   1.270  15.992 -0.9369 -0.6651  0.1934
17344TIP3    H273524   1.831   1.362  16.079  0.2954 -0.6369  1.3829
17345TIP3   OH273525   0.482   1.803  15.838  0.7062 -0.3970  0.2398
17345TIP3    H173526   0.455   1.784  15.748  0.4321 -0.4386  0.3322
17345TIP3    H273527   0.404   1.789  15.891  0.6822  0.2806  0.4021
17346TIP3   OH273528   5.903   1.812   0.437  0.0599  0.1289  0.2695
17346TIP3    H173529   5.819   1.851   0.461 -0.3011 -0.4304 -0.0710
17346TIP3    H273530   5.887   1.718   0.438  0.7232  0.0116  0.3347
17347TIP3   OH273531   1.399   0.160  12.711 -0.1835 -1.3214  0.4708
17347TIP3    H173532   1.450   0.216  12.770 -0.5797  0.6130 -0.9286
17347TIP3    H273533   1.312   0.157  12.750 -0.3067 -0.4801  0.2799
17348TIP3   OH273534   4.656   2.904   2.278 -0.1974  0.1171  0.4305
17348TIP3    H173535   4.739   2.904   2.326 -0.2362 -0.2547  0.5000
17348TIP3    H273536   4.650   2.816   2.241  0.2021  0.6251 -0.9048
17349TIP3   OH273537   5.601   3.602   3.104 -0.1433  0.0341  0.0716
17349TIP3    H173538   5.627   3.574   3.017 -2.1458 -0.7936 -0.3252
17349TIP3    H273539   5.507   3.621   3.096 -0.1100  1.1496  1.7541
17350TIP3   OH273540   4.782   5.822  15.945  0.2980 -0.0582  0.4148
17350TIP3    H173541   4.774   5.825  15.850  1.3214  1.2707  0.3377
17350TIP3    H273542   4.695   5.799  15.976 -0.2877  0.4413 -0.8052
17351TIP3   OH273543   3.136   1.366  11.633 -0.1600 -0.5801  0.1113
17351TIP3    H173544   3.091   1.372  11.549  0.5836 -0.4761 -0.2773
17351TIP3    H273545   3.106   1.443  11.682  1.2697  0.7213 -0.9704
17352TIP3   OH273546   1.391   3.301  12.392 -0.7089  0.3913  0.0280
17352TIP3    H173547   1.385   3.355  12.471 -0.4434  0.4291  0.0221
17352TIP3    H273548   1.306   3.257  12.387 -0.7571  0.4530  0.2885
17353TIP3   OH273549   2.425   5.924   1.622  0.6518  0.6777  0.0033
17353TIP3    H173550   2.452   5.834   1.605 -0.4101 -0.5466  3.9174
17353TIP3    H273551   2.466   5.947   1.705 -2.4269  2.2009  1.2845
17354TIP3   OH273552   0.887   4.059  14.086  0.1032  0.6233 -0.5318
17354TIP3    H173553   0.810   4.046  14.031 -0.4640 -1.1504  0.6123
17354TIP3    H273554   0.927   3.973  14.094  1.8506  1.3793 -0.5286
17355TIP3   OH273555   4.391   4.133   4.577  0.0216  0.0157 -0.2688
17355TIP3    H173556   4.402   4.123   4.671 -0.7247  1.8520  0.0517
17355TIP3    H273557   4.384   4.227   4.563  0.8135 -0.1744 -2.2621
17356TIP3   OH273558   5.659   1.890  15.669  0.6487 -0.4860  0.0925
17356TIP3    H173559   5.563   1.886  15.678  0.8697 -1.0996  3.4238
17356TIP3    H273560   5.680   1.819  15.610 -1.0107  0.6026 -1.9423
17357TIP3   OH273561   1.128   0.135   4.564 -0.4097  0.2887 -0.1266
17357TIP3    H173562   1.169   0.049   4.561  0.0030  0.5039 -1.6986
17357TIP3    H273563   1.059   0.131   4.497 -0.1874  1.2581 -0.4347
17358TIP3   OH273564   2.854   3.490   1.043  0.2367 -0.3714  0.1302
17358TIP3    H173565   2.836   3.571   1.092  1.7067 -0.2840  0.5766
17358TIP3    H273566   2.867   3.424   1.111  2.1647 -0.2781 -0.0932
17359TIP3   OH273567   2.244   4.032   3.368 -0.1378  0.5859 -0.5371
17359TIP3    H173568   2.182   4.088   3.415  1.5007  1.4729  0.6776
17359TIP3    H273569   2.330   4.058   3.401  0.8133 -1.5347 -1.1286
17360TIP3   OH273570   6.306   0.895   0.216 -0.7146  0.4963 -0.2839
17360TIP3    H173571   6.228   0.951   0.219 -1.1651 -0.1214 -0.1181
17360TIP3    H273572   6.272   0.808   0.195 -0.1204  0.1216  0.2725
17361TIP3   OH273573   4.291   5.115  10.616 -0.5423  0.0515  0.2859
17361TIP3    H173574   4.356   5.056  10.578  0.7105  0.6540  1.4279
17361TIP3    H273575   4.208   5.086  10.578  0.5156  0.1522 -2.3176
17362TIP3   OH273576   2.188   3.548  12.264  0.2762  0.1646  0.0727
17362TIP3    H173577   2.122   3.564  12.197 -0.0243 -1.2145  0.0091
17362TIP3    H273578   2.270   3.538  12.215 -0.1201 -1.9226 -0.2252
17363TIP3   OH273579   5.286   0.575   5.932 -0.2358  0.1082  0.3509
17363TIP3    H173580   5.363   0.561   5.876  1.0232 -1.9544  2.4381
17363TIP3    H273581   5.225   0.506   5.905  0.9648 -1.8549  2.3508
17364TIP3   OH273582   3.807   6.616  10.628 -0.5457 -0.8451 -0.4890
17364TIP3    H173583   3.758   6.637  10.548 -0.1621  0.3981 -0.4131
17364TIP3    H273584   3.822   6.701  10.670 -0.9360 -1.4983  1.0263
17365TIP3   OH273585   4.859   4.896   5.129  0.0078  0.3561  0.2072
17365TIP3    H173586   4.916   4.913   5.203 -0.6430  0.1261  0.7744
17365TIP3    H273587   4.819   4.981   5.108 -0.3881  0.2769  0.6205
17366TIP3   OH273588   0.818   1.634  14.259 -0.3159  0.0975 -0.0937
17366TIP3    H173589   0.769   1.581  14.197  0.6897  0.1751 -0.9718
17366TIP3    H273590   0.786   1.605  14.345  0.9513 -2.7598 -0.4547
17367TIP3   OH273591   0.473   0.765  12.040 -0.2807  0.3090  0.3850
17367TIP3    H173592   0.418   0.843  12.039  0.1875  0.6678 -1.2782
17367TIP3    H273593   0.512   0.762  11.952 -0.1001 -1.6605  0.4818
17368TIP3   OH273594   2.960   0.194   3.866  0.3789  0.2123 -0.3322
17368TIP3    H173595   3.013   0.114   3.860  0.9494  0.5497  0.0381
17368TIP3    H273596   2.996   0.251   3.798 -0.7592 -0.2491 -1.3425
17369TIP3   OH273597   3.315   1.811   0.961 -0.0574  1.3056  0.0325
17369TIP3    H173598   3.263   1.769   0.893  1.9790  0.8103 -1.3298
17369TIP3    H273599   3.333   1.740   1.024  1.4248  0.6416 -1.0675
17370TIP3   OH273600   4.416   3.735  11.592  0.1411 -0.5386  0.1801
17370TIP3    H173601   4.433   3.790  11.668  1.8631  1.9575 -1.8194
17370TIP3    H273602   4.498   3.688  11.577  0.5149  0.4657 -1.1673
17371TIP3   OH273603   5.257   2.370   2.567  0.4133 -0.4375  0.6376
17371TIP3    H173604   5.193   2.414   2.511  1.0125  0.6332  0.7826
17371TIP3    H273605   5.276   2.433   2.636  0.9021 -1.1292  1.1484
17372TIP3   OH273606   5.837   0.480   4.019 -0.2242 -0.1848 -0.0261
17372TIP3    H173607   5.765   0.535   3.991  0.7340  0.3998 -1.4522
17372TIP3    H273608   5.814   0.392   3.989  0.1841  0.2101 -1.5425
17373TIP3   OH273609   4.390   1.153   6.371  0.4491 -0.0556 -0.2472
17373TIP3    H173610   4.363   1.245   6.373  1.3175  0.2407 -1.1371
17373TIP3    H273611   4.323   1.107   6.422  0.8926  1.2834  1.6736
17374TIP3   OH273612   3.462   1.026   6.234  0.3042 -0.1825 -0.8793
17374TIP3    H173613   3.417   0.942   6.225  0.4935 -0.6680  1.7481
17374TIP3    H273614   3.550   1.003   6.266  0.7332  0.9605 -1.1880
17375TIP3   OH273615   5.471   1.336   5.842  0.4142  0.4639 -0.4614
17375TIP3    H173616   5.545   1.303   5.892  0.9464  0.0271 -1.5136
17375TIP3    H273617   5.429   1.257   5.806  0.1124  0.7782 -0.8062
17376TIP3   OH273618   0.419   5.969  12.221 -0.1855  0.2239  0.2744
17376TIP3    H173619   0.505   5.954  12.184 -0.0307  1.8827 -0.1240
17376TIP3    H273620   0.361   5.976  12.145 -0.1842  1.7594  0.3783
17377TIP3   OH273621   2.990   3.441   0.236  0.3233 -0.3948  0.2478
17377TIP3    H173622   3.052   3.456   0.307 -0.2227  1.2602  0.4194
17377TIP3    H273623   3.044   3.428   0.159  0.9258  0.7465  0.4509
17378TIP3   OH273624   5.020   1.393  13.022  0.1492 -0.1634 -0.8411
17378TIP3    H173625   4.967   1.353  12.953 -2.5856 -2.4645  2.3113
17378TIP3    H273626   5.091   1.331  13.036 -0.1188 -0.4231 -0.6259
17379TIP3   OH273627   2.477   6.269  15.502 -0.6429  0.0649 -0.3245
17379TIP3    H173628   2.444   6.264  15.413 -1.4427  0.6573 -0.0739
17379TIP3    H273629   2.496   6.362  15.516  1.0669 -0.2308 -0.4200
17380TIP3   OH273630   1.048   3.262   0.385 -0.3721  0.1030  0.0269
17380TIP3    H173631   0.983   3.205   0.427 -0.7878 -0.9076 -1.8524
17380TIP3    H273632   1.010   3.349   0.390 -1.7727 -0.4240 -0.7769
17381TIP3   OH273633   1.191   6.690   4.655  0.0386 -0.0796  0.4145
17381TIP3    H173634   1.135   6.690   4.732  1.4986 -1.9418  1.5582
17381TIP3    H273635   1.208   6.598   4.638  2.5843  0.3928  0.0129
17382TIP3   OH273636   5.288   4.934  13.839 -0.0380 -0.3766 -0.3408
17382TIP3    H173637   5.313   4.966  13.926  1.5137  2.8055 -1.7912
17382TIP3    H273638   5.370   4.910  13.797 -0.7447 -1.6715 -1.0381
17383TIP3   OH273639   3.488   2.149   1.197 -0.1902  0.0934 -0.0701
17383TIP3    H173640   3.393   2.134   1.201 -0.0873 -0.9512 -1.0111
17383TIP3    H273641   3.498   2.243   1.208 -1.3187  0.1866  0.3057
17384TIP3   OH273642   1.315   1.975  10.218 -0.4487  0.6290  0.0396
17384TIP3    H173643   1.393   1.939  10.259 -0.2913  0.3578 -0.4907
17384TIP3    H273644   1.327   2.070  10.220 -1.0450  0.7056  1.8064
17385TIP3   OH273645   5.347   1.817   4.941 -0.4902  0.4696  0.3577
17385TIP3    H173646   5.399   1.895   4.924  0.2138 -0.0426  0.1180
17385TIP3    H273647   5.358   1.763   4.862 -2.5503  0.9561 -0.3509
17386TIP3   OH273648   1.553   6.490   2.509  0.3100  0.0950  0.3655
17386TIP3    H173649   1.498   6.542   2.451  2.0144  0.2647 -1.1875
17386TIP3    H273650   1.511   6.404   2.510  0.0187  0.2014 -0.8235
17387TIP3   OH273651   3.565   4.969   3.905  0.2317  0.3370 -0.0493
17387TIP3    H173652   3.588   4.980   3.812 -0.0280  3.1612  0.1266
17387TIP3    H273653   3.641   5.004   3.952 -0.7451  1.5450  0.6951
17388TIP3   OH273654   1.777   6.235  11.028  0.1400 -0.4317 -0.1034
17388TIP3    H173655   1.694   6.206  10.991 -0.1130  1.0762 -0.7671
17388TIP3    H273656   1.788   6.324  10.997  0.8152  0.2848  2.0071
17389TIP3   OH273657   4.171   1.693  11.617 -0.2146 -0.4106  0.4062
17389TIP3    H173658   4.135   1.648  11.541  0.9770  1.2605 -1.2448
17389TIP3    H273659   4.264   1.671  11.616 -0.5460 -2.3541  2.9196
17390TIP3   OH273660   2.918   0.939  15.297 -0.4114  0.8934 -0.0056
17390TIP3    H173661   2.914   0.952  15.202 -0.2218  1.3705  0.0490
17390TIP3    H273662   2.852   0.999  15.332 -0.9770  0.2083  0.1220
17391TIP3   OH273663   1.690   3.008  16.922 -0.8300  0.1559 -0.1387
17391TIP3    H173664   1.718   3.092  16.886 -1.3337  1.0304  1.4532
17391TIP3    H273665   1.732   3.003  17.008  2.3140 -2.9593 -1.5894
17392TIP3   OH273666   4.509   2.881   5.881 -0.1591 -0.0754 -0.1015
17392TIP3    H173667   4.512   2.786   5.893 -0.4680 -0.2456 -1.3132
17392TIP3    H273668   4.416   2.901   5.874 -0.0530  0.1854 -0.8008
17393TIP3   OH273669   5.940   5.317  15.014 -0.1849  0.0270 -0.3795
17393TIP3    H173670   5.997   5.390  14.990  1.6380 -1.1145  0.2608
17393TIP3    H273671   5.888   5.350  15.087 -0.5169  1.1579 -1.1029
17394TIP3   OH273672   1.614   6.130  14.019 -0.4533 -0.3954  0.0511
17394TIP3    H173673   1.553   6.186  14.068  1.0558  0.6433  0.8388
17394TIP3    H273674   1.568   6.109  13.938 -1.4737  1.1543  0.1869
17395TIP3   OH273675   3.333   6.524  15.546 -0.0175 -0.4160 -0.2119
17395TIP3    H173676   3.323   6.551  15.455  1.4451 -0.6429 -0.4574
17395TIP3    H273677   3.344   6.429  15.541  0.5222 -0.3738  0.1576
17396TIP3   OH273678   3.104   4.717  16.017 -0.1051 -0.0283  0.0269
17396TIP3    H173679   3.025   4.760  16.050  0.2704 -1.1931  2.7181
17396TIP3    H273680   3.176   4.771  16.050  0.2731 -0.2289 -0.4611
17397TIP3   OH273681   6.641   3.351   0.045  0.3646  0.1637 -0.0866
17397TIP3    H173682   6.552   3.386   0.039 -0.0522 -0.8956 -0.4096
17397TIP3    H273683   6.691   3.401  -0.019 -0.0227  0.6992  0.0253
17398TIP3   OH273684   6.433   3.780   0.587  0.3016  0.5841  0.0754
17398TIP3    H173685   6.525   3.765   0.611  0.3911 -2.1350 -1.5127
17398TIP3    H273686   6.416   3.871   0.612  3.3102  1.0761  0.7347
17399TIP3   OH273687   2.544   5.795   0.068  0.0934  0.1694 -0.3651
17399TIP3    H173688   2.539   5.760   0.157  1.3274 -0.3740 -0.4858
17399TIP3    H273689   2.564   5.888   0.079  0.3351  0.0838 -0.0803
17400TIP3   OH273690   6.141   1.896  14.953  0.3417  0.1127 -0.8348
17400TIP3    H173691   6.218   1.902  15.009 -0.2359  0.5217 -0.0617
17400TIP3    H273692   6.069   1.928  15.008 -0.6205 -1.5175 -1.0729
17401TIP3   OH273693   1.645   5.586  12.320  0.0694 -0.3267  0.8183
17401TIP3    H173694   1.638   5.651  12.250 -1.0114 -0.2929  0.9464
17401TIP3    H273695   1.558   5.547  12.326  0.6803 -1.7579  0.7863
17402TIP3   OH273696   3.422   2.506  11.741  0.1862  0.5199 -0.0901
17402TIP3    H173697   3.475   2.463  11.674  1.9048 -2.3112  2.8135
17402TIP3    H273698   3.340   2.457  11.743  0.3854  0.2026  0.2969
17403TIP3   OH273699   1.228   0.092   3.063  0.2734 -0.6107  0.2730
17403TIP3    H173700   1.147   0.144   3.069  1.8701  2.1318 -0.3180
17403TIP3    H273701   1.289   0.148   3.015  2.7478 -2.3288  1.2286
17404TIP3   OH273702   0.100   5.414  15.097  0.2633 -0.0925  0.0942
17404TIP3    H173703   0.172   5.436  15.157  1.0547 -0.6405 -0.6325
17404TIP3    H273704   0.135   5.435  15.010 -0.0762 -1.3279 -0.3541
17405TIP3   OH273705   5.020   3.494  15.378 -0.4901 -0.8241 -0.0862
17405TIP3    H173706   4.996   3.556  15.447 -3.4803 -1.3283 -0.5491
17405TIP3    H273707   5.087   3.439  15.418  0.0952  0.8323  1.3365
17406TIP3   OH273708   2.381   3.210   0.911 -0.0032  0.1002 -0.9413
17406TIP3    H173709   2.406   3.247   0.827 -0.1128 -0.5179 -1.2552
17406TIP3    H273710   2.359   3.285   0.965  1.3612  0.5995 -1.0297
17407TIP3   OH273711   4.667   3.161  11.201  0.3112 -0.1602 -0.6193
17407TIP3    H173712   4.646   3.138  11.110 -1.8683  0.8709 -0.4497
17407TIP3    H273713   4.688   3.078  11.243 -0.6587 -0.9313 -1.6009
17408TIP3   OH273714   4.917   2.540   4.243  0.2086 -0.1408 -0.4690
17408TIP3    H173715   4.894   2.457   4.283 -1.2930  0.2809 -0.3866
17408TIP3    H273716   4.858   2.604   4.283  1.6089  1.0638 -0.2139
17409TIP3   OH273717   3.865   5.353   3.760  0.1242 -0.3524  0.0730
17409TIP3    H173718   3.838   5.315   3.843 -0.7332  0.7700  0.3250
17409TIP3    H273719   3.908   5.435   3.783  0.4802 -0.3507 -0.5580
17410TIP3   OH273720   3.978   0.581   0.454  0.0274  0.4010  0.0528
17410TIP3    H173721   3.961   0.657   0.398  1.2155  0.5707 -0.1049
17410TIP3    H273722   3.960   0.505   0.398  0.1343  0.5710 -0.2145
17411TIP3   OH273723   2.120   1.392  10.850 -0.1518  0.3396 -0.1364
17411TIP3    H173724   2.042   1.443  10.830 -0.2165  0.6122  0.7408
17411TIP3    H273725   2.111   1.313  10.797  0.4042  1.5988 -2.2297
17412TIP3   OH273726   3.474   2.602   5.680 -0.2380 -0.6613 -0.3922
17412TIP3    H173727   3.542   2.624   5.743 -1.9466  1.2484  0.8953
17412TIP3    H273728   3.498   2.514   5.650  2.5480 -0.2458  0.2574
17413TIP3   OH273729   5.315   0.653  12.237 -0.0657 -0.0355 -0.7984
17413TIP3    H173730   5.356   0.599  12.305  0.8238  2.4703  0.7773
17413TIP3    H273731   5.388   0.698  12.195 -0.6522 -1.1079 -3.1419
17414TIP3   OH273732   5.585   5.961  14.197  0.3531  0.4860  0.2850
17414TIP3    H173733   5.584   5.912  14.115 -0.0656 -0.6250  0.9313
17414TIP3    H273734   5.520   6.030  14.185 -1.1715 -0.8853  0.3751
17415TIP3   OH273735   3.720   1.186  16.609 -0.2990  0.3552  0.2862
17415TIP3    H173736   3.706   1.145  16.524 -0.5659 -0.1065  0.5489
17415TIP3    H273737   3.662   1.262  16.608 -0.1606  0.4620 -0.0127
17416TIP3   OH273738   3.665   5.051  11.716 -0.3669  0.7727  0.0599
17416TIP3    H173739   3.733   4.998  11.676 -0.2026  2.5297 -2.2012
17416TIP3    H273740   3.596   4.989  11.739  0.7079 -0.6563 -0.4506
17417TIP3   OH273741   2.261   1.244  12.261  0.9078 -0.5663 -0.0225
17417TIP3    H173742   2.271   1.150  12.242 -1.8339 -0.7523 -0.9458
17417TIP3    H273743   2.311   1.257  12.342  1.9934 -2.6247 -0.2855
17418TIP3   OH273744   4.024   0.921   1.541 -0.1045  0.4078 -0.2034
17418TIP3    H173745   4.106   0.952   1.579  1.2458  0.2456 -2.7413
17418TIP3    H273746   3.968   0.998   1.539  0.3456  0.7715  0.6247
17419TIP3   OH273747   1.965   3.815  14.488  0.0996 -0.1021 -0.1791
17419TIP3    H173748   1.892   3.781  14.540  0.9888 -3.6468 -1.0228
17419TIP3    H273749   1.927   3.831  14.402 -0.1573  0.2674  0.0011
17420TIP3   OH273750   2.183   5.403   0.673 -0.5547  0.6666 -0.1043
17420TIP3    H173751   2.154   5.336   0.612 -0.1560  0.9384 -0.5934
17420TIP3    H273752   2.116   5.403   0.742 -0.3452 -0.5192  0.1226
17421TIP3   OH273753   0.014   3.372  11.847  0.4623  0.2773 -1.1616
17421TIP3    H173754   0.041   3.311  11.916  1.4324  2.3742  0.4261
17421TIP3    H273755  -0.020   3.316  11.777  0.1509 -1.9847  0.6933
17422TIP3   OH273756   0.369   0.403  17.285 -0.2906  1.1934  0.4107
17422TIP3    H173757   0.331   0.354  17.358  2.5373 -0.4307  0.9601
17422TIP3    H273758   0.328   0.489  17.290 -2.9311 -0.0076  1.5557
17423TIP3   OH273759   1.075   3.635   4.690  0.3412  0.0157 -0.8023
17423TIP3    H173760   1.154   3.606   4.644  0.5605 -0.0343 -0.3957
17423TIP3    H273761   1.063   3.726   4.663  0.6427  0.0790 -0.7201
17424TIP3   OH273762   0.658   2.760  11.747  0.0904 -0.5367 -0.0065
17424TIP3    H173763   0.625   2.763  11.837 -0.8752  1.7298 -0.3603
17424TIP3    H273764   0.585   2.727  11.695 -1.1764  2.7610 -0.5412
17425TIP3   OH273765   3.249   0.351  14.542  0.1096  0.0344 -0.0842
17425TIP3    H173766   3.211   0.357  14.629 -1.4714 -0.6974 -0.6985
17425TIP3    H273767   3.344   0.358  14.557 -0.0478 -1.3197  1.8074
17426TIP3   OH273768   5.032   1.805  10.301 -0.0303  0.2174  0.0737
17426TIP3    H173769   5.015   1.790  10.394 -0.1382 -0.3159 -0.0315
17426TIP3    H273770   5.098   1.739  10.279  0.6122  0.8760 -0.0328
17427TIP3   OH273771   5.744   4.225  13.633  0.1302 -0.1034  0.4147
17427TIP3    H173772   5.730   4.302  13.577 -0.2594 -0.4991 -0.0344
17427TIP3    H273773   5.658   4.206  13.670  0.0813 -0.7420 -0.0184
17428TIP3   OH273774   0.234   5.557  13.677  0.4296  0.4489  0.0236
17428TIP3    H173775   0.303   5.618  13.651  1.6952 -0.4355  1.1930
17428TIP3    H273776   0.280   5.476  13.699 -0.9110 -0.0140  1.3223
17429TIP3   OH273777   5.333   5.199   3.877 -0.2386  0.2313 -0.2631
17429TIP3    H173778   5.333   5.294   3.862  0.1521  0.2645 -0.0459
17429TIP3    H273779   5.335   5.161   3.789 -2.7767  0.3996 -0.4714
17430TIP3   OH273780   3.321   3.908  16.901  0.3160 -0.0107 -0.2177
17430TIP3    H173781   3.257   3.863  16.956 -0.3118  1.1790  0.0653
17430TIP3    H273782   3.279   3.913  16.815  0.8834 -0.9951 -0.5643
17431TIP3   OH273783   5.870   6.687   6.635 -0.2776  0.2514  0.2480
17431TIP3    H173784   5.879   6.603   6.681  0.6443  0.7370  0.9868
17431TIP3    H273785   5.821   6.742   6.695  2.7281  1.5750  1.7164
17432TIP3   OH273786   4.127   6.747   0.496  0.2404  0.3667  0.2776
17432TIP3    H173787   4.200   6.686   0.505 -0.6465 -0.5837  1.3053
17432TIP3    H273788   4.116   6.756   0.401  0.6443 -0.7718  0.0979
17433TIP3   OH273789   4.079   1.287   4.375 -0.0991  0.2463  0.0978
17433TIP3    H173790   4.173   1.271   4.380 -0.2066 -0.1951  0.8614
17433TIP3    H273791   4.063   1.313   4.285  0.8762  1.0899  0.1584
17434TIP3   OH273792   5.099   4.702   5.025  0.3597 -0.1521 -0.2301
17434TIP3    H173793   5.152   4.747   5.091 -1.5227  0.2538  1.1080
17434TIP3    H273794   5.086   4.767   4.956  0.1409  0.3600  0.2808
17435TIP3   OH273795   0.840   3.974   6.136 -0.5919 -0.1270 -0.2413
17435TIP3    H173796   0.745   3.960   6.131 -0.6026 -0.0443 -0.2608
17435TIP3    H273797   0.852   4.031   6.212 -0.5981  0.2541 -0.5239
17436TIP3   OH273798   2.459   1.611   6.076 -0.3751 -0.0850  0.2834
17436TIP3    H173799   2.404   1.603   6.153 -0.4645  1.1493  0.3536
17436TIP3    H273800   2.511   1.690   6.091  0.0585 -0.1807 -0.6411
17437TIP3   OH273801   1.011   2.803   4.382  0.1181  0.5728 -0.3018
17437TIP3    H173802   1.026   2.896   4.396 -0.9785  0.6647  0.3928
17437TIP3    H273803   1.097   2.767   4.362  0.8279  1.4615  1.0152
17438TIP3   OH273804   2.035   1.406  12.843  0.0101  0.2171 -0.3681
17438TIP3    H173805   2.051   1.344  12.771  1.7417  0.7198 -0.4485
17438TIP3    H273806   1.993   1.481  12.800 -1.6077 -0.6154 -0.3541
17439TIP3   OH273807   6.096   2.431   5.633  0.0142  1.0850  0.2574
17439TIP3    H173808   6.117   2.518   5.666  0.1074  0.0930  3.0640
17439TIP3    H273809   6.021   2.403   5.685  1.4310 -1.4056  1.1173
17440TIP3   OH273810   3.914   0.058  15.730 -0.2977  0.1631  0.7754
17440TIP3    H173811   3.995   0.034  15.686 -1.0197  0.2607 -0.6690
17440TIP3    H273812   3.847   0.003  15.688 -0.9956  0.1218  1.8940
17441TIP3   OH273813   5.171   5.056  16.931 -0.7501 -0.3822  0.1882
17441TIP3    H173814   5.223   5.049  17.011  1.2441 -0.6291 -1.0346
17441TIP3    H273815   5.101   5.117  16.953  0.4993  0.5889  1.7582
17442TIP3   OH273816   4.956   0.158  15.454  0.6655  0.1543  0.3609
17442TIP3    H173817   4.958   0.126  15.364  0.8351  0.2224  0.3391
17442TIP3    H273818   4.895   0.232  15.452  0.8714  0.3267  0.2418
17443TIP3   OH273819   3.511   3.121   5.958 -0.1578 -0.3819 -0.0173
17443TIP3    H173820   3.435   3.063   5.966 -1.0493  0.6628 -0.4808
17443TIP3    H273821   3.500   3.184   6.030  1.0492 -1.0406  0.7758
17444TIP3   OH273822   5.546   4.094  11.025 -0.5004  0.5774 -0.7900
17444TIP3    H173823   5.634   4.131  11.027  1.0462 -2.7320 -0.4860
17444TIP3    H273824   5.541   4.049  10.941 -1.8640  0.5459 -0.7125
17445TIP3   OH273825   4.770   4.616  14.569  0.3721  0.2992  0.0228
17445TIP3    H173826   4.811   4.570  14.643 -0.1993 -0.5609 -0.1712
17445TIP3    H273827   4.802   4.706  14.575 -0.3998  0.4948  1.8761
17446TIP3   OH273828   2.549   1.826   1.784 -0.5360  0.1646 -0.4061
17446TIP3    H173829   2.468   1.876   1.781 -1.1849 -0.8156  0.3688
17446TIP3    H273830   2.536   1.762   1.854  2.2119  2.2700  2.2991
17447TIP3   OH273831   2.945   0.044  13.148 -0.3652  0.3033 -0.0467
17447TIP3    H173832   2.883   0.004  13.087 -0.7325 -0.1904  0.6355
17447TIP3    H273833   2.987   0.114  13.098  0.6182 -1.2035 -1.4119
17448TIP3   OH273834   3.618   0.281  15.693 -0.1118  0.4038 -0.5197
17448TIP3    H173835   3.613   0.186  15.705  0.3834  0.4550  0.1530
17448TIP3    H273836   3.589   0.317  15.776  1.6742  0.8048 -0.0288
17449TIP3   OH273837   5.750   4.547  15.706 -0.8187  0.0307  0.2972
17449TIP3    H173838   5.759   4.505  15.621  0.9613 -0.0763  0.5089
17449TIP3    H273839   5.817   4.505  15.761  0.0656  2.1328  0.9051
17450TIP3   OH273840   3.220   1.275   2.466 -0.1759 -0.1477  0.4906
17450TIP3    H173841   3.292   1.338   2.477 -0.1008  0.1026 -1.0926
17450TIP3    H273842   3.212   1.231   2.550  0.2244  1.5222  1.4367
17451TIP3   OH273843   2.791   0.476   0.527 -0.2252 -1.2313  0.4886
17451TIP3    H173844   2.839   0.554   0.500  1.2867 -2.7424 -1.4637
17451TIP3    H273845   2.704   0.486   0.487  0.5636 -1.3459 -1.3575
17452TIP3   OH273846   1.879   6.207  12.944  0.5285  0.1266  0.0632
17452TIP3    H173847   1.828   6.141  12.991  1.1259 -0.1855  0.2816
17452TIP3    H273848   1.933   6.157  12.883 -1.3016  0.5923 -2.0744
17453TIP3   OH273849   4.938   3.195  16.273  0.7838  0.5037  0.0424
17453TIP3    H173850   4.897   3.241  16.199  0.3783  0.8387  0.4738
17453TIP3    H273851   4.950   3.262  16.340  0.1207 -0.0137  0.7069
17454TIP3   OH273852   4.215   4.002   0.312  0.1413  0.1266 -0.7640
17454TIP3    H173853   4.129   4.034   0.285 -0.1332  0.6712  0.7054
17454TIP3    H273854   4.212   3.908   0.292 -1.0874 -0.0134 -0.0392
17455TIP3   OH273855   4.151   3.728   0.229  0.0007  0.3325 -0.3485
17455TIP3    H173856   4.172   3.662   0.162  1.2483  0.8886 -0.5279
17455TIP3    H273857   4.074   3.773   0.195 -0.8461 -0.9747 -0.2489
17456TIP3   OH273858   6.131   1.138   5.968 -0.2169 -0.4442 -0.1709
17456TIP3    H173859   6.110   1.121   6.060  2.0993 -2.0772  0.1370
17456TIP3    H273860   6.058   1.191   5.936 -2.0520 -1.4578  2.0696
17457TIP3   OH273861   4.726   1.140  11.646  0.0215 -0.1733 -0.4202
17457TIP3    H173862   4.723   1.206  11.576 -0.8132 -0.1188 -0.3451
17457TIP3    H273863   4.754   1.060  11.602  1.9571  0.4169 -0.3465
17458TIP3   OH273864   0.599   2.685  14.456 -0.0606  0.3817  0.0936
17458TIP3    H173865   0.554   2.603  14.480 -0.0869  0.1431 -0.7148
17458TIP3    H273866   0.537   2.729  14.397  1.3170 -0.6888 -2.3325
17459TIP3   OH273867   5.559   5.907   2.132  0.0996 -0.1174 -0.1930
17459TIP3    H173868   5.551   5.818   2.097  0.9275 -0.4686  0.4521
17459TIP3    H273869   5.644   5.938   2.100 -0.2501  0.5062 -0.5346
17460TIP3   OH273870   6.450   5.593  16.770  0.1815 -0.4716 -0.1668
17460TIP3    H173871   6.392   5.541  16.826 -0.5799  0.1405 -0.3703
17460TIP3    H273872   6.431   5.684  16.793  0.3120 -0.2305 -0.9717
17461TIP3   OH273873   6.485   1.909   5.846 -1.0236  0.1546 -0.2198
17461TIP3    H173874   6.460   1.883   5.757 -0.4834  0.2571 -0.4079
17461TIP3    H273875   6.447   1.842   5.902 -0.3181 -0.6044 -0.6373
17462TIP3   OH273876   2.808   4.559  14.612  0.2361 -0.2369  0.2188
17462TIP3    H173877   2.759   4.483  14.581  1.7127 -0.7296 -1.0458
17462TIP3    H273878   2.777   4.573  14.701  0.1699 -2.5531  0.6140
17463TIP3   OH273879   4.854   3.595  12.357 -0.5551  0.1709  0.0221
17463TIP3    H173880   4.828   3.605  12.265  1.3004 -1.5709 -0.7908
17463TIP3    H273881   4.909   3.671  12.375 -0.3868  0.1855 -0.5337
17464TIP3   OH273882   0.998   2.038   1.983 -0.7781 -0.2112  0.3827
17464TIP3    H173883   1.085   2.010   1.954 -0.4371  1.3521 -0.2379
17464TIP3    H273884   0.959   1.960   2.022  0.1885 -1.4501 -1.0056
17465TIP3   OH273885   5.702   2.175   3.032  0.2955 -0.3172 -0.7241
17465TIP3    H173886   5.704   2.134   2.946  2.6117 -0.1076 -0.8160
17465TIP3    H273887   5.770   2.241   3.030 -0.4674  0.5937  0.8677
17466TIP3   OH273888   5.446   5.242  11.167  0.6349 -0.0640  0.0121
17466TIP3    H173889   5.381   5.272  11.103  0.8343 -0.8504 -0.5702
17466TIP3    H273890   5.474   5.322  11.212  0.1804  0.4397 -0.5872
17467TIP3   OH273891   2.702   1.081  10.459 -0.4629  0.3157 -0.0558
17467TIP3    H173892   2.749   1.156  10.424 -1.6920  0.8814 -0.5918
17467TIP3    H273893   2.610   1.108  10.456 -0.9957 -1.4311 -0.8870
17468TIP3   OH273894   0.351   1.719  14.585 -0.2522  0.1497 -0.3065
17468TIP3    H173895   0.290   1.790  14.564 -1.3041 -0.9939 -1.2844
17468TIP3    H273896   0.302   1.660  14.641  1.1937  1.0179  2.0323
17469TIP3   OH273897   6.809   6.207   2.802  0.4496  0.2707  0.2185
17469TIP3    H173898   6.796   6.286   2.749  2.5427  0.5152 -0.0071
17469TIP3    H273899   6.764   6.138   2.754  1.1424  0.7582 -1.1976
17470TIP3   OH273900   3.882   3.368  11.708 -0.0808  0.5469 -0.0576
17470TIP3    H173901   3.867   3.277  11.685  0.2323  0.5681 -0.3518
17470TIP3    H273902   3.938   3.402  11.638 -1.0163  1.2342 -0.5059
17471TIP3   OH273903   4.327   2.121   1.572 -0.4086 -0.6866 -0.4135
17471TIP3    H173904   4.304   2.050   1.512 -3.1946  0.1209 -0.4264
17471TIP3    H273905   4.249   2.135   1.625  0.0837  2.2287 -0.2877
17472TIP3   OH273906   2.177   6.767   0.335 -0.2944 -0.7017 -0.1994
17472TIP3    H173907   2.165   6.747   0.428  0.0786  1.6699  0.4232
17472TIP3    H273908   2.261   6.813   0.331 -0.7246  0.0152 -1.5723
17473TIP3   OH273909   1.029   5.161  13.248 -0.0924  0.1290  0.4785
17473TIP3    H173910   0.973   5.159  13.171  0.5701  0.4039 -0.0144
17473TIP3    H273911   1.042   5.254  13.266 -1.0024  0.0903  1.4969
17474TIP3   OH273912   4.983   2.798   0.130  0.3026 -0.0931  0.0474
17474TIP3    H173913   4.976   2.705   0.152 -3.1352 -0.1345 -0.6811
17474TIP3    H273914   5.028   2.799   0.046  1.0267 -1.0243  0.4026
17475TIP3   OH273915   0.503   1.476  14.522  0.0316 -0.1180  0.1393
17475TIP3    H173916   0.503   1.403  14.460 -0.3695 -1.6844  1.9026
17475TIP3    H273917   0.418   1.471  14.565  0.7328  0.1855  1.6159
17476TIP3   OH273918   5.852   3.419   6.672 -0.5241 -0.6577 -0.0464
17476TIP3    H173919   5.837   3.508   6.703 -0.4403 -1.2818  1.9691
17476TIP3    H273920   5.766   3.390   6.640 -0.4803  0.2290 -1.0087
17477TIP3   OH273921   4.765   5.398   0.524  0.0370 -0.5245 -0.1445
17477TIP3    H173922   4.802   5.451   0.453 -0.0018  0.2125  0.3655
17477TIP3    H273923   4.701   5.341   0.482 -0.7819  0.6725 -0.5595
17478TIP3   OH273924   0.977   5.544   0.666  0.5190 -0.2472  0.0841
17478TIP3    H173925   0.927   5.604   0.611  1.5637  0.5633 -0.0191
17478TIP3    H273926   0.995   5.469   0.610  1.7103  0.6411 -0.7696
17479TIP3   OH273927   1.379   1.597   6.005 -0.3258  0.2460 -0.5299
17479TIP3    H173928   1.420   1.511   6.010 -1.5764 -0.5403 -2.5781
17479TIP3    H273929   1.336   1.609   6.090 -1.8308 -2.0889 -0.8830
17480TIP3   OH273930   6.272   6.272  17.031  0.6918 -0.3120 -0.4878
17480TIP3    H173931   6.267   6.270  16.936  0.9679 -0.4046 -0.5022
17480TIP3    H273932   6.188   6.309  17.060  0.9948  0.6595 -0.8067
17481TIP3   OH273933   2.400   4.085  16.768  0.0134 -0.5924 -0.4222
17481TIP3    H173934   2.483   4.092  16.721  0.0669  1.0335 -0.1206
17481TIP3    H273935   2.382   4.173  16.800 -1.9496 -0.8519 -0.6687
17482TIP3   OH273936   1.954   3.136   0.913 -0.7365 -0.2275  0.1428
17482TIP3    H173937   1.990   3.223   0.898 -1.8005  0.2080  0.0147
17482TIP3    H273938   2.017   3.076   0.874 -0.8184  0.5779 -1.2824
17483TIP3   OH273939   2.674   3.172  13.919  0.3124  0.5382  0.4653
17483TIP3    H173940   2.700   3.224  13.995  0.7843  1.1130 -0.0751
17483TIP3    H273941   2.734   3.097  13.920 -0.5016 -0.1233  1.3612
17484TIP3   OH273942   0.129   5.483   1.943 -0.3212  0.1028 -0.3837
17484TIP3    H173943   0.168   5.568   1.965 -1.1398  0.6188 -0.8852
17484TIP3    H273944   0.100   5.493   1.853 -0.3259 -0.7589 -0.4829
17485TIP3   OH273945   5.944   4.225   5.125 -0.3506  0.3532 -0.4732
17485TIP3    H173946   5.929   4.130   5.130 -1.3155  0.5659  2.3501
17485TIP3    H273947   6.035   4.237   5.153 -0.8003  0.3414  1.0893
17486TIP3   OH273948   4.536   1.496  13.383  0.3766 -0.4065  0.1560
17486TIP3    H173949   4.543   1.413  13.336 -0.2130  0.7316 -2.0827
17486TIP3    H273950   4.622   1.537  13.374  0.0626  0.1185 -0.5962
17487TIP3   OH273951   4.646   3.938  11.742 -0.3893  0.2219  0.0710
17487TIP3    H173952   4.557   3.961  11.765  0.2962  3.1803  0.0765
17487TIP3    H273953   4.688   3.918  11.826 -0.4981  0.9353  0.2950
17488TIP3   OH273954   3.248   0.397   5.126 -0.1813  0.0586 -0.5200
17488TIP3    H173955   3.322   0.378   5.069  2.6238 -0.9882  3.1197
17488TIP3    H273956   3.252   0.491   5.140 -0.2152  0.1577 -1.1412
17489TIP3   OH273957   1.108   5.024  14.400  0.0458 -0.1555 -0.1287
17489TIP3    H173958   1.081   5.096  14.342 -2.3195  0.3781  1.4751
17489TIP3    H273959   1.154   5.067  14.472  1.7860 -0.6848 -0.8692
17490TIP3   OH273960   1.230   1.887   5.979  0.4047  0.0129 -0.5142
17490TIP3    H173961   1.266   1.960   6.030 -1.1421  0.3343  0.1763
17490TIP3    H273962   1.256   1.809   6.028 -0.5584  0.2856  0.4609
17491TIP3   OH273963   1.283   3.401   4.091  0.0240 -0.5241  0.5117
17491TIP3    H173964   1.283   3.320   4.038  0.4941  0.9323 -1.8730
17491TIP3    H273965   1.221   3.458   4.045 -0.7760  0.2955  2.5214
17492TIP3   OH273966   1.848   3.433   5.071 -0.2008 -0.0364  0.1087
17492TIP3    H173967   1.823   3.425   4.979  0.0988  0.9829 -0.0688
17492TIP3    H273968   1.800   3.509   5.103 -1.1861 -1.0410  1.1180
17493TIP3   OH273969   1.187   2.001   3.234 -0.0526 -0.5407 -0.0559
17493TIP3    H173970   1.099   1.994   3.196 -0.6230  2.2121  0.5376
17493TIP3    H273971   1.246   1.993   3.159 -0.9565  0.5312 -0.9211
17494TIP3   OH273972   0.293   5.922  13.132 -0.2948 -0.1861  0.2779
17494TIP3    H173973   0.335   5.837  13.121 -0.5191 -0.2180 -0.3332
17494TIP3    H273974   0.339   5.979  13.070  0.4929  0.3771  1.3381
17495TIP3   OH273975   6.039   2.682  11.421 -0.6070  0.0130  0.6779
17495TIP3    H173976   6.098   2.755  11.438 -0.6945  0.1326  0.4680
17495TIP3    H273977   5.951   2.720  11.429 -0.6552 -0.1417  0.8890
17496TIP3   OH273978   1.885   5.496   6.505 -0.1247  0.1009  0.2084
17496TIP3    H173979   1.888   5.410   6.463 -1.0507 -0.4275  1.1636
17496TIP3    H273980   1.810   5.490   6.565  1.3533  0.6853  2.1986
17497TIP3   OH273981   2.758   4.239  14.758 -0.1105 -0.8530 -0.3729
17497TIP3    H173982   2.816   4.293  14.812  0.2622 -0.4653 -1.1407
17497TIP3    H273983   2.748   4.158  14.808  0.3844 -0.5872  0.1819
17498TIP3   OH273984   6.555   0.683   3.001 -0.2068 -0.8308 -0.1947
17498TIP3    H173985   6.509   0.748   2.948 -0.0800 -0.9732 -0.4755
17498TIP3    H273986   6.485   0.640   3.052 -0.1195  0.8711  1.4898
17499TIP3   OH273987   1.166   4.736   1.580 -0.3620 -0.5042 -0.2221
17499TIP3    H173988   1.125   4.654   1.607 -1.8170 -0.1010 -1.0593
17499TIP3    H273989   1.220   4.713   1.505 -1.8049 -0.5200 -1.2920
17500TIP3   OH273990   5.837   5.038  13.638  0.1836  0.4076 -0.0018
17500TIP3    H173991   5.861   5.124  13.604 -0.6488 -0.1987 -2.3237
17500TIP3    H273992   5.846   4.979  13.563 -0.2015 -1.3584  1.2701
17501TIP3   OH273993   6.733   0.725   4.551  0.0988  0.1212  0.5997
17501TIP3    H173994   6.691   0.648   4.513  0.5424 -0.4315  1.2313
17501TIP3    H273995   6.684   0.742   4.631  0.0412  0.4704  0.4945
17502TIP3   OH273996   1.297   6.039   1.673 -0.4547 -0.0437  0.1750
17502TIP3    H173997   1.287   6.055   1.579  1.4985  0.5192  0.0037
17502TIP3    H273998   1.287   6.125   1.713  1.6441  0.2885  0.1241
17503TIP3   OH273999   4.810   5.185  16.907  0.2258 -0.3479  0.3201
17503TIP3    H174000   4.754   5.255  16.874  0.6332 -0.0373  0.2880
17503TIP3    H274001   4.888   5.230  16.941  0.6974 -0.8182 -0.1224
17504TIP3   OH274002   3.512   2.010   1.423  0.8720  0.4414 -0.2087
17504TIP3    H174003   3.522   2.051   1.337 -0.1620  1.8389  0.3084
17504TIP3    H274004   3.420   2.026   1.446  0.0942 -2.9791 -0.3781
17505TIP3   OH274005   0.860   5.242  10.352  0.2336  0.1973 -0.1419
17505TIP3    H174006   0.769   5.242  10.381  0.4730  0.7474  0.6513
17505TIP3    H274007   0.878   5.334  10.331  0.6781  0.1366 -0.0331
17506TIP3   OH274008   3.778   3.860  13.351 -0.5927 -0.4219 -0.0660
17506TIP3    H174009   3.748   3.863  13.442 -1.3420  0.0519 -0.3130
17506TIP3    H274010   3.722   3.923  13.306  0.5708  0.2385 -0.6310
17507TIP3   OH274011   3.363   3.028   4.999  0.5072  0.5052  0.2633
17507TIP3    H174012   3.275   2.992   4.991  0.4478  0.6817  0.1086
17507TIP3    H274013   3.371   3.052   5.091  0.9802 -1.0023  0.6434
17508TIP3   OH274014   2.070   3.050   1.336 -0.4149 -0.6213 -0.2964
17508TIP3    H174015   2.156   3.044   1.296 -0.2690  0.0050 -0.0927
17508TIP3    H274016   2.087   3.077   1.426 -0.8285 -0.3041 -0.3070
17509TIP3   OH274017   6.561   3.922   0.971 -0.2984 -0.5810  0.0431
17509TIP3    H174018   6.597   3.857   1.032 -0.6704  1.1487  2.2734
17509TIP3    H274019   6.638   3.972   0.942 -0.3154  0.0312  0.9755
17510TIP3   OH274020   4.177   1.538  15.086 -0.0308  0.1365  0.0803
17510TIP3    H174021   4.196   1.610  15.025  0.9719 -0.6691 -0.5714
17510TIP3    H274022   4.084   1.520  15.072  0.0207  0.4214 -0.7220
17511TIP3   OH274023   1.575   3.568  15.684  0.2416 -0.0399  0.3519
17511TIP3    H174024   1.553   3.646  15.633  1.0073  0.4346  0.7323
17511TIP3    H274025   1.669   3.576  15.701  0.8662 -2.1360 -1.4825
17512TIP3   OH274026   2.075   6.563  11.757 -0.4504 -0.2543  0.1986
17512TIP3    H174027   2.103   6.471  11.759 -0.7234 -0.3334  1.6224
17512TIP3    H274028   1.980   6.558  11.744 -0.1624 -0.0637 -2.3110
17513TIP3   OH274029   4.097   1.551   4.707  0.1275 -0.0573 -0.3145
17513TIP3    H174030   4.044   1.503   4.643  0.1798  0.8379 -1.0493
17513TIP3    H274031   4.039   1.562   4.782  0.6042 -2.5962  0.5231
17514TIP3   OH274032   6.665   3.179  13.734  0.1796 -0.1448  1.0595
17514TIP3    H174033   6.695   3.178  13.644  0.2130  2.3339  0.9846
17514TIP3    H274034   6.570   3.173  13.728  0.1973 -0.2361  0.8742
17515TIP3   OH274035   6.760   5.227  12.484 -0.5770 -0.1440  0.0739
17515TIP3    H174036   6.690   5.165  12.466 -1.2630  0.3551  0.9499
17515TIP3    H274037   6.834   5.172  12.510 -0.7087 -0.6599 -0.6157
17516TIP3   OH274038   0.437   4.554   3.869  0.3177  0.3269 -0.2522
17516TIP3    H174039   0.461   4.501   3.793 -0.8719  1.3952 -1.4253
17516TIP3    H274040   0.358   4.514   3.904  0.5327  0.1796  0.0707
17517TIP3   OH274041   2.334   1.890  10.988  0.7492 -0.3183 -0.0989
17517TIP3    H174042   2.275   1.944  10.934  0.0107 -1.0730 -0.0658
17517TIP3    H274043   2.285   1.809  11.003  1.3372 -0.5083  0.8940
17518TIP3   OH274044   2.360   3.982   3.125  0.0880  0.0848  0.1454
17518TIP3    H174045   2.294   4.001   3.058  1.8355  1.2085 -1.3543
17518TIP3    H274046   2.309   3.959   3.203 -2.0708  1.2614 -0.8223
17519TIP3   OH274047   0.202   1.775  11.870 -0.0799  0.1086 -0.2559
17519TIP3    H174048   0.181   1.688  11.906 -0.9132  0.4515  0.0965
17519TIP3    H274049   0.291   1.792  11.902 -0.3879 -0.0715  0.7583
17520TIP3   OH274050   0.758   3.160   1.576 -0.0107  0.9328 -0.4106
17520TIP3    H174051   0.665   3.160   1.553  0.1027  1.8153 -0.8961
17520TIP3    H274052   0.788   3.071   1.554 -1.4538 -0.5566  2.8990
17521TIP3   OH274053   6.758   6.745   5.523  0.1863 -0.2040  0.1047
17521TIP3    H174054   6.775   6.673   5.583 -1.5815 -1.8381 -1.2156
17521TIP3    H274055   6.667   6.769   5.539  0.7209  1.7660  0.4783
17522TIP3   OH274056   6.458   3.060  16.540  0.2001  0.0750  0.2496
17522TIP3    H174057   6.497   3.128  16.485 -1.1917 -0.5083 -1.5426
17522TIP3    H274058   6.524   2.991  16.543  0.2112  0.0173 -0.9230
17523TIP3   OH274059   0.150   5.322   4.716 -0.2192  0.0937 -0.2872
17523TIP3    H174060   0.190   5.409   4.716 -1.7942  0.8621  0.8324
17523TIP3    H274061   0.074   5.330   4.658 -0.2684 -0.5899 -0.3222
17524TIP3   OH274062   0.525   2.355   5.417 -0.2024  0.0955  1.0309
17524TIP3    H174063   0.449   2.408   5.394 -0.1436 -0.0627  0.4396
17524TIP3    H274064   0.561   2.396   5.496  0.4240  1.5649  0.0407
17525TIP3   OH274065   2.406   0.136   6.000 -0.3266  0.1388 -0.1160
17525TIP3    H174066   2.465   0.087   6.057  1.0259  0.9694 -0.7603
17525TIP3    H274067   2.463   0.191   5.947 -1.6897  1.0369 -0.7203
17526TIP3   OH274068   5.865   3.274   3.337 -0.0274  0.5538  0.1535
17526TIP3    H174069   5.958   3.250   3.340 -0.0515  0.0805 -1.4584
17526TIP3    H274070   5.846   3.311   3.423  1.6786  0.7431  0.4785
17527TIP3   OH274071   2.882   2.206  14.271  0.4074 -0.3343  0.3872
17527TIP3    H174072   2.910   2.218  14.180 -2.1799 -0.0765 -0.4571
17527TIP3    H274073   2.898   2.113  14.288  0.4399 -0.5079 -0.5184
17528TIP3   OH274074   0.256   3.966   4.914  0.0091  0.2808 -0.1019
17528TIP3    H174075   0.181   4.014   4.952  0.0263 -0.2086  0.5697
17528TIP3    H274076   0.232   3.874   4.923  1.1293  0.0718  1.0982
17529TIP3   OH274077   6.031   0.103  11.687 -0.3691 -0.5724 -0.5831
17529TIP3    H174078   6.122   0.090  11.716 -0.3542  0.5560 -0.0624
17529TIP3    H274079   5.980   0.040  11.738 -0.1105  0.1392  0.5976
17530TIP3   OH274080   2.476   0.863  12.208 -0.0408  0.0293 -0.1951
17530TIP3    H174081   2.487   0.858  12.302 -0.5438 -1.8438 -0.2028
17530TIP3    H274082   2.539   0.801  12.172  0.5966  1.1840 -1.1462
17531TIP3   OH274083   0.588   0.241  12.326 -0.1272  0.5636 -0.3215
17531TIP3    H174084   0.597   0.323  12.375 -0.8038  1.7167 -2.0504
17531TIP3    H274085   0.629   0.259  12.242  0.8951 -1.3403 -0.2832
17532TIP3   OH274086   1.113   3.175  14.700 -0.4145  0.1782 -0.1220
17532TIP3    H174087   1.106   3.270  14.706 -1.5919  0.0468  3.6030
17532TIP3    H274088   1.157   3.149  14.781 -1.9796 -2.5382 -0.0053
17533TIP3   OH274089   0.770   0.269  15.884  0.3053 -0.3685  0.3649
17533TIP3    H174090   0.859   0.297  15.864  0.4168 -1.2994 -0.4973
17533TIP3    H274091   0.747   0.317  15.964  0.6967  1.6684 -0.6910
17534TIP3   OH274092   4.729   3.699  16.105  0.0758 -0.1443 -0.6251
17534TIP3    H174093   4.821   3.722  16.097 -0.5685  3.0876 -0.1398
17534TIP3    H274094   4.686   3.749  16.035 -1.7834  2.5708  2.1576
17535TIP3   OH274095   0.672   6.801   2.456 -0.3351  0.2427 -0.5989
17535TIP3    H174096   0.749   6.746   2.465 -0.4027  0.1765 -0.4216
17535TIP3    H274097   0.604   6.744   2.420 -1.0641 -0.3948  1.6210
17536TIP3   OH274098   3.470   0.224  11.602 -0.5829  0.9949 -0.2695
17536TIP3    H174099   3.414   0.150  11.624 -3.2176  2.7102 -0.6468
17536TIP3    H274100   3.559   0.194  11.620 -1.3743 -2.6247 -1.5634
17537TIP3   OH274101   0.778   6.024   1.140 -0.2559 -0.4301 -0.0678
17537TIP3    H174102   0.748   5.947   1.189 -0.8666 -0.0639  0.1376
17537TIP3    H274103   0.777   6.095   1.205  0.1444 -0.2099 -0.2981
17538TIP3   OH274104   0.880   0.003  13.246  0.5279  0.1150  0.1721
17538TIP3    H174105   0.858  -0.087  13.222 -1.6881  0.3795  0.9617
17538TIP3    H274106   0.863   0.007  13.340  0.1631  1.4784  0.0612
17539TIP3   OH274107   2.067   0.591  12.447 -0.1991  0.3814  0.0443
17539TIP3    H174108   2.067   0.504  12.487  0.6861 -0.0183 -0.7888
17539TIP3    H274109   2.092   0.650  12.519 -2.5203  0.2272  1.0778
17540TIP3   OH274110   4.344   5.209  16.180 -0.7596 -0.2342 -0.4506
17540TIP3    H174111   4.255   5.227  16.212 -1.3992 -2.0554 -1.0372
17540TIP3    H274112   4.333   5.133  16.123  1.2532 -0.7531 -0.2056
17541TIP3   OH274113   0.641   5.972  14.059 -0.4128 -0.5858  0.1329
17541TIP3    H174114   0.661   5.954  13.967 -1.6706  1.2750 -0.5782
17541TIP3    H274115   0.712   6.030  14.087  0.5253 -1.9594  0.6786
17542TIP3   OH274116   6.144   4.529  16.113 -0.7046  0.1006  0.6542
17542TIP3    H174117   6.120   4.471  16.186  1.1975 -1.3031  0.2106
17542TIP3    H274118   6.110   4.485  16.035 -0.8048  0.4914  0.4747
17543TIP3   OH274119   3.830   4.364   1.395  0.1126 -0.0290 -0.3547
17543TIP3    H174120   3.873   4.290   1.351  0.8338 -0.9051  1.6906
17543TIP3    H274121   3.796   4.326   1.476  1.1418  2.0056  1.1216
17544TIP3   OH274122   6.171   2.739  16.429 -0.1279 -0.1924 -0.6789
17544TIP3    H174123   6.187   2.822  16.474 -0.9667 -0.5777  0.3674
17544TIP3    H274124   6.236   2.737  16.359 -0.0950  1.3518 -0.7353
17545TIP3   OH274125   2.244   6.352  14.557  0.0385  0.2628  0.2684
17545TIP3    H174126   2.161   6.362  14.602  0.0581 -0.1423  0.4028
17545TIP3    H274127   2.259   6.257  14.556  0.6359  0.3477  0.5075
17546TIP3   OH274128   0.728   4.794  11.388  0.0670 -0.0339  0.5555
17546TIP3    H174129   0.717   4.727  11.320  1.2077 -0.9114  1.1986
17546TIP3    H274130   0.658   4.857  11.370 -1.2849 -1.5671  0.1382
17547TIP3   OH274131   1.858   0.556   5.539  0.1011 -0.3785 -0.1092
17547TIP3    H174132   1.884   0.646   5.522 -1.1234  0.0955  0.3572
17547TIP3    H274133   1.816   0.560   5.626  1.7988 -1.7686  0.8233
17548TIP3   OH274134   6.528   3.448  13.430 -0.6078  0.6224  0.1789
17548TIP3    H174135   6.560   3.368  13.472 -1.1174 -0.5229 -1.5043
17548TIP3    H274136   6.478   3.417  13.354  1.4115  2.5607 -2.1031
17549TIP3   OH274137   3.619   4.140   1.177  0.6038  0.3914  0.5759
17549TIP3    H174138   3.684   4.075   1.154  0.3767  0.6178 -0.7943
17549TIP3    H274139   3.593   4.118   1.267  1.0707 -0.9304  0.4003
17550TIP3   OH274140   5.825   1.173  14.505  0.2039  0.5331  0.4187
17550TIP3    H174141   5.863   1.182  14.417 -1.5298  1.0834 -0.3227
17550TIP3    H274142   5.813   1.263  14.535 -1.2415  0.4187  0.2684
17551TIP3   OH274143   0.174   0.361  10.896 -1.1273 -1.0739  0.4127
17551TIP3    H174144   0.249   0.322  10.852 -0.4399  1.0088 -0.3781
17551TIP3    H274145   0.124   0.404  10.826 -2.0235 -0.8351  1.1777
17552TIP3   OH274146   3.132   3.147   0.828  0.0459  0.0221  0.1590
17552TIP3    H174147   3.057   3.091   0.849  0.8787 -1.1454  0.0788
17552TIP3    H274148   3.185   3.096   0.767  1.0988  0.6777  0.4950
17553TIP3   OH274149   2.168   6.095   2.261 -0.0048 -0.1769  0.0890
17553TIP3    H174150   2.093   6.099   2.202 -0.5476 -0.8481  0.7100
17553TIP3    H274151   2.151   6.018   2.315  1.8985 -1.2520 -0.7655
17554TIP3   OH274152   2.912   4.373  14.966  0.1473  0.0224  0.3070
17554TIP3    H174153   2.993   4.405  14.925 -0.7808  3.9319  1.1073
17554TIP3    H274154   2.927   4.382  15.060 -1.0316  0.2747  0.4882
17555TIP3   OH274155   3.251   4.803   4.839  0.7804  0.5895 -0.5369
17555TIP3    H174156   3.224   4.847   4.758  4.1237  0.3658 -1.9554
17555TIP3    H274157   3.227   4.712   4.827 -0.0155  0.8053 -0.6263
17556TIP3   OH274158   3.120   4.675  16.745  0.0511 -0.4384 -0.3534
17556TIP3    H174159   3.059   4.621  16.695  0.9077 -3.3738  1.4669
17556TIP3    H274160   3.207   4.649  16.714  0.5655 -1.8048  1.9454
17557TIP3   OH274161   5.942   3.044   2.121  0.1371 -0.2901  0.5242
17557TIP3    H174162   5.979   3.028   2.208  1.3971 -1.6303 -0.2064
17557TIP3    H274163   5.860   2.995   2.121 -0.1433  0.1682  1.1384
17558TIP3   OH274164   1.858   0.030   3.795  0.0017  0.2967 -0.8072
17558TIP3    H174165   1.910   0.101   3.833  0.0722 -0.0510 -0.2472
17558TIP3    H274166   1.923  -0.027   3.753  0.3137 -1.0584  1.3480
17559TIP3   OH274167   0.681   4.331  13.752 -0.2042 -0.2099  0.0466
17559TIP3    H174168   0.732   4.410  13.768 -1.8633  1.0906 -0.8361
17559TIP3    H274169   0.707   4.303  13.665 -1.0407  0.5190 -0.4504
17560TIP3   OH274170   3.209   1.875   2.310  0.4207 -0.4814 -0.3338
17560TIP3    H174171   3.238   1.889   2.400 -0.2213 -1.7783  0.1000
17560TIP3    H274172   3.267   1.807   2.276  0.7161  0.0613 -0.9491
17561TIP3   OH274173   3.798   2.541   4.361 -0.5428 -0.3105  0.0843
17561TIP3    H174174   3.714   2.518   4.322 -1.2078 -0.9519  1.8190
17561TIP3    H274175   3.856   2.468   4.338 -1.4559 -1.6559  1.8470
17562TIP3   OH274176   6.472   0.023   2.607 -0.1404 -0.1946  0.4993
17562TIP3    H174177   6.539  -0.030   2.650  0.1950  0.7329  1.1601
17562TIP3    H274178   6.390  -0.004   2.648  0.0460 -0.0979  0.9452
17563TIP3   OH274179   3.323   0.835  11.836 -0.0297 -0.0324 -0.3585
17563TIP3    H174180   3.278   0.766  11.787 -0.1259 -0.0002 -0.3162
17563TIP3    H274181   3.253   0.886  11.875  0.0513 -0.1665 -0.0374
17564TIP3   OH274182   0.081   1.875  15.316 -0.2404  0.0712 -0.1855
17564TIP3    H174183   0.030   1.817  15.372  0.1059 -0.7374 -0.6989
17564TIP3    H274184   0.114   1.942  15.376 -2.1373  0.8082  0.1212
17565TIP3   OH274185   5.254   3.266   6.286  0.3346  0.0868  0.0437
17565TIP3    H174186   5.226   3.219   6.364  1.2646 -0.5667  0.0003
17565TIP3    H274187   5.333   3.312   6.313  0.4944  0.0957 -0.4300
17566TIP3   OH274188   6.036   4.415   4.217  0.2136 -0.1204 -0.1490
17566TIP3    H174189   6.076   4.478   4.157  0.6471  1.2186  1.4784
17566TIP3    H274190   5.992   4.469   4.283 -0.4400 -1.5462  0.6312
17567TIP3   OH274191   4.095   6.423  12.582  0.6465 -0.5092  0.1420
17567TIP3    H174192   4.048   6.348  12.545 -1.3514  1.4653 -1.6122
17567TIP3    H274193   4.176   6.428  12.531  1.3501 -2.0683  1.0388
17568TIP3   OH274194   1.112   4.751   3.974 -0.4275  0.2523 -0.0065
17568TIP3    H174195   1.070   4.701   3.904  0.9227  1.3279 -1.6646
17568TIP3    H274196   1.195   4.779   3.937  0.2502  1.0661  1.9773
17569TIP3   OH274197   1.049   5.481  12.344  0.0631  0.2483  0.1645
17569TIP3    H174198   0.966   5.525  12.324 -1.3102 -2.3719 -0.3671
17569TIP3    H274199   1.038   5.449  12.433 -0.7097 -2.3805 -0.7644
17570TIP3   OH274200   1.905   1.453   3.175 -0.7398 -0.1373 -0.1606
17570TIP3    H174201   1.996   1.483   3.178 -0.6849 -0.3674  1.0882
17570TIP3    H274202   1.901   1.383   3.240 -1.6451 -0.6334 -0.7303
17571TIP3   OH274203   6.659   1.865  10.904 -0.3321  0.0828  0.2584
17571TIP3    H174204   6.566   1.875  10.887  0.1601  1.7958 -1.8052
17571TIP3    H274205   6.688   1.798  10.843 -0.3556 -1.3357  1.7223
17572TIP3   OH274206   6.200   4.930  13.447  0.9869 -0.3838  0.4920
17572TIP3    H174207   6.110   4.904  13.426  0.7029  0.5474  0.5437
17572TIP3    H274208   6.220   5.000  13.385  0.8362  1.0279  1.9894
17573TIP3   OH274209   1.116   5.103   4.454  0.4042  0.6856  0.6005
17573TIP3    H174210   1.054   5.157   4.501  0.7788  1.0023  0.7383
17573TIP3    H274211   1.132   5.028   4.511 -1.4861 -0.5168 -0.3615
17574TIP3   OH274212   4.272   6.609   6.220 -0.2440  0.1666  0.0440
17574TIP3    H174213   4.185   6.609   6.181 -0.4115  0.8283  0.4013
17574TIP3    H274214   4.277   6.528   6.270  0.5265 -1.4837 -2.5236
17575TIP3   OH274215   1.180   2.838  11.485  0.6538 -0.3251 -0.6502
17575TIP3    H174216   1.177   2.843  11.389 -0.0477 -1.7552 -0.7274
17575TIP3    H274217   1.270   2.859  11.508  1.8133 -3.3979 -1.8897
17576TIP3   OH274218   1.329   3.468  17.084  0.0723 -0.1208  0.2469
17576TIP3    H174219   1.238   3.480  17.111  0.0736 -2.8506  1.8069
17576TIP3    H274220   1.325   3.401  17.016  0.9641 -0.7432  0.7914
17577TIP3   OH274221   3.697   5.451  13.487  0.5773 -0.5143  0.0756
17577TIP3    H174222   3.693   5.359  13.460 -0.0603 -0.3308 -0.4731
17577TIP3    H274223   3.781   5.459  13.532  1.0832 -1.1329 -0.7323
17578TIP3   OH274224   6.761   4.291  16.510 -0.2627  0.0360 -0.1761
17578TIP3    H174225   6.722   4.347  16.577 -1.8600 -1.2457  0.0362
17578TIP3    H274226   6.854   4.311  16.514 -0.2782 -0.0073  2.5059
17579TIP3   OH274227   3.891   5.385  11.377  0.0375 -0.1955  0.2339
17579TIP3    H174228   3.863   5.328  11.306  2.3661 -0.7374 -0.3030
17579TIP3    H274229   3.853   5.345  11.456 -0.7815 -0.8029 -0.4495
17580TIP3   OH274230   5.600   5.434  13.685  0.4819  0.4810 -0.1577
17580TIP3    H174231   5.533   5.501  13.669  1.0502  1.4334  1.2324
17580TIP3    H274232   5.680   5.471  13.646  0.5791  0.1411 -0.2808
17581TIP3   OH274233   3.202   4.794   0.366  0.6408  0.0199  0.0341
17581TIP3    H174234   3.156   4.760   0.289  3.4558 -1.0563 -1.3060
17581TIP3    H274235   3.170   4.740   0.438 -0.6457 -0.2441 -0.7002
17582TIP3   OH274236   4.943   4.998   2.183  0.2487  0.4711 -0.3212
17582TIP3    H174237   4.915   5.073   2.235  1.3243  0.4013  0.3999
17582TIP3    H274238   5.018   5.030   2.133  0.9563 -0.2057  0.2736
17583TIP3   OH274239   6.651   0.523   4.326 -0.4107 -0.8686  0.2450
17583TIP3    H174240   6.557   0.517   4.308 -0.3117 -1.8526 -0.0164
17583TIP3    H274241   6.671   0.444   4.376  0.5854 -1.5509 -1.1584
17584TIP3   OH274242   2.495   3.309   2.104 -0.1873 -0.3542 -0.1336
17584TIP3    H174243   2.517   3.395   2.068 -0.7668 -0.8838 -1.8519
17584TIP3    H274244   2.572   3.284   2.156 -0.6853  1.9167  1.8779
17585TIP3   OH274245   4.934   5.446  16.673 -0.3941  0.3738  0.1302
17585TIP3    H174246   4.952   5.537  16.652  1.1858  0.0073 -0.1932
17585TIP3    H274247   5.008   5.418  16.727 -1.6784 -0.2677  1.6614
17586TIP3   OH274248   3.058   6.554  14.112 -0.1057 -0.4951 -0.1599
17586TIP3    H174249   3.126   6.553  14.044  0.0965  0.8693  0.0108
17586TIP3    H274250   3.054   6.645  14.141 -2.4150 -0.3962 -0.5821
17587TIP3   OH274251   6.642   3.533  15.347 -0.2819 -0.1823  0.4233
17587TIP3    H174252   6.679   3.511  15.432 -0.3436 -0.6453  0.3374
17587TIP3    H274253   6.631   3.448  15.303  1.4335  0.1547 -0.7516
17588TIP3   OH274254   4.802   5.819  13.540 -0.1457 -0.0367  0.0963
17588TIP3    H174255   4.770   5.905  13.511 -2.9140 -1.3287 -1.0962
17588TIP3    H274256   4.804   5.825  13.635  0.3136  1.5364  0.0103
17589TIP3   OH274257   4.529   3.862  14.713 -0.0350  0.3350 -0.1894
17589TIP3    H174258   4.487   3.787  14.755 -2.2395  2.4916  1.7992
17589TIP3    H274259   4.615   3.868  14.756  0.1380 -0.9958 -0.3308
17590TIP3   OH274260   0.375   6.155  13.637 -0.1987  0.5611  0.2693
17590TIP3    H174261   0.396   6.092  13.707 -1.1393  2.2918  2.2187
17590TIP3    H274262   0.390   6.106  13.556 -0.9607 -2.1946  1.6641
17591TIP3   OH274263   1.149   3.568   1.541  0.0535 -0.1755  0.5183
17591TIP3    H174264   1.162   3.584   1.635  1.7965 -0.5987  0.3941
17591TIP3    H274265   1.208   3.630   1.498  0.0165 -0.6766 -0.2642
17592TIP3   OH274266   2.883   1.580  13.026 -0.1160  0.0209 -0.3514
17592TIP3    H174267   2.888   1.572  13.122  0.1871 -1.9268 -0.4923
17592TIP3    H274268   2.971   1.607  13.000 -0.2496  0.7518 -0.0923
17593TIP3   OH274269   1.664   2.553   1.439  0.0669  0.4967 -0.2805
17593TIP3    H174270   1.707   2.616   1.381 -1.1849  0.3154 -1.4475
17593TIP3    H274271   1.624   2.490   1.380 -4.4073  2.2907  0.4632
17594TIP3   OH274272   5.565   4.445  12.544 -0.2393 -0.5135  0.0954
17594TIP3    H174273   5.593   4.520  12.596 -1.2628 -0.2718  0.3140
17594TIP3    H274274   5.570   4.475  12.454 -0.3121 -0.3015  0.1627
17595TIP3   OH274275   2.606   6.793   6.110 -0.1809  0.7133  0.8806
17595TIP3    H174276   2.669   6.860   6.135  1.6116 -0.3637 -0.4556
17595TIP3    H274277   2.592   6.742   6.189  3.2011 -0.9540  0.5919
17596TIP3   OH274278   2.277   3.732  16.361  0.2039 -0.2847  0.1047
17596TIP3    H174279   2.200   3.682  16.335 -0.1733  0.4356 -0.2103
17596TIP3    H274280   2.249   3.779  16.440 -0.1195  0.9701 -0.7240
17597TIP3   OH274281   2.850   5.700  13.767  0.0298  0.3320 -0.1735
17597TIP3    H174282   2.944   5.719  13.766  0.3625 -1.1665  0.0981
17597TIP3    H274283   2.811   5.770  13.713  1.2895  0.9585 -0.3181
17598TIP3   OH274284   3.895   3.249   0.011  0.1002 -0.1095 -1.1144
17598TIP3    H174285   3.857   3.331   0.043  0.3658 -0.5151  0.2953
17598TIP3    H274286   3.863   3.241  -0.079 -1.4517  0.5906 -0.6467
17599TIP3   OH274287   3.726   6.346  12.161  0.4626  0.0046  0.2110
17599TIP3    H174288   3.796   6.402  12.195  0.9585  0.3881 -1.3996
17599TIP3    H274289   3.748   6.259  12.194 -0.4861  0.7017  3.0069
17600TIP3   OH274290   2.778   4.212   3.566  0.6591 -0.3464  0.1791
17600TIP3    H174291   2.718   4.277   3.530  1.3955 -0.2375 -0.9072
17600TIP3    H274292   2.857   4.261   3.589  0.5420 -0.5696  1.1027
17601TIP3   OH274293   0.769   5.021   1.879  0.0021  0.2032 -0.8271
17601TIP3    H174294   0.749   4.955   1.813 -1.4815  0.2724 -0.4777
17601TIP3    H274295   0.691   5.077   1.883  0.5005  0.8713  0.1783
17602TIP3   OH274296   3.711   3.472   3.498 -0.2170  0.1058  0.8463
17602TIP3    H174297   3.744   3.495   3.412 -0.6858 -0.1990  0.5817
17602TIP3    H274298   3.631   3.524   3.508 -0.4308 -0.2250  0.8919
17603TIP3   OH274299   4.500   6.358  16.775  0.2331  0.7857  0.2456
17603TIP3    H174300   4.459   6.426  16.829  2.2077  1.3024  1.1654
17603TIP3    H274301   4.538   6.297  16.838 -0.4437 -0.5519 -0.5885
17604TIP3   OH274302   4.158   3.478  16.996 -0.2108 -0.0081 -0.1497
17604TIP3    H174303   4.209   3.517  16.925  0.1196 -0.2700 -0.0572
17604TIP3    H274304   4.222   3.460  17.064 -0.5469  0.3518  0.2654
17605TIP3   OH274305   6.801   0.695  12.396 -0.1405 -0.2914 -0.1798
17605TIP3    H174306   6.855   0.765  12.359  1.0084 -1.4643 -0.8013
17605TIP3    H274307   6.847   0.669  12.476 -0.2383 -0.7386 -0.2682
17606TIP3   OH274308   5.492   4.203   2.496 -0.1394 -0.2005 -0.1362
17606TIP3    H174309   5.537   4.260   2.434  0.1069  0.1483  0.3513
17606TIP3    H274310   5.524   4.115   2.476 -0.1945 -0.1109 -0.6124
17607TIP3   OH274311   6.481   1.954   2.796 -0.1564  0.4753 -0.2283
17607TIP3    H174312   6.473   1.897   2.873  0.1639 -0.1783 -0.6770
17607TIP3    H274313   6.421   1.917   2.732 -0.8254  1.3317 -0.1212
17608TIP3   OH274314   4.988   0.033   3.792  0.1713 -0.1583 -0.8442
17608TIP3    H174315   5.011  -0.035   3.728 -0.1063 -0.8286 -0.2494
17608TIP3    H274316   4.912  -0.002   3.838  0.3778  0.3021 -0.1323
17609TIP3   OH274317   2.786   3.558  16.861  0.0657 -0.1698 -0.2695
17609TIP3    H174318   2.731   3.487  16.894 -0.0477 -0.3347 -0.7901
17609TIP3    H274319   2.725   3.618  16.817  0.0395  0.7563  0.9968
17610TIP3   OH274320   4.037   3.265   5.266  0.0026  0.0285  0.2048
17610TIP3    H174321   3.945   3.280   5.291  0.1038  0.3955  0.3527
17610TIP3    H274322   4.085   3.335   5.309  0.6648 -1.4703  2.0394
17611TIP3   OH274323   4.087   3.125   0.983  0.1166 -0.3250 -0.3431
17611TIP3    H174324   4.066   3.081   0.900 -2.1357  0.3491 -0.1956
17611TIP3    H274325   4.040   3.076   1.049 -1.3181  1.3947  0.0015
17612TIP3   OH274326   0.317   1.247   1.201  0.6206 -0.7585  0.2677
17612TIP3    H174327   0.315   1.296   1.283  1.6438 -0.7987  0.3228
17612TIP3    H274328   0.303   1.156   1.227 -0.3313 -0.6316  0.2560
17613TIP3   OH274329   1.370   1.353  12.633 -0.0211 -0.7032 -0.5264
17613TIP3    H174330   1.438   1.417  12.651  0.2017 -1.0893  0.0401
17613TIP3    H274331   1.318   1.392  12.563  1.0000 -0.5543 -1.2381
17614TIP3   OH274332   3.721   4.696   0.812  0.1338  0.0520 -0.2005
17614TIP3    H174333   3.685   4.607   0.819  0.1115  0.0785  0.0514
17614TIP3    H274334   3.799   4.686   0.758 -0.1805 -0.0262 -0.6399
17615TIP3   OH274335   4.617   1.650  16.403  0.5005  0.3482  0.2347
17615TIP3    H174336   4.600   1.566  16.445  0.2013  0.9651  1.3597
17615TIP3    H274337   4.532   1.694  16.401  0.4064  0.1913 -1.3993
17616TIP3   OH274338   3.852   3.538  16.343 -0.0470  0.4746  0.3200
17616TIP3    H174339   3.939   3.498  16.349 -0.4031 -0.1437  2.1761
17616TIP3    H274340   3.792   3.464  16.348 -0.6851  1.0009  0.4740
17617TIP3   OH274341   3.838   0.772   2.151  0.3941  0.3329  0.1951
17617TIP3    H174342   3.764   0.832   2.137  0.9957  0.9753 -0.2869
17617TIP3    H274343   3.875   0.759   2.064  0.7218 -0.1639  0.4050
17618TIP3   OH274344   3.549   4.978   4.519  0.5495  0.3728  0.2169
17618TIP3    H174345   3.558   5.074   4.513 -1.4508  0.6196  0.2223
17618TIP3    H274346   3.629   4.944   4.480  0.9391  2.0619 -0.5739
17619TIP3   OH274347   5.752   1.781  12.428 -0.1261 -0.3789  0.2427
17619TIP3    H174348   5.834   1.762  12.475  0.4067  3.0871  0.9410
17619TIP3    H274349   5.688   1.721  12.467  1.5489 -1.5261  1.3639
17620TIP3   OH274350   1.370   3.761   4.581  0.0570  0.4493 -0.4805
17620TIP3    H174351   1.366   3.738   4.674  0.4911 -0.2524 -0.6287
17620TIP3    H274352   1.295   3.819   4.568 -0.3966  0.0292  0.1659
17621TIP3   OH274353   1.728   4.117   0.650 -0.3651 -0.1378 -0.0746
17621TIP3    H174354   1.657   4.168   0.690  0.2344  0.6844 -0.0310
17621TIP3    H274355   1.798   4.118   0.716 -0.2177 -0.7405 -0.2129
17622TIP3   OH274356   1.059   3.960   3.246  0.5699  0.2147 -0.7812
17622TIP3    H174357   1.001   3.966   3.323 -0.4252  0.8486 -1.5485
17622TIP3    H274358   1.145   3.938   3.282 -0.1159 -0.6394  0.4080
17623TIP3   OH274359   2.229   6.770   1.300 -0.0026  0.0128  0.1133
17623TIP3    H174360   2.150   6.718   1.314  0.6427 -0.3008  3.2106
17623TIP3    H274361   2.204   6.859   1.322  0.0047  0.2845 -0.9392
17624TIP3   OH274362   3.048   3.875  16.308  0.0602  0.2446 -0.3135
17624TIP3    H174363   3.029   3.840  16.220 -2.9054  1.0391 -0.0990
17624TIP3    H274364   2.981   3.835  16.364  1.7431 -0.0558  1.6026
17625TIP3   OH274365   5.035   4.904   3.486  0.2211  0.0434  0.3575
17625TIP3    H174366   5.119   4.928   3.448  0.4419 -0.9029  0.2354
17625TIP3    H274367   5.057   4.846   3.559 -0.3045  0.2162  0.6593
17626TIP3   OH274368   5.821   6.527   3.328 -0.2075  0.3515  0.0604
17626TIP3    H174369   5.828   6.570   3.414  0.1419  0.5559 -0.0656
17626TIP3    H274370   5.893   6.464   3.328  0.1806  0.7881 -0.3236
17627TIP3   OH274371   2.945   3.580   3.854  0.6540  0.0845 -0.1430
17627TIP3    H174372   2.893   3.590   3.775  1.4348  1.1561 -0.5571
17627TIP3    H274373   2.928   3.491   3.884 -2.8205  0.9078  0.7708
17628TIP3   OH274374   0.709   3.895   3.937 -0.3557 -0.0523 -0.4242
17628TIP3    H174375   0.633   3.838   3.944 -0.0348 -0.4531 -0.1835
17628TIP3    H274376   0.679   3.967   3.882 -0.9310 -0.1689 -0.2756
17629TIP3   OH274377   5.875   5.323   3.274 -1.1834 -0.5955  0.1950
17629TIP3    H174378   5.887   5.406   3.230  0.6395 -0.5649  0.6795
17629TIP3    H274379   5.850   5.346   3.364  0.8560 -0.4707  0.7828
17630TIP3   OH274380   3.282   2.657  16.967  0.4688 -0.6045 -0.2751
17630TIP3    H174381   3.314   2.741  16.935 -0.4146 -0.2084 -0.1349
17630TIP3    H274382   3.200   2.677  17.012  1.6003 -1.1033  2.2275
17631TIP3   OH274383   1.158   1.277   2.547  0.1967 -0.2286 -0.3638
17631TIP3    H174384   1.085   1.313   2.495  0.3861 -1.1386 -1.2850
17631TIP3    H274385   1.115   1.219   2.610 -0.0352  0.8907  0.5544
17632TIP3   OH274386   5.453   3.079   3.421 -0.2357 -0.0710  0.3083
17632TIP3    H174387   5.476   3.116   3.507  0.5208  0.9258 -0.2931
17632TIP3    H274388   5.530   3.096   3.367 -1.1339  0.3614 -0.8806
17633TIP3   OH274389   0.408   4.227   2.908 -0.3471  0.3084  0.0689
17633TIP3    H174390   0.343   4.218   2.977  0.3309 -2.7621  0.4219
17633TIP3    H274391   0.432   4.137   2.884  2.0962  1.2860 -1.6419
17634TIP3   OH274392   2.375   0.247   2.723  0.2973 -0.1952  0.4700
17634TIP3    H174393   2.336   0.233   2.636 -2.1926 -0.9953  1.6300
17634TIP3    H274394   2.345   0.172   2.774  2.2718 -0.0845  1.8895
17635TIP3   OH274395   4.271   0.002   1.316 -0.3946 -0.1446 -0.5377
17635TIP3    H174396   4.318   0.020   1.398 -1.0555 -1.6427  0.2193
17635TIP3    H274397   4.257   0.088   1.277 -0.2680  0.6477  1.0591
17636TIP3   OH274398   3.556   1.423   3.252  0.0850 -0.3124  0.4738
17636TIP3    H174399   3.622   1.422   3.183 -0.1112  0.5927  0.2498
17636TIP3    H274400   3.472   1.427   3.206 -0.0360  0.6267  0.7476
17637TIP3   OH274401   0.922   3.485   6.001  0.3002  0.7332  0.3851
17637TIP3    H174402   0.980   3.553   5.967 -0.5179  1.0772 -0.3671
17637TIP3    H274403   0.974   3.405   5.999  0.0173  0.5153 -2.6607
17638TIP3   OH274404   0.330   2.407   0.866 -0.0567  0.4832 -0.2665
17638TIP3    H174405   0.288   2.488   0.838 -2.3701 -0.4913  0.1420
17638TIP3    H274406   0.312   2.345   0.794  0.1819 -0.1188  0.1839
17639TIP3   OH274407   6.582   5.144  12.870  0.1252  0.7243  0.0039
17639TIP3    H174408   6.566   5.187  12.786 -0.6759 -0.9713 -0.7661
17639TIP3    H274409   6.539   5.200  12.934 -0.7171  1.2038 -0.9400
17640TIP3   OH274410   5.371   1.430   2.625 -0.4325  0.5669 -0.2352
17640TIP3    H174411   5.386   1.337   2.609 -2.7156 -0.1949  1.4446
17640TIP3    H274412   5.306   1.456   2.559  1.8123  1.6515 -2.1571
17641TIP3   OH274413   3.448   0.013   4.912  0.3517 -0.0530  0.2028
17641TIP3    H174414   3.364  -0.018   4.945  1.2883 -2.4104  0.5596
17641TIP3    H274415   3.468  -0.047   4.840  0.9641  1.5378 -1.0049
17642TIP3   OH274416   3.439   0.242  13.554  0.3459 -0.2202  0.2143
17642TIP3    H174417   3.466   0.150  13.551  1.2242  0.0514 -1.0683
17642TIP3    H274418   3.349   0.241  13.520  1.4016 -0.3111 -2.8721
17643TIP3   OH274419   2.411   2.673  13.473 -0.8084 -0.7174 -0.2026
17643TIP3    H174420   2.350   2.698  13.404  0.2811  0.6468 -0.7215
17643TIP3    H274421   2.355   2.652  13.548 -1.9372  0.0371 -0.7960
17644TIP3   OH274422   5.298   6.468  13.697 -0.2273 -0.0954  0.1137
17644TIP3    H174423   5.355   6.421  13.637  0.8600 -0.8399  1.6559
17644TIP3    H274424   5.213   6.424  13.691  0.3063 -1.1656  0.2573
17645TIP3   OH274425   2.769   2.770   4.886 -0.0414 -0.1274  0.2424
17645TIP3    H174426   2.739   2.852   4.848 -0.7782  0.5605  2.1895
17645TIP3    H274427   2.691   2.715   4.891 -0.1313  0.0618  1.3311
17646TIP3   OH274428   1.816   6.649   6.163  0.2481  0.6097  0.4004
17646TIP3    H174429   1.744   6.691   6.211  1.5928  0.7761  2.4118
17646TIP3    H274430   1.848   6.582   6.223  0.4251 -0.9255 -1.3267
17647TIP3   OH274431   5.601   2.361   0.883  0.3693  0.2703  0.4226
17647TIP3    H174432   5.646   2.357   0.798  2.6355  1.7500  1.4575
17647TIP3    H274433   5.666   2.396   0.943 -1.7282  0.9798  2.4288
17648TIP3   OH274434   1.582   0.159   5.481  0.1639 -0.2685 -0.1766
17648TIP3    H174435   1.661   0.125   5.438 -0.4239 -1.4014 -0.3833
17648TIP3    H274436   1.527   0.189   5.409  0.8917  1.7098  0.0172
17649TIP3   OH274437   6.273   3.454  12.750  0.3078  0.9692 -0.5523
17649TIP3    H174438   6.191   3.421  12.713  0.1648 -0.6105  1.0037
17649TIP3    H274439   6.329   3.469  12.674 -1.7237  3.1752 -1.7530
17650TIP3   OH274440   2.164   2.597   5.161  0.0537 -0.2558  0.5398
17650TIP3    H174441   2.087   2.639   5.200 -0.1731 -0.7909  0.6810
17650TIP3    H274442   2.234   2.662   5.169 -0.5578  0.5361 -0.2563
17651TIP3   OH274443   2.922   4.779   4.657  0.3677  0.2110  0.1029
17651TIP3    H174444   2.969   4.861   4.645  1.0503  0.0251  1.3369
17651TIP3    H274445   2.957   4.722   4.588 -0.9673  1.2719 -1.5252
17652TIP3   OH274446   0.023   5.932   0.077 -0.6587  0.4736  0.0737
17652TIP3    H174447   0.083   5.941   0.151 -0.7515  0.7939  0.1117
17652TIP3    H274448  -0.064   5.945   0.115 -0.9517 -2.0064  0.4108
17653TIP3   OH274449   3.868   5.578  14.985  0.5607 -0.3242 -0.0391
17653TIP3    H174450   3.879   5.538  14.898 -0.0190  0.0596 -0.2975
17653TIP3    H274451   3.833   5.665  14.967  2.4413  0.5901  0.4878
17654TIP3   OH274452   2.428   0.152  17.054  0.0221 -0.7782  0.3416
17654TIP3    H174453   2.455   0.070  17.011  2.4082 -0.6759  1.4767
17654TIP3    H274454   2.380   0.200  16.987  1.2589 -1.7932 -1.3373
17655TIP3   OH274455   2.293   6.288   1.745 -0.3093  0.3174  0.5048
17655TIP3    H174456   2.247   6.206   1.728 -0.3918 -0.0206  2.2047
17655TIP3    H274457   2.364   6.289   1.682  0.4822 -1.7197  1.2835
17656TIP3   OH274458   5.206   1.349  16.867  0.5517 -0.2440  0.2157
17656TIP3    H174459   5.165   1.267  16.841 -0.4217  0.2555  0.1346
17656TIP3    H274460   5.223   1.394  16.784 -0.9016  0.5661  0.3354
17657TIP3   OH274461   3.806   5.834   4.202 -0.9163  0.2359 -0.0578
17657TIP3    H174462   3.892   5.852   4.163 -0.8358 -1.4433 -0.7371
17657TIP3    H274463   3.809   5.879   4.287  0.6398  0.1962 -0.0569
17658TIP3   OH274464   1.653   3.021   5.639 -0.1322 -0.7843  0.1106
17658TIP3    H174465   1.560   3.016   5.618  0.0790  0.6566 -1.3405
17658TIP3    H274466   1.674   2.937   5.679 -2.1166 -1.0145  0.7340
17659TIP3   OH274467   3.322   2.080  16.290 -0.6495  0.5625 -0.0527
17659TIP3    H174468   3.241   2.048  16.250 -1.7684  1.4503  1.3933
17659TIP3    H274469   3.335   2.167  16.252  0.1580  0.0583 -0.9691
17660TIP3   OH274470   4.995   6.412   5.926  0.0556  0.6745 -0.0092
17660TIP3    H174471   4.996   6.409   6.022  0.1609  0.4659 -0.0169
17660TIP3    H274472   5.070   6.466   5.903  0.2545  0.4152  0.0165
17661TIP3   OH274473   3.955   1.444   2.078 -0.2667 -0.1878  0.1699
17661TIP3    H174474   3.867   1.470   2.049 -0.4108 -1.8552 -1.0038
17661TIP3    H274475   3.939   1.391   2.156 -0.2768 -0.1131  0.2183
17662TIP3   OH274476   5.528   4.724   1.085  0.0456  0.6176 -0.1221
17662TIP3    H174477   5.453   4.696   1.033  0.4117  0.0436 -0.3505
17662TIP3    H274478   5.604   4.697   1.034  0.4269  2.1961 -0.4458
17663TIP3   OH274479   5.618   1.106  11.665 -0.3958 -0.5039  0.2858
17663TIP3    H174480   5.695   1.096  11.721 -0.2566  1.2524  0.4663
17663TIP3    H274481   5.619   1.198  11.639 -2.8341 -0.2484  0.8647
17664TIP3   OH274482   3.871   5.067  16.799  0.0078 -0.3248 -0.3367
17664TIP3    H174483   3.806   5.046  16.732 -1.7174  0.6407  0.9787
17664TIP3    H274484   3.902   4.981  16.829  0.3752 -0.7807 -1.8949
17665TIP3   OH274485   3.879   0.720  13.677  0.5236 -0.4583  0.0690
17665TIP3    H174486   3.870   0.630  13.645  0.5145 -0.0944 -0.9875
17665TIP3    H274487   3.972   0.741  13.664  0.2484  0.1524 -0.9956
17666TIP3   OH274488   1.387   5.699  11.219  0.4489 -0.3639  0.5156
17666TIP3    H174489   1.424   5.747  11.145 -1.2316  0.0420 -0.1215
17666TIP3    H274490   1.454   5.705  11.288  0.2475  3.2920  0.6323
17667TIP3   OH274491   1.252   3.835  17.042 -0.0352 -0.7528 -0.0042
17667TIP3    H174492   1.222   3.765  16.984 -0.3433 -0.4030 -0.2649
17667TIP3    H274493   1.226   3.806  17.129  1.2044 -1.7053  0.0884
17668TIP3   OH274494   0.066   2.966   4.959  0.0007  0.5514 -0.0954
17668TIP3    H174495   0.000   2.957   4.890 -0.1809 -0.6504  0.1981
17668TIP3    H274496   0.146   2.930   4.920 -0.2352 -0.6525  0.4606
17669TIP3   OH274497   1.582   5.904  14.657  0.4834  0.3042 -0.0980
17669TIP3    H174498   1.572   5.983  14.603 -0.7813  0.9126  0.9493
17669TIP3    H274499   1.518   5.916  14.728  0.1396 -1.7472 -0.0062
17670TIP3   OH274500   4.092   5.774  11.085  0.4456  0.2676 -0.1906
17670TIP3    H174501   4.161   5.721  11.046  0.7180  0.8240 -0.4806
17670TIP3    H274502   4.035   5.798  11.012  0.1353  0.0973 -0.0082
17671TIP3   OH274503   1.934   2.671   0.233 -0.3331 -0.0445 -0.8761
17671TIP3    H174504   1.989   2.623   0.172 -1.2402 -0.7557 -1.1442
17671TIP3    H274505   1.916   2.609   0.304  0.0876  0.5298 -0.2552
17672TIP3   OH274506   5.710   3.846   0.839  0.1674  0.1585  0.5010
17672TIP3    H174507   5.652   3.865   0.912 -1.8642  2.3293 -1.5120
17672TIP3    H274508   5.788   3.899   0.855 -1.0720  2.1383  0.2170
17673TIP3   OH274509   6.087   5.725   4.896  0.2385  0.0638  0.2937
17673TIP3    H174510   5.995   5.711   4.921  0.3554 -1.3233  0.0005
17673TIP3    H274511   6.132   5.736   4.980 -0.0345 -0.3520  0.5036
17674TIP3   OH274512   1.654   2.402  12.635  0.0018  0.1960  0.5359
17674TIP3    H174513   1.571   2.444  12.611 -0.1103  0.1075  0.7724
17674TIP3    H274514   1.667   2.425  12.727 -0.3776 -0.8153  0.8535
17675TIP3   OH274515   3.527   4.969   5.505  0.1782 -0.3682  0.6126
17675TIP3    H174516   3.580   5.033   5.552  1.3259 -0.2204 -0.7949
17675TIP3    H274517   3.561   4.972   5.415 -2.7027  0.2523 -0.5557
17676TIP3   OH274518   3.278   6.202   4.127  0.0494  0.2390  0.2116
17676TIP3    H174519   3.238   6.120   4.095  0.4940  0.1432 -0.1069
17676TIP3    H274520   3.203   6.259   4.146 -0.3136 -0.6333  1.5297
17677TIP3   OH274521   5.182   5.300   0.033  0.1178  0.6263 -0.4630
17677TIP3    H174522   5.125   5.262   0.100 -0.9617  0.1002 -1.6337
17677TIP3    H274523   5.256   5.336   0.082 -0.1545 -0.5940  0.9346
17678TIP3   OH274524   5.754   6.250   1.010 -0.2978 -0.4280 -0.2964
17678TIP3    H174525   5.824   6.305   1.045  0.9252 -1.1220 -1.5479
17678TIP3    H274526   5.797   6.168   0.987 -1.6162 -1.0359 -0.7045
17679TIP3   OH274527   4.875   6.766  16.417  0.1441  0.2023  0.1366
17679TIP3    H174528   4.826   6.737  16.494  1.9737  0.3905  1.4388
17679TIP3    H274529   4.900   6.856  16.437 -0.0663  0.5408 -1.0722
17680TIP3   OH274530   3.022   5.844  16.879  0.7156 -0.0448 -0.1500
17680TIP3    H174531   3.053   5.813  16.964 -0.6292 -0.7127  0.1210
17680TIP3    H274532   3.101   5.874  16.834  1.6080 -0.8249  0.8612
17681TIP3   OH274533   5.463   6.290  14.851 -0.0090  0.9984 -0.1065
17681TIP3    H174534   5.532   6.296  14.785 -1.3323 -1.7751 -1.9393
17681TIP3    H274535   5.381   6.298  14.802 -1.0256  0.3115  1.3827
17682TIP3   OH274536   1.089   0.481   0.180 -0.1583  0.3891 -0.3292
17682TIP3    H174537   1.020   0.481   0.114 -0.5475 -1.7976  0.0010
17682TIP3    H274538   1.169   0.499   0.132 -0.4562 -1.0327 -1.4296
17683TIP3   OH274539   5.234   3.706  17.145 -0.4233 -0.2678  0.1996
17683TIP3    H174540   5.275   3.785  17.182 -1.6342  0.3964  0.1651
17683TIP3    H274541   5.161   3.688  17.203 -2.1963  0.6139 -1.6602
17684TIP3   OH274542   4.380   1.340   4.599 -0.0983 -0.2409  0.2486
17684TIP3    H174543   4.370   1.427   4.636  0.1522 -0.5492  1.0640
17684TIP3    H274544   4.456   1.346   4.541 -0.1989  0.1262  0.1569
17685TIP3   OH274545   5.231   3.212  13.058  0.1935  0.0864 -0.2421
17685TIP3    H174546   5.291   3.271  13.104 -1.0162 -0.2976  1.9899
17685TIP3    H274547   5.183   3.168  13.128 -1.9103 -0.4337 -1.9138
17686TIP3   OH274548   5.857   4.798   5.095  0.5016 -0.1566 -0.5036
17686TIP3    H174549   5.836   4.777   5.186  2.3479 -1.5274 -0.3495
17686TIP3    H274550   5.790   4.861   5.070 -0.4152 -0.1894  1.6116
17687TIP3   OH274551   4.969   4.850  15.855 -0.0667  0.3481  0.5169
17687TIP3    H174552   5.042   4.887  15.904 -0.9996  1.1447  1.3546
17687TIP3    H274553   4.913   4.925  15.835 -0.2752 -0.1294 -0.7954
17688TIP3   OH274554   3.042   6.376   1.913 -0.1447 -0.6637 -0.4874
17688TIP3    H174555   3.026   6.427   1.992 -0.8511 -1.0738 -0.3558
17688TIP3    H274556   3.092   6.300   1.944 -1.1032 -1.2291 -0.2918
17689TIP3   OH274557   3.849   0.889  12.619  0.3629  0.2900  0.3685
17689TIP3    H174558   3.943   0.873  12.612  0.6168  2.2735 -2.0367
17689TIP3    H274559   3.810   0.833  12.552 -0.3812 -1.3624  2.0838
17690TIP3   OH274560   5.947   6.371  11.835  0.1697 -0.6797 -0.1291
17690TIP3    H174561   5.921   6.282  11.811 -1.5416 -0.4593  0.7494
17690TIP3    H274562   5.995   6.361  11.917  1.1088 -0.8882 -0.6856
17691TIP3   OH274563   5.662   1.295   5.490 -0.1067  0.1523 -0.9152
17691TIP3    H174564   5.683   1.250   5.408  1.3530 -0.4104 -0.2675
17691TIP3    H274565   5.705   1.242   5.558 -0.8601  0.8895  0.1649
17692TIP3   OH274566   5.796   5.969  13.893 -0.1263 -0.0211  0.0111
17692TIP3    H174567   5.828   5.880  13.910 -0.5203 -0.0963  0.3558
17692TIP3    H274568   5.708   5.956  13.857 -0.3926  0.2454  0.5543
17693TIP3   OH274569   4.183   3.087  11.910 -0.1636 -0.4678 -0.1992
17693TIP3    H174570   4.174   2.998  11.944 -2.7034  0.1179  0.9343
17693TIP3    H274571   4.138   3.085  11.826  0.4677 -0.4385 -0.5375
17694TIP3   OH274572   5.759   1.603  15.548  0.1285 -0.1108  0.1391
17694TIP3    H174573   5.716   1.528  15.587  1.5719 -1.3289 -0.5162
17694TIP3    H274574   5.831   1.625  15.607  0.3163  0.1236 -0.1651
17695TIP3   OH274575   1.665   0.717   2.599 -0.3097 -0.4664 -0.7806
17695TIP3    H174576   1.747   0.710   2.550  0.7456 -0.7431  0.9650
17695TIP3    H274577   1.621   0.792   2.560  1.3842  0.5158 -0.8914
17696TIP3   OH274578   1.186   4.149  14.343  0.0645  0.2460 -0.0495
17696TIP3    H174579   1.180   4.074  14.402  0.6345  0.2227 -0.0215
17696TIP3    H274580   1.267   4.193  14.367  0.4022  0.1268 -0.9478
17697TIP3   OH274581   1.416   1.392  12.306  0.3835  0.1067  0.2396
17697TIP3    H174582   1.496   1.368  12.354 -0.6204 -3.1298  0.5378
17697TIP3    H274583   1.401   1.319  12.247 -2.3206  0.6541  0.1331
17698TIP3   OH274584   2.592   0.273   5.835  0.3782 -0.1341 -0.5706
17698TIP3    H174585   2.529   0.235   5.775  0.2357 -0.1890 -0.3890
17698TIP3    H274586   2.675   0.271   5.788  0.2473 -0.0782 -0.8031
17699TIP3   OH274587   0.529   4.169   0.399 -0.1581  0.3393 -0.2490
17699TIP3    H174588   0.549   4.253   0.439  0.3576 -0.5013  1.3893
17699TIP3    H274589   0.437   4.153   0.421  0.2275 -0.2928  1.0163
17700TIP3   OH274590   0.654   2.271   1.693  0.4070 -0.3449  0.0339
17700TIP3    H174591   0.673   2.313   1.608  2.9237 -2.3623 -0.5197
17700TIP3    H274592   0.703   2.323   1.756  2.3475 -1.4710 -0.4577
17701TIP3   OH274593   6.253   1.575   6.749  0.6669  0.7753  0.4013
17701TIP3    H174594   6.198   1.540   6.679 -1.5133  1.0498  1.8652
17701TIP3    H274595   6.276   1.499   6.803 -0.0651  0.9188  0.9363
17702TIP3   OH274596   4.680   1.794   0.494  0.4488  0.4870 -0.1258
17702TIP3    H174597   4.590   1.802   0.463  0.6862  1.6558 -0.5963
17702TIP3    H274598   4.724   1.739   0.430 -0.1699 -0.9997  0.6889
17703TIP3   OH274599   6.263   4.813  14.666 -0.1020 -0.0653  0.5527
17703TIP3    H174600   6.308   4.881  14.616 -1.5214  0.6280  0.1623
17703TIP3    H274601   6.311   4.808  14.749  1.8194 -0.6895 -0.5096
17704TIP3   OH274602   1.400   1.465  15.061  0.1160  0.0271 -0.1382
17704TIP3    H174603   1.449   1.481  15.142 -0.8627  1.1847  0.2575
17704TIP3    H274604   1.409   1.547  15.012  1.4410 -0.9635 -1.6398
17705TIP3   OH274605   3.057   2.452   5.224  0.4208 -0.5646 -0.1734
17705TIP3    H174606   2.984   2.505   5.192 -1.1327 -2.1215  0.6128
17705TIP3    H274607   3.086   2.403   5.147 -2.9294 -3.8783  0.3786
17706TIP3   OH274608   1.462   6.741   3.586 -0.8596 -0.1817  0.0554
17706TIP3    H174609   1.473   6.729   3.491 -4.3067 -0.7319 -0.4196
17706TIP3    H274610   1.399   6.812   3.593 -3.0994 -2.1718  1.7120
17707TIP3   OH274611   4.388   6.116   0.515 -0.1961  0.2927 -0.5489
17707TIP3    H174612   4.430   6.088   0.434  0.5929  1.1797 -0.4541
17707TIP3    H274613   4.359   6.206   0.497  0.5428  0.7189  0.3548
17708TIP3   OH274614   0.810   3.440  12.818  0.4409  0.2939 -0.0137
17708TIP3    H174615   0.795   3.535  12.818  2.9689  0.7567  1.1062
17708TIP3    H274616   0.760   3.408  12.893  0.2725  0.8632  0.1242
17709TIP3   OH274617   3.284   4.900  13.272 -0.2863 -0.0547 -0.2043
17709TIP3    H174618   3.370   4.891  13.232  0.2964 -0.4081  1.0669
17709TIP3    H274619   3.294   4.861  13.359 -1.7167 -0.0535 -0.0138
17710TIP3   OH274620   2.165   1.011  11.499  0.4632 -0.4232  0.1739
17710TIP3    H174621   2.245   0.965  11.524  1.9907  1.7590 -0.4625
17710TIP3    H274622   2.155   1.080  11.564 -0.5586 -0.2837 -0.1110
17711TIP3   OH274623   5.806   0.072   5.391 -0.5067 -0.5376  0.0171
17711TIP3    H174624   5.783   0.017   5.466  0.8444 -0.7657  0.2866
17711TIP3    H274625   5.841   0.012   5.326 -1.9656 -0.3857 -0.9641
17712TIP3   OH274626   0.989   3.741  11.425  0.2864 -0.1768  0.3030
17712TIP3    H174627   1.041   3.705  11.353  0.8187 -0.7852  0.9818
17712TIP3    H274628   0.925   3.798  11.382  0.5197 -0.6232 -0.6621
17713TIP3   OH274629   4.726   6.737   1.487  0.2101  0.1375 -0.3582
17713TIP3    H174630   4.733   6.780   1.572  0.1440 -0.8339  0.1520
17713TIP3    H274631   4.639   6.698   1.487 -0.2378  1.1011 -1.3511
17714TIP3   OH274632   1.214   3.341   4.539 -0.3505 -0.2394 -0.2071
17714TIP3    H174633   1.305   3.359   4.561 -0.4389 -1.2154  1.0774
17714TIP3    H274634   1.182   3.285   4.610 -1.7738 -0.4360 -0.9492
17715TIP3   OH274635   5.975   1.386  14.640  0.1234 -0.2838 -0.0725
17715TIP3    H174636   5.999   1.460  14.585 -1.2667  0.8997  0.8503
17715TIP3    H274637   6.013   1.310  14.596 -1.7361  0.4521 -3.2158
17716TIP3   OH274638   5.258   4.029  14.713  0.1126  0.0316  0.2808
17716TIP3    H174639   5.315   4.080  14.770  0.6797 -1.3740  1.0438
17716TIP3    H274640   5.316   3.963  14.674 -0.5689  0.0151 -0.7389
17717TIP3   OH274641   1.210   5.217  16.567  0.7054 -0.2370  0.0759
17717TIP3    H174642   1.284   5.175  16.521  2.0203  0.1949  1.7001
17717TIP3    H274643   1.157   5.144  16.597 -0.1736 -0.5377 -2.0189
17718TIP3   OH274644   6.121   5.294   0.073 -0.5039 -0.4725 -0.0299
17718TIP3    H174645   6.112   5.308   0.167 -0.3194  1.3844 -0.2492
17718TIP3    H274646   6.212   5.316   0.054 -0.8685  0.3955 -0.8202
17719TIP3   OH274647   1.855   5.090   3.369  0.6730 -0.1436 -0.0985
17719TIP3    H174648   1.866   5.010   3.420 -2.0664  0.2469  1.3213
17719TIP3    H274649   1.816   5.061   3.286 -1.7256 -0.2821  0.9877
17720TIP3   OH274650   5.795   0.075  14.639  0.1831  0.4660 -0.6855
17720TIP3    H174651   5.710   0.099  14.602  0.4322  0.1530 -1.4859
17720TIP3    H274652   5.858   0.102  14.573  0.4267 -3.3580 -2.2639
17721TIP3   OH274653   0.363   0.098  14.163 -0.3108 -0.1521 -0.6811
17721TIP3    H174654   0.433   0.062  14.217 -0.3602 -0.6361 -0.9391
17721TIP3    H274655   0.316   0.157  14.222 -0.0549 -0.2845 -0.3377
17722TIP3   OH274656   1.499   2.221  15.764  0.0849  0.2184  0.4249
17722TIP3    H174657   1.526   2.194  15.852  2.0306  0.7084  0.0280
17722TIP3    H274658   1.422   2.276  15.779  0.5083  0.4730  1.8475
17723TIP3   OH274659   6.340   6.520  12.772 -0.1287  0.3356 -0.0326
17723TIP3    H174660   6.292   6.561  12.844  0.4133  1.6215 -0.3781
17723TIP3    H274661   6.431   6.519  12.801 -0.2073 -1.2896  0.2493
17724TIP3   OH274662   2.241   4.723  12.026 -0.5346 -0.1770 -0.3513
17724TIP3    H174663   2.198   4.707  11.942 -2.9401  0.0329  0.7358
17724TIP3    H274664   2.260   4.635  12.060  0.6743 -0.2588 -1.1787
17725TIP3   OH274665   4.366   0.804   4.251  0.8424  0.2347 -0.2051
17725TIP3    H174666   4.302   0.743   4.289  2.8353 -1.0411  1.2442
17725TIP3    H274667   4.436   0.749   4.219  1.3253  1.6206 -1.6847
17726TIP3   OH274668   1.527   1.777  17.092  0.0559 -0.1225  0.0257
17726TIP3    H174669   1.602   1.826  17.056  0.1145 -2.0793 -2.8002
17726TIP3    H274670   1.566   1.699  17.130 -0.3370  0.3606  1.4861
17727TIP3   OH274671   4.139   3.978   5.147 -0.0911  0.3523 -0.3328
17727TIP3    H174672   4.223   3.992   5.104  0.2597  1.5305  0.6589
17727TIP3    H274673   4.077   4.031   5.097  0.0431  0.6314 -0.2041
17728TIP3   OH274674   5.149   4.463  16.832 -0.2834  0.1460 -0.3947
17728TIP3    H174675   5.065   4.448  16.789 -0.4863  1.0057 -0.3151
17728TIP3    H274676   5.192   4.377  16.832 -1.2019 -0.3231 -0.3343
17729TIP3   OH274677   1.361   5.970  15.677 -0.1358  0.5222  0.0258
17729TIP3    H174678   1.390   6.048  15.628 -0.4082  0.8507  0.3806
17729TIP3    H274679   1.423   5.964  15.750 -0.7370  1.0245  0.5906
17730TIP3   OH274680   0.048   5.363   5.564 -0.0952 -0.0029  0.2847
17730TIP3    H174681   0.004   5.300   5.621 -0.1668 -0.9905 -0.8138
17730TIP3    H274682  -0.006   5.441   5.567  0.7038  0.5352  2.7412
17731TIP3   OH274683   2.275   1.636  12.875 -0.1400  0.2276 -0.2948
17731TIP3    H174684   2.238   1.646  12.963  2.0127 -0.0503  0.7139
17731TIP3    H274685   2.325   1.716  12.860  2.4795 -1.1686  0.3359
17732TIP3   OH274686   2.889   5.524   1.374 -0.3054  0.0502 -0.3021
17732TIP3    H174687   2.978   5.502   1.346 -0.1474 -1.9237  1.5446
17732TIP3    H274688   2.835   5.452   1.343 -1.4079  1.4278 -1.7574
17733TIP3   OH274689   2.579   4.784   3.190 -0.0575 -0.1499  0.4517
17733TIP3    H174690   2.506   4.738   3.231 -1.1386 -0.3556 -1.6020
17733TIP3    H274691   2.583   4.868   3.237 -0.5493 -0.7744  1.6513
17734TIP3   OH274692   0.551   2.362  14.277  0.3166  0.1001  0.2017
17734TIP3    H174693   0.580   2.398  14.194 -0.2003 -0.4412 -0.2233
17734TIP3    H274694   0.620   2.301  14.302  0.1012 -0.3268 -0.2309
17735TIP3   OH274695   3.929   3.179   1.323 -0.0385  0.0207 -0.4056
17735TIP3    H174696   4.011   3.157   1.367 -0.1978  1.9666  1.0264
17735TIP3    H274697   3.860   3.151   1.384 -0.3434  0.3348 -0.5967
17736TIP3   OH274698   3.367   0.735   3.108  0.1153  0.4174  0.2122
17736TIP3    H174699   3.426   0.810   3.097  1.4681 -0.5991  0.3008
17736TIP3    H274700   3.280   0.774   3.114  0.8097  2.0071  0.5495
17737TIP3   OH274701   1.545   0.996   3.660  0.2573 -0.6198  0.8051
17737TIP3    H174702   1.637   1.009   3.684  0.1581 -1.5929  1.8148
17737TIP3    H274703   1.531   0.902   3.670 -0.5966 -0.6205 -0.3002
17738TIP3   OH274704   2.067   2.940  15.433 -0.2314  0.4583  0.6946
17738TIP3    H174705   2.105   2.998  15.367 -0.2238  0.8054  0.9960
17738TIP3    H274706   2.132   2.939  15.504  0.2210 -0.7151  0.2742
17739TIP3   OH274707   5.410   0.405   1.527 -0.4823 -0.0811  0.8577
17739TIP3    H174708   5.375   0.473   1.469 -0.2799  1.2569  2.2270
17739TIP3    H274709   5.471   0.355   1.473  0.1178  1.4785  0.0428
17740TIP3   OH274710   4.225   2.177   0.966 -0.4342  0.1379  0.8028
17740TIP3    H174711   4.161   2.232   1.011 -0.7731 -0.2729  0.8233
17740TIP3    H274712   4.259   2.233   0.896 -1.8762 -0.1159 -0.1426
17741TIP3   OH274713   2.066   4.471  13.011 -0.1474  0.3197 -0.7036
17741TIP3    H174714   2.032   4.389  13.049 -0.0468  1.1118  1.2248
17741TIP3    H274715   1.998   4.498  12.950 -1.3540  0.0173  0.4440
17742TIP3   OH274716   0.747   5.564  16.894 -0.1899 -0.0866  0.0751
17742TIP3    H174717   0.748   5.517  16.811  2.6534 -0.4402  0.2016
17742TIP3    H274718   0.678   5.629  16.885  1.3327  1.2370 -3.3717
17743TIP3   OH274719   4.689   3.396   0.838  0.2321 -0.3322  0.5132
17743TIP3    H174720   4.596   3.405   0.859  0.2394 -2.3765  1.7112
17743TIP3    H274721   4.716   3.483   0.808 -2.0343  0.3232  0.2017
17744TIP3   OH274722   5.342   0.435  11.878 -0.1643  0.0039  0.0613
17744TIP3    H174723   5.373   0.412  11.965  0.2745 -2.1708 -0.6167
17744TIP3    H274724   5.336   0.531  11.879  2.1815  0.2106  1.6802
17745TIP3   OH274725   4.335   0.666  10.832  0.4046 -0.5470  0.0523
17745TIP3    H174726   4.268   0.694  10.770  0.4005  1.2710  0.8282
17745TIP3    H274727   4.319   0.572  10.844 -1.7080 -0.2444 -0.1237
17746TIP3   OH274728   2.752   1.733  11.647  0.3770 -0.1070 -0.3047
17746TIP3    H174729   2.699   1.654  11.648 -0.6775  0.5800  0.2398
17746TIP3    H274730   2.708   1.793  11.707  0.3278  1.4087 -1.7700
17747TIP3   OH274731   2.177   4.788   4.105 -0.2761  0.3953 -0.3911
17747TIP3    H174732   2.188   4.880   4.128  1.8737  0.1323 -0.1645
17747TIP3    H274733   2.262   4.762   4.069 -0.5642 -1.7078  0.2967
17748TIP3   OH274734   5.796   3.826  15.051  0.7462 -0.9356 -0.1270
17748TIP3    H174735   5.740   3.866  15.117  0.6802 -1.8132  0.3580
17748TIP3    H274736   5.845   3.758  15.098  0.9784 -1.3180 -0.8981
17749TIP3   OH274737   1.170   3.148   6.387 -0.2119 -0.1934  0.4232
17749TIP3    H174738   1.087   3.126   6.345 -0.3681 -0.4710  0.8700
17749TIP3    H274739   1.173   3.243   6.384  0.1361 -0.2283 -0.8908
17750TIP3   OH274740   1.866   5.281   1.435 -1.0496  0.1925 -0.0571
17750TIP3    H174741   1.877   5.262   1.529 -0.4724 -0.3236 -0.2215
17750TIP3    H274742   1.880   5.375   1.428 -0.6509  0.1633  0.3169
17751TIP3   OH274743   1.860   4.156  15.110 -0.1449 -0.3356  0.0087
17751TIP3    H174744   1.907   4.112  15.039  0.1830 -0.3428  0.2323
17751TIP3    H274745   1.872   4.249  15.093 -1.4936 -0.3045 -0.9127
17752TIP3   OH274746   3.703   2.294   4.031  0.1688  0.1331 -0.0845
17752TIP3    H174747   3.795   2.306   4.054  0.5313  0.9971 -1.8359
17752TIP3    H274748   3.702   2.217   3.975  0.4365  2.0551 -2.9539
17753TIP3   OH274749   3.697   0.610   3.788 -0.5461  0.0795  0.4885
17753TIP3    H174750   3.650   0.527   3.776 -0.0521 -0.3218  1.2549
17753TIP3    H274751   3.691   0.627   3.882  1.3262 -0.2798  0.7084
17754TIP3   OH274752   0.935   2.292   4.115 -0.4461  0.5411  0.1118
17754TIP3    H174753   0.992   2.369   4.122 -1.1873  1.2594 -1.3397
17754TIP3    H274754   0.849   2.323   4.140 -1.3155  0.9628 -2.9326
17755TIP3   OH274755   6.667   1.950   4.793  0.4676  0.5625  0.0726
17755TIP3    H174756   6.615   2.010   4.740  0.4251  0.4304 -0.0354
17755TIP3    H274757   6.603   1.892   4.833  0.6164 -0.4185 -1.0719
17756TIP3   OH274758   3.331   2.416  12.427  0.7560 -0.0363  0.0678
17756TIP3    H174759   3.307   2.350  12.362  1.0203  1.3242 -1.4680
17756TIP3    H274760   3.248   2.461  12.446  0.7710 -0.1019  0.2839
17757TIP3   OH274761   5.281   5.737   0.081  0.7240 -0.2513  0.1385
17757TIP3    H174762   5.289   5.661   0.023  0.0540 -0.2758  0.0748
17757TIP3    H274763   5.317   5.810   0.029 -2.6741  0.3757 -1.5984
17758TIP3   OH274764   4.256   0.936  11.424  0.3663  1.0569  0.3287
17758TIP3    H174765   4.242   0.955  11.517  2.0730  0.7745  0.6675
17758TIP3    H274766   4.343   0.897  11.420 -0.2004 -0.1598 -1.2338
17759TIP3   OH274767   5.049   2.577   3.523  0.2492  0.0809  0.0959
17759TIP3    H174768   5.057   2.645   3.591  1.2106 -0.4707  0.5546
17759TIP3    H274769   5.049   2.495   3.571 -1.5043 -0.2534 -0.4183
17760TIP3   OH274770   2.489   6.073  17.025  0.2498  0.1175  0.1118
17760TIP3    H174771   2.528   6.126  17.094 -0.8141 -0.6480  1.3533
17760TIP3    H274772   2.546   5.998  17.017  0.2351  0.0789  0.3565
17761TIP3   OH274773   4.664   3.682   4.559 -0.2129  0.3195 -0.1026
17761TIP3    H174774   4.695   3.772   4.551  0.1077  0.2252  0.0586
17761TIP3    H274775   4.586   3.688   4.614  0.2446  0.4072  0.5397
17762TIP3   OH274776   4.841   3.833  14.220  0.0925 -0.7469 -0.2821
17762TIP3    H174777   4.781   3.786  14.162  0.3902 -1.1243 -0.2945
17762TIP3    H274778   4.792   3.845  14.301 -0.8066  0.9407 -1.0186
17763TIP3   OH274779   1.509   0.303   5.691  0.4394 -0.2220  0.1088
17763TIP3    H174780   1.507   0.386   5.645 -0.6378 -1.2310 -1.7849
17763TIP3    H274781   1.525   0.238   5.623 -0.2221 -1.6996  1.3018
17764TIP3   OH274782   5.169   0.567  17.243 -0.1733  0.7166 -0.6354
17764TIP3    H174783   5.216   0.484  17.231 -0.8315  0.5168 -2.0514
17764TIP3    H274784   5.172   0.583  17.337 -1.0833 -1.5597 -0.1553
17765TIP3   OH274785   0.311   1.150   0.938 -0.5698 -0.0519 -0.0340
17765TIP3    H174786   0.334   1.212   1.007 -0.3152 -1.0624  0.7991
17765TIP3    H274787   0.239   1.099   0.974 -0.4483 -0.5767 -0.5249
17766TIP3   OH274788   0.026   1.820   4.557  0.2875 -0.2580  0.6536
17766TIP3    H174789  -0.047   1.760   4.573 -0.3801 -0.2705 -2.0104
17766TIP3    H274790   0.012   1.892   4.619 -2.1699 -0.1161  0.0077
17767TIP3   OH274791   6.020   3.360   4.325 -0.0605 -0.6196 -0.6150
17767TIP3    H174792   6.001   3.430   4.388 -0.9731 -0.7479 -0.7336
17767TIP3    H274793   5.947   3.299   4.335 -0.0287 -0.8230 -1.5403
17768TIP3   OH274794   3.425   0.641   1.608 -0.2536 -0.1061  0.6222
17768TIP3    H174795   3.520   0.625   1.607 -0.4137 -1.1025 -0.4101
17768TIP3    H274796   3.392   0.589   1.681 -0.3018 -1.7385 -0.5218
17769TIP3   OH274797   0.828   4.824  17.260  0.2484  0.6974  0.3148
17769TIP3    H174798   0.893   4.761  17.288  1.3755  1.8923  0.4618
17769TIP3    H274799   0.770   4.835  17.335  0.9151  0.9387  0.7943
17770TIP3   OH274800   1.736   2.861   6.052  0.0745 -0.0640  0.0883
17770TIP3    H174801   1.823   2.831   6.027  0.2462  0.4315  0.0703
17770TIP3    H274802   1.740   2.956   6.043 -0.3200  0.0023  0.5654
17771TIP3   OH274803   3.561   4.640   1.518 -0.4561 -0.5458 -0.5328
17771TIP3    H174804   3.546   4.547   1.534 -0.8332 -0.1481  1.8951
17771TIP3    H274805   3.632   4.642   1.453  0.8189 -2.5726  0.6636
17772TIP3   OH274806   3.301   6.679   0.173 -0.3051  0.3288 -0.8681
17772TIP3    H174807   3.245   6.742   0.219 -1.0440 -1.5515  0.9262
17772TIP3    H274808   3.390   6.709   0.191 -0.6223  0.4467  0.6431
17773TIP3   OH274809   0.139   1.805  12.152 -0.7467  0.1306 -0.1475
17773TIP3    H174810   0.204   1.740  12.178  0.1266  1.3869  0.9465
17773TIP3    H274811   0.180   1.851  12.079  0.7541  2.5276  2.0530
17774TIP3   OH274812   1.726   4.767  16.852 -0.2794  0.2290  0.2964
17774TIP3    H174813   1.815   4.757  16.819  0.0134  1.5057  0.6493
17774TIP3    H274814   1.710   4.862  16.851 -2.1693 -0.0361 -1.1578
17775TIP3   OH274815   5.320   6.011  12.617 -0.1981  0.2239 -0.1410
17775TIP3    H174816   5.232   6.011  12.581 -0.1748  0.4316 -0.1966
17775TIP3    H274817   5.334   5.920  12.644 -0.1592  0.0339 -0.7820
17776TIP3   OH274818   6.301   6.115  15.644 -0.1274  0.3168 -0.2909
17776TIP3    H174819   6.250   6.036  15.629  0.8213 -0.1399 -1.2508
17776TIP3    H274820   6.364   6.117  15.571  1.0262  1.0074  0.6838
17777TIP3   OH274821   4.382   5.283  17.147 -0.3960 -0.1477  0.3880
17777TIP3    H174822   4.364   5.311  17.058  2.9650  2.4838  0.3504
17777TIP3    H274823   4.460   5.227  17.139  2.0047  2.6975  1.7367
17778TIP3   OH274824   0.261   4.090   1.750 -0.5371  0.0876 -0.5298
17778TIP3    H174825   0.174   4.054   1.767 -0.2469 -0.0108  0.8603
17778TIP3    H274826   0.307   4.082   1.833  0.3829  1.3144 -0.8877
17779TIP3   OH274827   1.164   0.132   2.399 -0.0915  0.1749 -0.0164
17779TIP3    H174828   1.245   0.105   2.441  0.0532  1.3355  0.4608
17779TIP3    H274829   1.095   0.104   2.459  0.0749  1.1241  0.6263
17780TIP3   OH274830   4.214   0.254  15.261  0.3841 -0.1630  0.1359
17780TIP3    H174831   4.194   0.162  15.275 -0.4217  0.2614  2.1288
17780TIP3    H274832   4.144   0.301  15.306 -0.6903  1.5029 -2.9931
17781TIP3   OH274833   5.780   5.768   2.648 -0.1834  0.7862 -0.4744
17781TIP3    H174834   5.850   5.799   2.590  0.3845 -0.6137 -0.5948
17781TIP3    H274835   5.703   5.818   2.623  0.8012  2.4877 -0.2288
17782TIP3   OH274836   3.075   1.604   5.214 -0.1105 -0.1581 -1.1762
17782TIP3    H174837   2.992   1.651   5.222 -0.2382 -0.4239 -0.9013
17782TIP3    H274838   3.061   1.523   5.262 -0.0578 -0.7058 -2.0720
17783TIP3   OH274839   5.754   3.506  15.369 -0.0914  0.8260 -0.1577
17783TIP3    H174840   5.761   3.566  15.443  0.6340  2.0350 -1.1501
17783TIP3    H274841   5.660   3.494  15.357 -0.2363 -1.0451  2.1796
17784TIP3   OH274842   1.700   3.629  11.737  0.2183  0.3199  0.1773
17784TIP3    H174843   1.757   3.621  11.814  0.8283  0.0096 -0.2981
17784TIP3    H274844   1.732   3.707  11.692  3.3673 -2.2631 -2.5477
17785TIP3   OH274845   4.561   2.443  17.066  0.7333  0.1998  0.0267
17785TIP3    H174846   4.639   2.486  17.100  0.9854 -0.0450 -0.2469
17785TIP3    H274847   4.590   2.398  16.987  0.0447  1.2172 -0.8410
17786TIP3   OH274848   0.363   5.434  15.999  0.4785 -0.5859  0.4054
17786TIP3    H174849   0.379   5.510  15.944  0.4429 -0.7057  0.2295
17786TIP3    H274850   0.449   5.395  16.014  0.5246 -0.3770  0.6899
17787TIP3   OH274851   5.038   5.099   6.121  0.3052  0.7478 -0.3517
17787TIP3    H174852   5.040   5.047   6.202 -2.2912  0.2167 -0.5404
17787TIP3    H274853   4.954   5.144   6.123  0.1606  0.7269 -2.7509
17788TIP3   OH274854   0.227   5.278   5.841  0.9928 -0.1147 -0.2669
17788TIP3    H174855   0.221   5.239   5.929  1.9830 -1.6858 -0.8404
17788TIP3    H274856   0.184   5.363   5.849 -2.1552 -1.6429  0.8615
17789TIP3   OH274857   1.398   2.022   4.472  0.0010  0.0585 -0.0763
17789TIP3    H174858   1.409   2.108   4.513 -0.7910 -0.5081  1.3907
17789TIP3    H274859   1.312   2.026   4.431  0.5603  0.4304 -1.2660
17790TIP3   OH274860   1.467   5.647  14.629  0.0403 -0.0593 -0.1821
17790TIP3    H174861   1.489   5.740  14.629  0.8758 -0.2214  1.1342
17790TIP3    H274862   1.420   5.633  14.547 -0.3855  1.5801 -0.2560
17791TIP3   OH274863   5.604   3.317  13.531 -0.0351  0.1938  0.3449
17791TIP3    H174864   5.627   3.227  13.554  1.2155  0.1663 -0.9071
17791TIP3    H274865   5.677   3.370  13.563  0.0335  0.5544 -0.3815
17792TIP3   OH274866   0.510   2.721  16.050 -0.2314 -0.0178  0.2970
17792TIP3    H174867   0.523   2.811  16.081  0.0281  0.7349 -1.8250
17792TIP3    H274868   0.598   2.688  16.036 -0.3470  0.1343 -0.8495
17793TIP3   OH274869   5.903   2.902  17.188 -0.0844 -0.2770  0.1264
17793TIP3    H174870   5.956   2.852  17.126 -3.0131 -3.4540 -0.0684
17793TIP3    H274871   5.945   2.888  17.273  0.5922 -0.9327 -0.3049
17794TIP3   OH274872   2.076   1.957  16.785  0.2054  0.4818 -0.3282
17794TIP3    H174873   2.027   1.969  16.866  0.7647 -1.3362  0.3305
17794TIP3    H274874   2.143   2.026  16.786  0.1393  0.5414  0.7092
17795TIP3   OH274875   0.394   5.440  12.248 -0.0059  0.6538  0.3358
17795TIP3    H174876   0.418   5.412  12.160  1.0295 -0.5193  0.9589
17795TIP3    H274877   0.301   5.418  12.256  0.5078 -1.7630  0.4305
17796TIP3   OH274878   5.328   1.848   6.055 -0.0701 -0.3740  0.3747
17796TIP3    H174879   5.411   1.887   6.083 -0.0509  1.1463 -1.5467
17796TIP3    H274880   5.353   1.764   6.015  0.3254 -0.7075  1.3096
17797TIP3   OH274881   6.263   3.726  15.295  0.1651  0.3880 -0.1990
17797TIP3    H174882   6.253   3.820  15.303  0.2419  0.4940 -1.1528
17797TIP3    H274883   6.246   3.708  15.202 -0.1898 -0.5785  0.0381
17798TIP3   OH274884   3.139   5.545  15.938 -0.4604 -0.6733  0.3861
17798TIP3    H174885   3.183   5.629  15.949 -0.1974 -0.7015 -0.3674
17798TIP3    H274886   3.062   5.551  15.994 -0.4165  0.0548  0.3796
17799TIP3   OH274887   0.901   4.615   3.151  0.3720  0.8173 -0.0480
17799TIP3    H174888   0.860   4.530   3.167  0.2536  0.9409  0.3158
17799TIP3    H274889   0.834   4.665   3.105  0.2966  0.8491  0.0961
17800TIP3   OH274890   5.017   3.055  14.233 -0.2579 -0.3218  0.2466
17800TIP3    H174891   4.961   3.118  14.188  1.9794 -0.4127 -3.0096
17800TIP3    H274892   5.077   3.109  14.285  1.4934  0.3946 -2.3373
17801TIP3   OH274893   2.153   4.942  13.927  0.5217 -0.5697  0.7231
17801TIP3    H174894   2.077   4.987  13.965  0.9022 -1.5592  2.8193
17801TIP3    H274895   2.132   4.932  13.835  0.0531  3.1086  0.2633
17802TIP3   OH274896   3.860   1.481   3.694 -0.1157  0.8001  0.1547
17802TIP3    H174897   3.800   1.482   3.620 -0.5204 -2.2434  0.3023
17802TIP3    H274898   3.912   1.401   3.682  1.9112  1.8062  1.5784
17803TIP3   OH274899   1.310   3.477  12.591 -0.7883 -0.0469  0.2414
17803TIP3    H174900   1.242   3.507  12.531 -0.6389 -2.0734 -1.0357
17803TIP3    H274901   1.295   3.526  12.672 -1.2764  2.4489 -1.2582
17804TIP3   OH274902   4.274   0.498  15.143  0.3220 -0.3179 -0.2439
17804TIP3    H174903   4.229   0.414  15.138  0.0235 -0.0938 -2.9663
17804TIP3    H274904   4.357   0.478  15.186 -0.8267 -1.4121  1.6404
17805TIP3   OH274905   6.012   4.908   4.365 -0.0486 -0.0374 -0.0131
17805TIP3    H174906   5.926   4.903   4.407 -0.5765 -0.2378 -1.0974
17805TIP3    H274907   6.072   4.932   4.436 -1.0514  0.4831  0.6719
17806TIP3   OH274908   1.410   4.959  10.358  0.5922  0.1505 -0.7758
17806TIP3    H174909   1.385   5.043  10.318  1.9580  0.7201 -0.4748
17806TIP3    H274910   1.480   4.981  10.419  0.2681 -1.0740  0.0783
17807TIP3   OH274911   2.398   0.553   2.993 -0.1604 -0.1892  0.2926
17807TIP3    H174912   2.467   0.512   2.940  0.1431 -1.7430  1.7771
17807TIP3    H274913   2.436   0.559   3.081 -0.2931  3.2104  0.2257
17808TIP3   OH274914   5.243   2.856   4.936  0.3469  0.2019  0.1070
17808TIP3    H174915   5.259   2.773   4.890  1.0635  1.4235 -2.0245
17808TIP3    H274916   5.268   2.839   5.026  2.6379 -1.3043 -0.7271
17809TIP3   OH274917   4.147   6.666  11.793 -0.5829 -0.4667 -0.5549
17809TIP3    H174918   4.051   6.671  11.787 -0.4788  0.4381 -1.8796
17809TIP3    H274919   4.177   6.754  11.772  0.5560 -0.7852 -0.3053
17810TIP3   OH274920   4.839   3.231  14.153 -0.8270  0.5489  0.5695
17810TIP3    H174921   4.848   3.322  14.125  1.6433  0.7568  1.7731
17810TIP3    H274922   4.811   3.236  14.244 -0.3294  0.1527  0.7549
17811TIP3   OH274923   1.872   4.846   3.525  0.1707  1.1170 -0.3981
17811TIP3    H174924   1.842   4.850   3.616  1.1526  1.6822 -0.0819
17811TIP3    H274925   1.809   4.789   3.481 -0.9492  1.7369  0.3793
17812TIP3   OH274926   4.620   4.478   3.046  0.0233  0.5001  0.6425
17812TIP3    H174927   4.609   4.564   3.005 -1.6988 -0.4425 -1.0687
17812TIP3    H274928   4.666   4.496   3.128 -0.8323  3.1293  0.6523
17813TIP3   OH274929   4.799   2.541  17.168 -0.0011  0.5514  0.2475
17813TIP3    H174930   4.869   2.545  17.103  0.3359 -3.6267  0.0872
17813TIP3    H274931   4.844   2.548  17.252  0.2857  0.3764  0.1097
17814TIP3   OH274932   4.904   0.210  11.904 -0.7759  0.2013  0.7989
17814TIP3    H174933   4.873   0.163  11.982 -0.2352  3.1242  2.9560
17814TIP3    H274934   4.965   0.149  11.862 -0.6193 -1.2876  3.0142
17815TIP3   OH274935   2.447   6.303  14.304 -0.3947 -0.2296  0.6428
17815TIP3    H174936   2.454   6.298  14.400  1.4950 -0.5305  0.5225
17815TIP3    H274937   2.494   6.226  14.273 -0.9888 -0.1262 -0.5365
17816TIP3   OH274938   1.221   0.299   1.408 -0.3813 -0.0482 -0.4320
17816TIP3    H174939   1.261   0.269   1.327 -2.0309 -3.3875 -0.2075
17816TIP3    H274940   1.145   0.350   1.380  1.3731  2.5374 -0.8397
17817TIP3   OH274941   4.433   3.143   0.841 -0.0789  0.0817  0.3237
17817TIP3    H174942   4.476   3.157   0.926 -0.0636  1.7481  0.0907
17817TIP3    H274943   4.440   3.228   0.798 -2.3840  0.0065 -0.3051
17818TIP3   OH274944   6.561   4.524  11.668 -0.6393  0.0944  0.2660
17818TIP3    H174945   6.608   4.555  11.590 -0.4755 -0.6549  0.0595
17818TIP3    H274946   6.592   4.434  11.681 -2.2026 -0.5040 -0.0061
17819TIP3   OH274947   4.358   0.005  13.537 -0.3327  0.1655 -0.4172
17819TIP3    H174948   4.404  -0.021  13.458 -0.8438 -0.4467 -0.5256
17819TIP3    H274949   4.341   0.098  13.526  3.2627  1.1395  0.8319
17820TIP3   OH274950   2.032   2.149   5.208 -0.4478  0.3448  0.1890
17820TIP3    H174951   1.981   2.097   5.270 -1.3794  1.2463  0.2092
17820TIP3    H274952   1.980   2.151   5.128 -1.1236  2.3481  0.6206
17821TIP3   OH274953   4.086   1.098  12.820 -0.2216 -0.5277 -0.1712
17821TIP3    H174954   4.094   1.123  12.728 -0.7097  0.6941  0.0989
17821TIP3    H274955   3.992   1.084  12.833 -0.2591  0.2183  0.3691
17822TIP3   OH274956   1.871   5.688  11.660 -0.3334  0.2648  0.0626
17822TIP3    H174957   1.898   5.737  11.582 -1.1489  0.7776  0.0805
17822TIP3    H274958   1.883   5.750  11.732 -0.6701  0.1926  0.1840
17823TIP3   OH274959   2.571   5.896  16.626 -0.1508  0.0424  0.9048
17823TIP3    H174960   2.636   5.885  16.695  0.6552 -0.8056  0.0330
17823TIP3    H274961   2.519   5.816  16.629 -0.3939  0.1942  0.8050
17824TIP3   OH274962   6.147   3.976  13.197 -0.2770 -0.3157  0.5075
17824TIP3    H174963   6.151   4.037  13.123 -1.2042  0.7438  1.2785
17824TIP3    H274964   6.164   4.031  13.273 -1.1118 -1.0259  1.2314
17825TIP3   OH274965   5.589   6.253   5.864  0.6134  0.3066  0.8474
17825TIP3    H174966   5.565   6.214   5.948  1.6054 -0.3737  0.8317
17825TIP3    H274967   5.605   6.345   5.885 -0.0770  0.3491  1.2186
17826TIP3   OH274968   0.924   0.831   1.444  0.1703 -0.0570  0.1546
17826TIP3    H174969   0.872   0.893   1.495  0.5386  0.4049 -0.0215
17826TIP3    H274970   0.860   0.784   1.391  0.0071  1.2161 -0.8187
17827TIP3   OH274971   1.445   5.318  16.652  0.0066 -0.4670  0.1730
17827TIP3    H174972   1.468   5.259  16.723  1.0364 -0.7661 -0.3879
17827TIP3    H274973   1.356   5.347  16.672 -0.2356 -1.6389  0.8375
17828TIP3   OH274974   6.108   4.159   0.269  0.0595  0.1133 -0.3586
17828TIP3    H174975   6.056   4.173   0.348  0.2792  0.1642 -0.2242
17828TIP3    H274976   6.171   4.230   0.268  0.2848 -0.0840 -0.3968
17829TIP3   OH274977   0.662   0.971  13.489 -0.2718  0.1586  0.6957
17829TIP3    H174978   0.591   1.018  13.532 -0.0499  0.4707  0.7275
17829TIP3    H274979   0.738   1.028  13.500 -0.1369  0.0834  0.1880
17830TIP3   OH274980   6.016   2.490  15.053  0.1086  0.1152  0.3439
17830TIP3    H174981   6.022   2.440  15.134 -0.1760  2.4562  1.8788
17830TIP3    H274982   5.933   2.537  15.060 -0.1672 -0.0051 -1.5645
17831TIP3   OH274983   4.466   5.848  17.276 -0.2270  0.4328  0.3459
17831TIP3    H174984   4.488   5.910  17.207  1.0996  0.3253  0.6529
17831TIP3    H274985   4.548   5.833  17.323 -0.5782 -1.3248  0.4677
17832TIP3   OH274986   2.101   2.410  15.094  0.2763 -0.5439  0.0211
17832TIP3    H174987   2.088   2.348  15.166 -0.0286  0.3832  0.7896
17832TIP3    H274988   2.125   2.492  15.137  1.6827 -0.3701 -1.0284
17833TIP3   OH274989   4.121   4.528  14.588 -0.4761  0.0352 -0.2950
17833TIP3    H174990   4.087   4.492  14.670  1.2169  1.6430  1.2001
17833TIP3    H274991   4.200   4.477  14.569 -0.5962 -0.0139 -0.6858
17834TIP3   OH274992   2.815   0.481  11.621 -0.2650 -0.4460  0.0337
17834TIP3    H174993   2.858   0.400  11.591  0.2386 -0.5173  0.9096
17834TIP3    H274994   2.873   0.551  11.592  1.9565 -0.6412  3.4002
17835TIP3   OH274995   2.625   2.030  11.372 -0.1675  0.9015  0.2218
17835TIP3    H174996   2.577   2.010  11.452 -0.8771  1.0425 -0.1590
17835TIP3    H274997   2.558   2.057  11.310  0.2425 -0.2816 -0.7748
17836TIP3   OH274998   6.166   1.887   0.139 -0.4846 -0.0722 -0.0781
17836TIP3    H174999   6.109   1.817   0.170 -2.4599  0.9795 -1.1479
17836TIP3    H275000   6.181   1.867   0.047  2.6056 -1.3912  0.6087
17837TIP3   OH275001   6.697   4.774  14.369 -0.0230 -0.5070 -0.3203
17837TIP3    H175002   6.689   4.752  14.462  3.4998  0.4174  0.3387
17837TIP3    H275003   6.665   4.864  14.362  1.3049  0.0502  0.4158
17838TIP3   OH275004   5.193   3.707  12.240  0.3593  0.3147  0.6602
17838TIP3    H175005   5.159   3.650  12.171  0.2850  2.3297 -1.0848
17838TIP3    H275006   5.174   3.661  12.321  0.9394 -2.4271 -0.6604
17839TIP3   OH275007   5.054   2.511   5.614  0.0658 -0.3885  0.4048
17839TIP3    H175008   5.021   2.427   5.581  0.5895 -0.8272  0.9739
17839TIP3    H275009   4.976   2.558   5.643 -0.2477 -0.6035 -0.0807
17840TIP3   OH275010   5.001   1.798   1.537 -0.2269  0.5183 -0.0400
17840TIP3    H175011   4.954   1.865   1.487 -1.5425 -0.6632 -0.4661
17840TIP3    H275012   5.086   1.790   1.492 -0.5438  1.0122 -0.7525
17841TIP3   OH275013   3.488   2.015   4.109 -0.1617 -0.2645 -0.1187
17841TIP3    H175014   3.403   2.038   4.071  0.7610  1.4928 -1.2528
17841TIP3    H275015   3.551   2.068   4.060  1.5837 -1.3857  0.8213
17842TIP3   OH275016   4.793   1.326   5.888 -0.1167  0.7167 -0.0627
17842TIP3    H175017   4.738   1.295   5.961 -1.9955  3.0913 -0.3306
17842TIP3    H275018   4.879   1.290   5.906 -1.3737 -1.9660  1.2346
17843TIP3   OH275019   0.306   1.862   3.411 -0.1541  0.3572  0.4053
17843TIP3    H175020   0.330   1.952   3.389  0.1840  0.3273  0.6356
17843TIP3    H275021   0.273   1.867   3.500  0.7275  0.1186  0.7551
17844TIP3   OH275022   2.252   1.144  12.696 -0.4705  0.2790  0.6042
17844TIP3    H175023   2.309   1.128  12.621 -2.7285 -0.9908 -0.9413
17844TIP3    H275024   2.274   1.232  12.725  0.9710  0.5141 -1.0882
17845TIP3   OH275025   1.487   3.762  14.540 -0.0219 -0.3398  0.2649
17845TIP3    H175026   1.512   3.671  14.523 -3.0858 -1.6646  2.0236
17845TIP3    H275027   1.516   3.779  14.630  0.4060  0.4031 -0.0018
17846TIP3   OH275028   0.068   2.015  15.659  0.0787 -0.3130 -0.2487
17846TIP3    H175029   0.151   2.056  15.637 -0.5650  3.0862  2.8203
17846TIP3    H275030   0.090   1.947  15.723  0.6011 -0.5232 -0.6481
17847TIP3   OH275031   1.241   0.133   1.849  0.3846  0.6359  0.0498
17847TIP3    H175032   1.301   0.208   1.840  0.2940  0.7556  0.4552
17847TIP3    H275033   1.258   0.099   1.936  1.9567 -1.1370 -0.8751
17848TIP3   OH275034   0.064   1.578  15.054  0.7712 -0.6315 -0.7151
17848TIP3    H175035   0.099   1.496  15.090 -1.4309 -1.5630 -0.5322
17848TIP3    H275036   0.110   1.588  14.970  0.8390 -2.2509 -0.9083
17849TIP3   OH275037   2.142   1.889   2.891 -0.2160 -0.7202 -0.3989
17849TIP3    H175038   2.143   1.894   2.795  0.3864  1.4889 -0.3340
17849TIP3    H275039   2.234   1.880   2.915  0.1191  2.5897  0.0073
17850TIP3   OH275040   3.153   6.184   1.063  0.0929  0.4503 -0.0976
17850TIP3    H175041   3.134   6.095   1.095  0.3992  1.0226  1.8246
17850TIP3    H275042   3.076   6.235   1.089  0.4396  0.9850 -0.1232
17851TIP3   OH275043   5.250   1.129   2.309  0.7447  0.4693  0.4625
17851TIP3    H175044   5.203   1.070   2.250  1.2338 -0.5186  1.0125
17851TIP3    H275045   5.218   1.105   2.396 -0.5166  2.4061  0.5872
17852TIP3   OH275046   5.480   5.384   3.133  0.4353  0.3645 -0.2811
17852TIP3    H175047   5.399   5.353   3.175  1.2476 -0.8686  0.4609
17852TIP3    H275048   5.507   5.459   3.185 -0.2058  0.7617 -0.5106
17853TIP3   OH275049   0.117   4.245   1.309 -0.2876 -0.4880  0.6905
17853TIP3    H175050   0.180   4.188   1.354  1.8088 -0.5564 -2.0563
17853TIP3    H275051   0.158   4.332   1.311 -0.2948 -0.4359 -0.7615
17854TIP3   OH275052   2.677   4.174  11.424 -0.6324  0.0173 -0.5841
17854TIP3    H175053   2.704   4.194  11.335 -0.5482  1.4218 -0.2671
17854TIP3    H275054   2.589   4.211  11.432 -1.0801 -1.0497 -0.4017
17855TIP3   OH275055   1.044   4.406  16.387 -0.5136 -0.5901 -0.0761
17855TIP3    H175056   1.057   4.499  16.371 -2.3526 -0.2015  0.4408
17855TIP3    H275057   1.041   4.366  16.300 -1.5256  0.1296 -0.3868
17856TIP3   OH275058   5.142   1.135  10.912  0.2500 -0.9571 -0.3220
17856TIP3    H175059   5.171   1.110  10.824 -0.0530 -2.3923 -0.0447
17856TIP3    H275060   5.058   1.090  10.923  0.0315 -0.3668  0.5091
17857TIP3   OH275061   3.344   6.010  11.770  0.2531 -0.0078 -0.7712
17857TIP3    H175062   3.422   5.994  11.822 -0.7429  1.7403  1.4515
17857TIP3    H275063   3.356   6.099  11.735 -0.8468  0.4350 -0.0885
17858TIP3   OH275064   4.754   0.785   4.531 -0.7634  0.1626 -0.1239
17858TIP3    H175065   4.815   0.762   4.602 -0.8740 -1.1376 -0.4396
17858TIP3    H275066   4.794   0.862   4.490  1.4394 -1.4504 -1.2104
17859TIP3   OH275067   3.170   2.366   1.300 -0.3007  0.0447  0.0788
17859TIP3    H175068   3.129   2.445   1.264 -0.8873 -0.0991  0.4127
17859TIP3    H275069   3.107   2.334   1.365  0.8807  0.4798  1.4677
17860TIP3   OH275070   4.667   0.090   0.911 -0.0036  0.0071 -0.1769
17860TIP3    H175071   4.611   0.142   0.969  1.0917  0.7056  0.2936
17860TIP3    H275072   4.743   0.068   0.965 -0.1875 -1.6317 -0.5465
17861TIP3   OH275073   1.712   4.045  15.288  0.2058 -0.2325  0.7476
17861TIP3    H175074   1.688   3.956  15.263  0.2532 -0.2506  0.7658
17861TIP3    H275075   1.769   4.076  15.218  0.7537 -0.4678  1.0874
17862TIP3   OH275076   1.876   2.614   1.679  0.1433 -0.3353 -0.4368
17862TIP3    H175077   1.890   2.666   1.600  1.6453 -1.7556 -1.1628
17862TIP3    H275078   1.786   2.633   1.705 -0.5497 -0.1816 -2.7676
17863TIP3   OH275079   0.003   1.083  13.152  0.2004  0.2709  0.0625
17863TIP3    H175080   0.003   1.007  13.210  0.8141  1.3368  1.5138
17863TIP3    H275081   0.094   1.093  13.125  0.1592  0.5986  0.0349
17864TIP3   OH275082   2.949   5.208   5.181 -0.2406 -0.0439 -0.3841
17864TIP3    H175083   3.011   5.225   5.110 -1.2083  1.3926 -0.9330
17864TIP3    H275084   2.993   5.240   5.259  0.4190 -0.6870 -0.4819
17865TIP3   OH275085   4.504   1.344  11.260 -0.4384  0.5785  0.5608
17865TIP3    H175086   4.421   1.388  11.244 -1.9041 -1.1352  2.8514
17865TIP3    H275087   4.486   1.252  11.240  1.1538  0.2836  0.3827
17866TIP3   OH275088   4.851   5.698  16.428  0.5203  0.3833  0.1664
17866TIP3    H175089   4.770   5.659  16.394 -0.0015 -0.6718  2.4130
17866TIP3    H275090   4.917   5.677  16.362 -0.8803  0.7073 -1.4064
17867TIP3   OH275091   6.625   0.263  15.270  0.1630 -0.1696 -0.2529
17867TIP3    H175092   6.681   0.193  15.304  0.8797 -0.2660 -1.5919
17867TIP3    H275093   6.686   0.329  15.238 -0.5071  0.5237 -0.1372
17868TIP3   OH275094   5.325   3.366  14.861 -0.0484  0.0793 -0.4002
17868TIP3    H175095   5.398   3.426  14.877  0.8820 -1.1922  0.2781
17868TIP3    H275096   5.277   3.364  14.943 -0.8086  0.8262 -0.8098
17869TIP3   OH275097   3.854   6.781  15.995 -0.5417 -0.3410 -0.3120
17869TIP3    H175098   3.899   6.833  15.927  1.9680 -0.1440  1.3676
17869TIP3    H275099   3.798   6.721  15.945 -1.8582  2.3821 -2.4084
17870TIP3   OH275100   3.532   6.175   4.765 -0.5558 -0.2267  0.2541
17870TIP3    H175101   3.449   6.218   4.744  0.9792  1.4852 -3.1359
17870TIP3    H275102   3.554   6.206   4.853 -3.2570 -0.4603  1.1027
17871TIP3   OH275103   0.710   5.969   0.643  0.0648  0.4357 -0.6329
17871TIP3    H175104   0.629   5.950   0.691 -0.7361  1.7325 -1.4068
17871TIP3    H275105   0.778   5.924   0.692 -1.0973 -0.5396  0.1523
17872TIP3   OH275106   2.918   2.921   4.661 -0.3158  0.0039 -0.1144
17872TIP3    H175107   2.835   2.960   4.688 -0.8113 -3.2368  4.0749
17872TIP3    H275108   2.985   2.973   4.704 -0.6327 -0.6818  1.2548
17873TIP3   OH275109   0.071   6.579  17.122 -0.0268  0.0396 -0.4519
17873TIP3    H175110  -0.024   6.577  17.130  0.0658 -0.1220  0.8389
17873TIP3    H275111   0.096   6.488  17.108 -0.1252  0.2082 -1.7760
17874TIP3   OH275112   0.044   6.779  13.383 -0.1547 -0.0048  0.0547
17874TIP3    H175113   0.101   6.727  13.327 -1.5241 -2.4726  0.7613
17874TIP3    H275114   0.091   6.786  13.466  0.5527  0.9793 -0.4151
17875TIP3   OH275115   6.768   6.069  14.191 -0.1467  0.0039  0.3731
17875TIP3    H175116   6.833   6.112  14.135  0.2792 -0.0140  0.8347
17875TIP3    H275117   6.805   5.983  14.208  1.2953  1.0150  3.1339
17876TIP3   OH275118   0.755   3.420  11.147  0.9867 -0.8835  0.3793
17876TIP3    H175119   0.673   3.448  11.105  2.0442  1.2329 -0.4015
17876TIP3    H275120   0.822   3.438  11.082  2.3786 -0.1021  1.9628
17877TIP3   OH275121   4.864   6.229   3.619  0.3276 -0.3462 -0.1838
17877TIP3    H175122   4.849   6.304   3.562  0.1911 -0.0854  0.1909
17877TIP3    H275123   4.793   6.169   3.599 -0.7694  0.5025  0.9569
17878TIP3   OH275124   6.713   3.521   4.493 -0.3235  0.3447  0.0978
17878TIP3    H175125   6.798   3.480   4.474  0.0522  1.1613 -0.0355
17878TIP3    H275126   6.652   3.480   4.432 -0.1996 -0.7973  0.6911
17879TIP3   OH275127   0.402   4.396  12.857  0.4665  0.3034 -0.4020
17879TIP3    H175128   0.448   4.397  12.773 -1.2710 -0.2336 -1.4121
17879TIP3    H275129   0.325   4.451  12.843 -0.1006 -0.1757  0.6994
17880TIP3   OH275130   1.108   0.863  15.162  0.0295  0.9284 -0.2845
17880TIP3    H175131   1.068   0.928  15.220  0.7524  1.9032 -0.8459
17880TIP3    H275132   1.191   0.841  15.204 -0.1716  0.4298 -0.1419
17881TIP3   OH275133   5.854   1.332   4.480 -0.1513  0.3334 -0.2662
17881TIP3    H175134   5.820   1.417   4.453 -1.3836 -0.0864 -0.0788
17881TIP3    H275135   5.784   1.270   4.458  0.0958 -0.4268  0.9966
17882TIP3   OH275136   3.579   0.396   2.891 -0.5618 -0.4135  0.6616
17882TIP3    H175137   3.547   0.306   2.887  1.1864 -1.0394 -1.5893
17882TIP3    H275138   3.615   0.406   2.979 -2.5804 -1.1993  1.6288
17883TIP3   OH275139   1.528   0.717   6.600  0.2709  0.2418 -1.1406
17883TIP3    H175140   1.466   0.702   6.529 -0.9454  0.1402 -0.0949
17883TIP3    H275141   1.475   0.753   6.671  1.5664  0.9415 -0.4930
17884TIP3   OH275142   4.938   3.205   4.806  0.9096  0.0843 -0.2320
17884TIP3    H175143   4.904   3.131   4.755  2.7908 -0.1067 -1.2966
17884TIP3    H275144   5.000   3.166   4.867  0.9267  0.6409  0.1109
17885TIP3   OH275145   0.407   4.848  16.239  0.5592 -0.1626 -0.0928
17885TIP3    H175146   0.312   4.863  16.240  0.6455  0.5765 -1.1990
17885TIP3    H275147   0.417   4.762  16.197  0.3126 -1.1832  1.8127
17886TIP3   OH275148   1.208   0.830  17.127  0.0757 -0.0837  0.2818
17886TIP3    H175149   1.243   0.884  17.057  0.9924 -1.1266 -0.1049
17886TIP3    H275150   1.279   0.824  17.191 -0.8278  1.0520  1.4472
17887TIP3   OH275151   6.274   3.577   6.009 -0.2740 -0.2008  0.2918
17887TIP3    H175152   6.364   3.608   6.000 -0.3428 -0.1303 -0.1985
17887TIP3    H275153   6.225   3.655   6.034 -0.2373 -0.1881  0.3253
17888TIP3   OH275154   1.553   4.569  13.230  0.8741  0.8600 -0.3208
17888TIP3    H175155   1.574   4.556  13.138  0.6651  2.8366 -0.7030
17888TIP3    H275156   1.636   4.553  13.276  0.9174 -0.3737 -0.8123
17889TIP3   OH275157   2.373   2.945   2.234 -0.8897 -0.2609 -0.2682
17889TIP3    H175158   2.398   2.962   2.325  0.2728  1.4989 -0.8715
17889TIP3    H275159   2.447   2.897   2.197 -0.1722  1.3282 -0.9575
17890TIP3   OH275160   2.506   3.663  11.776  0.4314  0.0091  0.5904
17890TIP3    H175161   2.584   3.709  11.743  0.4678  0.8436  1.8112
17890TIP3    H275162   2.538   3.576  11.799  0.8180  0.0671  0.2917
17891TIP3   OH275163   1.728   5.042   4.714  0.8046 -0.1072 -0.3075
17891TIP3    H175164   1.667   5.011   4.781 -1.0629 -0.7989 -2.2121
17891TIP3    H275165   1.706   5.134   4.703 -0.7733 -0.6031 -1.7628
17892TIP3   OH275166   4.459   1.446   3.360  0.0649  0.3120 -0.2250
17892TIP3    H175167   4.514   1.516   3.396  0.1431 -0.6548  1.6538
17892TIP3    H275168   4.369   1.477   3.374  0.0682 -0.4664  1.8106
17893TIP3   OH275169   0.482   6.578   2.404 -0.0942  0.5765 -0.0260
17893TIP3    H175170   0.506   6.512   2.339  0.6217  0.0961  0.7000
17893TIP3    H275171   0.430   6.530   2.469 -2.3275  1.4108 -1.0933
17894TIP3   OH275172   3.225   2.095  15.107  0.2703 -0.0014  0.7132
17894TIP3    H175173   3.298   2.124  15.051 -0.2197 -2.3179 -1.3010
17894TIP3    H275174   3.263   2.025  15.160 -0.5708 -1.8701 -1.0034
17895TIP3   OH275175   1.289   5.608  15.468 -0.0325 -0.2354  0.6181
17895TIP3    H175176   1.332   5.605  15.554  1.1461 -0.8208  0.0323
17895TIP3    H275177   1.361   5.616  15.406 -0.6796 -2.3520 -0.4758
17896TIP3   OH275178   3.924   2.770   4.448 -0.5872 -0.1923  0.0072
17896TIP3    H175179   3.972   2.737   4.525 -0.9314  0.0104  0.3093
17896TIP3    H275180   3.889   2.691   4.406 -0.9058 -0.2598  0.3962
17897TIP3   OH275181   0.151   4.076   2.853  0.4929 -0.3551  0.0034
17897TIP3    H175182   0.156   4.058   2.759 -1.1192 -0.4617 -0.0975
17897TIP3    H275183   0.200   4.004   2.894 -1.0413 -1.8648 -0.6631
17898TIP3   OH275184   3.993   5.063  13.723  0.5622 -0.5201 -0.4439
17898TIP3    H175185   4.008   5.026  13.810 -2.4273 -0.2939  0.2584
17898TIP3    H275186   4.038   5.147  13.725  0.3258 -0.4048  0.9735
17899TIP3   OH275187   2.123   5.744  13.744 -0.0821  0.2467  0.2088
17899TIP3    H175188   2.122   5.824  13.692  0.5925 -0.9897 -1.7866
17899TIP3    H275189   2.044   5.751  13.798 -0.2692  2.0455 -0.2251
17900TIP3   OH275190   3.379   3.649   5.322 -0.3404  0.3945  0.4602
17900TIP3    H175191   3.289   3.619   5.328 -0.1603 -0.5171 -0.8105
17900TIP3    H275192   3.387   3.716   5.389 -2.3562  1.4831 -0.2826
17901TIP3   OH275193   6.343   5.659   2.592  0.0569  0.0749  0.4266
17901TIP3    H175194   6.390   5.722   2.647 -0.3103  1.8905 -1.2485
17901TIP3    H275195   6.403   5.641   2.519 -0.5631 -0.0862 -0.0592
17902TIP3   OH275196   0.595   5.566   2.188  0.5849 -0.1139 -0.1984
17902TIP3    H175197   0.501   5.551   2.203  0.5715  0.7627  0.7247
17902TIP3    H275198   0.603   5.662   2.187  1.2218 -0.1461 -1.9903
17903TIP3   OH275199   3.509   3.193  14.334 -0.1030  0.6778  0.0880
17903TIP3    H175200   3.533   3.217  14.424 -1.4728  2.5416  0.0224
17903TIP3    H275201   3.493   3.099  14.338  0.8863  0.5299  1.5417
17904TIP3   OH275202   5.429   5.401  15.684  0.2414  0.2437  0.1250
17904TIP3    H175203   5.339   5.372  15.701 -0.0853  1.1841  0.0313
17904TIP3    H275204   5.479   5.367  15.758 -0.3231  0.3269  0.5495
17905TIP3   OH275205   3.270   1.668  12.229  0.1835  0.6794 -0.1196
17905TIP3    H175206   3.196   1.635  12.281 -0.2328 -0.8144 -1.5880
17905TIP3    H275207   3.248   1.646  12.139  2.1249  0.8228 -0.6734
17906TIP3   OH275208   3.611   6.728  13.164 -0.0590  0.1528 -0.5861
17906TIP3    H175209   3.640   6.733  13.073  1.6368  1.3840 -0.0208
17906TIP3    H275210   3.670   6.665  13.205  1.0001  1.6616  0.2740
17907TIP3   OH275211   0.659   5.250  13.510  0.0117  0.4426  0.2809
17907TIP3    H175212   0.574   5.262  13.553 -0.6661  1.1163 -1.1945
17907TIP3    H275213   0.660   5.158  13.485 -0.7974  0.6783 -0.6900
17908TIP3   OH275214   2.309   1.135  13.851 -0.7286  0.4003 -0.7748
17908TIP3    H175215   2.349   1.097  13.772  1.3267  1.6212 -0.3984
17908TIP3    H275216   2.361   1.213  13.869 -2.2706  1.1273  0.8019
17909TIP3   OH275217   2.461   6.557   1.944  0.4319 -0.1312 -0.5499
17909TIP3    H175218   2.537   6.511   1.910  1.4087  1.2703 -0.3483
17909TIP3    H275219   2.425   6.498   2.011  1.4136 -0.7531 -0.5518
17910TIP3   OH275220   2.427   1.078   0.340  0.0959 -0.2163  0.0769
17910TIP3    H175221   2.358   1.042   0.284  0.2669 -0.7862  0.2183
17910TIP3    H275222   2.447   1.163   0.302 -0.1698 -0.3627 -0.4025
17911TIP3   OH275223   4.074   6.664   5.381 -0.7351  0.6497  0.6921
17911TIP3    H175224   4.029   6.732   5.332  0.0896  0.5009 -0.3123
17911TIP3    H275225   4.052   6.582   5.336  0.4901  0.5716  0.1735
17912TIP3   OH275226   0.090   0.715  13.232  0.3007  0.1421 -0.0763
17912TIP3    H175227   0.058   0.628  13.255 -1.0115  0.7263  0.4363
17912TIP3    H275228   0.024   0.775  13.268  1.2429  1.3531 -0.2997
17913TIP3   OH275229   1.733   3.529  16.941  0.5501  0.1215 -0.1974
17913TIP3    H175230   1.686   3.456  16.981 -0.4770 -0.0243 -1.6182
17913TIP3    H275231   1.666   3.595  16.924  0.8102 -0.0678 -2.2041
17914TIP3   OH275232   1.613   0.695  16.693 -0.0866 -0.0012 -0.0584
17914TIP3    H175233   1.680   0.628  16.706 -0.4619 -1.1840 -3.3679
17914TIP3    H275234   1.601   0.733  16.780  1.4788 -2.9357  1.6201
17915TIP3   OH275235   6.740   1.951  12.786 -0.4238 -0.5452  0.1098
17915TIP3    H175236   6.762   1.865  12.749 -0.5789  0.4067 -2.4325
17915TIP3    H275237   6.746   2.011  12.711 -1.5678  1.4604  1.5293
17916TIP3   OH275238   0.275   2.263  14.043  0.8026  0.0063 -0.1365
17916TIP3    H175239   0.358   2.235  14.083  0.9554 -0.6754 -0.9080
17916TIP3    H275240   0.290   2.254  13.949  0.2357  0.9891 -0.3310
17917TIP3   OH275241   1.366   2.475   2.820 -0.7335 -0.4873 -0.4086
17917TIP3    H175242   1.426   2.412   2.780 -0.1059 -0.1483 -0.0168
17917TIP3    H275243   1.416   2.514   2.892 -0.6473  1.3281 -1.3859
17918TIP3   OH275244   3.735   1.209  11.875 -0.1644  0.3735 -0.4246
17918TIP3    H175245   3.830   1.216  11.865 -0.2113 -0.4055 -1.5688
17918TIP3    H275246   3.708   1.296  11.904  0.7419  1.0335 -1.4844
17919TIP3   OH275247   5.831   2.124   2.216  0.3726 -0.1604 -0.5892
17919TIP3    H175248   5.746   2.143   2.175  1.1731  1.1821 -1.7421
17919TIP3    H275249   5.818   2.040   2.260 -1.7583  0.3358 -0.1220
17920TIP3   OH275250   2.312   6.007  16.144  0.3622  0.6328 -0.2092
17920TIP3    H175251   2.314   6.038  16.054  0.1252  3.4587  0.6778
17920TIP3    H275252   2.244   6.059  16.186  2.1788  1.2522  2.1991
17921TIP3   OH275253   5.009   2.167  11.269 -0.0110  0.2397 -0.3873
17921TIP3    H175254   4.948   2.094  11.283 -0.0896  0.5930  1.4517
17921TIP3    H275255   5.095   2.126  11.266  0.2614  0.1677  3.4908
17922TIP3   OH275256   2.899   5.090  11.285  0.5420  0.9037 -0.5139
17922TIP3    H175257   2.900   5.066  11.378  0.5773  2.2164 -0.1513
17922TIP3    H275258   2.929   5.012  11.239  1.6596  0.6122  0.6783
17923TIP3   OH275259   2.395   3.361   1.663 -0.0158  0.6128 -0.1151
17923TIP3    H175260   2.352   3.394   1.584  1.0161 -0.5821 -1.2397
17923TIP3    H275261   2.480   3.404   1.664 -0.0551  0.6832  0.3925
17924TIP3   OH275262   2.081   0.701  15.231 -0.1234  0.4817  0.1450
17924TIP3    H175263   2.021   0.629  15.252 -0.5922  1.0462  0.7875
17924TIP3    H275264   2.164   0.675  15.271  0.1613 -0.4238 -0.9657
17925TIP3   OH275265   0.538   1.238   2.113  0.0867 -0.0949 -0.1682
17925TIP3    H175266   0.472   1.182   2.152 -0.9798  0.0768 -1.6401
17925TIP3    H275267   0.618   1.185   2.113 -0.4177 -0.8657  0.2691
17926TIP3   OH275268   5.732   0.999   6.038 -0.1984 -0.3832 -0.4108
17926TIP3    H175269   5.717   1.087   6.003  0.3591 -0.6337 -1.3350
17926TIP3    H275270   5.789   0.957   5.972 -2.7878 -2.4273 -1.5250
17927TIP3   OH275271   1.742   1.830  16.937 -0.3700 -0.3126 -0.0446
17927TIP3    H175272   1.808   1.899  16.933  0.7702 -1.3983 -1.5156
17927TIP3    H275273   1.791   1.753  16.966 -1.4427 -0.6855  0.7915
17928TIP3   OH275274   3.882   3.921  13.948 -0.3814  0.5265 -0.3185
17928TIP3    H175275   3.906   3.829  13.936  1.8122  0.9743  0.1093
17928TIP3    H275276   3.806   3.919  14.006  0.2457 -1.0158  0.5207
17929TIP3   OH275277   2.698   2.639  13.493  0.4436  0.4353 -0.3198
17929TIP3    H175278   2.606   2.619  13.506  0.2893  0.8787 -0.7023
17929TIP3    H275279   2.704   2.671  13.403  1.0164  0.1550 -0.3869
17930TIP3   OH275280   1.353   1.070   4.912 -0.0450 -0.5905  0.0220
17930TIP3    H175281   1.374   1.163   4.919  1.7898 -0.8530 -1.2041
17930TIP3    H275282   1.263   1.063   4.943  0.0334  1.4645  0.8546
17931TIP3   OH275283   2.078   3.514  12.840 -0.0007  0.3931 -0.4539
17931TIP3    H175284   2.142   3.533  12.909 -0.6161 -1.5716  0.7579
17931TIP3    H275285   2.131   3.497  12.762  1.2748 -3.1039  0.9442
17932TIP3   OH275286   1.374   3.096  14.548  0.0567 -0.1587 -0.5519
17932TIP3    H175287   1.337   3.155  14.614  1.5930 -0.3975  0.5906
17932TIP3    H275288   1.311   3.023  14.544 -0.1455 -0.0697  0.5650
17933TIP3   OH275289   0.866   0.414  10.839 -0.1288 -0.4456  0.1236
17933TIP3    H175290   0.856   0.372  10.754 -0.7593  0.1679 -0.1223
17933TIP3    H275291   0.926   0.487  10.823 -1.2526  0.4594 -0.1082
17934TIP3   OH275292   6.014   6.359  10.665 -0.2195  0.1787 -0.1348
17934TIP3    H175293   5.954   6.314  10.606  0.2595 -1.3648  0.5199
17934TIP3    H275294   5.961   6.428  10.706 -1.7469 -1.5303  0.8930
17935TIP3   OH275295   1.464   1.070   5.240 -0.0224 -0.2212 -0.5072
17935TIP3    H175296   1.387   1.017   5.222  0.4782 -1.6088  1.1765
17935TIP3    H275297   1.481   1.057   5.333  1.4845  1.0930 -0.5573
17936TIP3   OH275298   4.017   1.155  14.212 -0.7671 -0.4122 -0.2292
17936TIP3    H175299   4.059   1.069  14.209 -1.5436 -0.9244  1.6597
17936TIP3    H275300   4.011   1.175  14.306 -2.0128  0.9771 -0.5640
17937TIP3   OH275301   5.986   6.165  12.689  0.2743  0.1009 -0.0536
17937TIP3    H175302   5.924   6.103  12.649  0.1016 -0.6495  1.2889
17937TIP3    H275303   5.948   6.251  12.672 -0.9596 -0.3291  0.4209
17938TIP3   OH275304   1.038   5.761   3.147 -0.2190  0.4930  0.4934
17938TIP3    H175305   1.121   5.792   3.185 -0.1541  2.3292 -0.9781
17938TIP3    H275306   0.972   5.781   3.214  0.2305  1.1796  0.7461
17939TIP3   OH275307   1.993   3.592   2.221 -0.2570  0.2051 -0.0439
17939TIP3    H175308   2.048   3.529   2.268 -0.5803 -0.6157 -0.7470
17939TIP3    H275309   1.991   3.560   2.131 -0.0148  1.5083 -0.5364
17940TIP3   OH275310   4.825   3.314  11.553  0.1806  0.9648 -1.0371
17940TIP3    H175311   4.853   3.402  11.530  2.0140  0.3609 -1.3458
17940TIP3    H275312   4.849   3.261  11.476  0.2520  0.0124 -0.3801
17941TIP3   OH275313   6.513   3.019  11.205  0.2156  0.8208  0.0052
17941TIP3    H175314   6.432   3.011  11.155  0.9325  0.4260 -1.1354
17941TIP3    H275315   6.525   2.933  11.246  0.3519  0.6960 -0.2955
17942TIP3   OH275316   3.560   2.100  14.539 -0.1847  0.1732 -0.2101
17942TIP3    H175317   3.521   2.066  14.459 -2.0724  0.7066  0.4259
17942TIP3    H275318   3.623   2.166  14.509 -1.2995  0.7999 -1.2556
17943TIP3   OH275319   6.434   6.390  15.101 -0.2249 -0.4739  0.4043
17943TIP3    H175320   6.442   6.484  15.087 -2.2993 -0.1943  0.7656
17943TIP3    H275321   6.382   6.359  15.026 -0.3802 -1.1664  0.7923
17944TIP3   OH275322   4.363   2.385   3.731  0.2867  0.0379  0.1086
17944TIP3    H175323   4.452   2.355   3.716  1.0412  2.1312  0.1302
17944TIP3    H275324   4.349   2.453   3.665 -1.3211 -0.2566  0.0924
17945TIP3   OH275325   1.491   0.204  15.222  0.1512  0.1061  0.4583
17945TIP3    H175326   1.575   0.188  15.264  1.2100  0.4053 -1.4126
17945TIP3    H275327   1.509   0.195  15.128 -1.4341  2.1520 -0.1160
17946TIP3   OH275328   5.918   6.696   3.153  0.0765  0.2629  0.0213
17946TIP3    H175329   5.927   6.790   3.167  1.1264  0.3632 -1.1087
17946TIP3    H275330   5.875   6.664   3.232  0.3151  1.5905  0.7237
17947TIP3   OH275331   4.293   3.145   0.247 -0.6623 -0.4830  0.7688
17947TIP3    H175332   4.343   3.074   0.207  0.4873  1.1871 -0.9641
17947TIP3    H275333   4.276   3.206   0.175 -2.4540  0.5614  1.9805
17948TIP3   OH275334   0.076   2.051  13.808  0.1509  0.1046 -0.2533
17948TIP3    H175335   0.050   2.034  13.899  0.8154  0.1854 -0.0415
17948TIP3    H275336  -0.004   2.039  13.757 -0.5101  1.2302  0.4806
17949TIP3   OH275337   4.126   1.766  16.394 -0.2413 -0.2761 -0.7191
17949TIP3    H175338   4.161   1.829  16.331 -0.7268  0.8900  0.1589
17949TIP3    H275339   4.199   1.705  16.410  0.6739  0.8243 -0.5923
17950TIP3   OH275340   3.498   6.080  14.071 -0.8991  0.5994 -0.5591
17950TIP3    H175341   3.415   6.116  14.040 -2.3461 -2.3634 -0.5017
17950TIP3    H275342   3.503   5.993  14.031  0.3160 -0.8353  2.3596
17951TIP3   OH275343   4.186   6.567  16.790  0.0401  0.5142 -0.3334
17951TIP3    H175344   4.234   6.554  16.872 -1.3204 -1.2049  0.2400
17951TIP3    H275345   4.102   6.524  16.804 -0.8723  1.6095 -2.0717
17952TIP3   OH275346   3.426   5.150  14.981  0.4914 -0.3027  0.8348
17952TIP3    H175347   3.364   5.094  14.933 -1.5064  0.8203  1.9621
17952TIP3    H275348   3.455   5.214  14.916 -0.4744 -0.1327  0.5516
17953TIP3   OH275349   3.036   6.635  17.247 -0.5028 -0.1690  0.3301
17953TIP3    H175350   3.126   6.602  17.260 -0.2734  0.5678  0.6643
17953TIP3    H275351   2.995   6.625  17.333 -1.4927 -2.6399 -0.3447
17954TIP3   OH275352   5.237   6.290  11.463 -0.3578 -0.7957 -0.2347
17954TIP3    H175353   5.310   6.342  11.496 -0.5696  0.0160 -1.0187
17954TIP3    H275354   5.275   6.235  11.394  0.0968 -2.5350  1.3110
17955TIP3   OH275355   1.956   2.082   4.884  0.6177  0.0832 -0.1396
17955TIP3    H175356   1.949   2.066   4.790  0.6244 -0.2701 -0.0817
17955TIP3    H275357   1.939   1.997   4.924  1.9584 -0.0805  0.1269
17956TIP3   OH275358   0.881   4.115  12.040  0.8805  0.2108  0.5583
17956TIP3    H175359   0.887   4.209  12.057  1.2096  0.3437 -0.2626
17956TIP3    H275360   0.903   4.106  11.948  0.3676 -0.6259  0.5097
17957TIP3   OH275361   2.563   3.337   1.154 -0.4228  0.3293 -0.3750
17957TIP3    H175362   2.587   3.258   1.105 -0.3170 -1.9348  2.9981
17957TIP3    H275363   2.622   3.338   1.229 -1.7660  2.4991  0.7496
17958TIP3   OH275364   0.226   3.881  15.325 -0.4303  0.4199 -0.2714
17958TIP3    H175365   0.204   3.869  15.232 -0.1157  2.7462 -0.7183
17958TIP3    H275366   0.142   3.897  15.368 -0.6756 -1.5326  0.0479
17959TIP3   OH275367   0.689   1.249  13.381 -1.2882  0.4436 -0.5280
17959TIP3    H175368   0.629   1.217  13.449 -2.9927  1.6282 -1.3989
17959TIP3    H275369   0.730   1.326  13.420  0.1677 -0.6965  0.2823
17960TIP3   OH275370   6.656   2.207  15.556 -0.5770 -0.1694  0.4892
17960TIP3    H175371   6.588   2.140  15.545  0.1335 -0.8148 -0.0729
17960TIP3    H275372   6.732   2.160  15.590 -0.7666  0.7585  2.3481
17961TIP3   OH275373   6.193   3.434   3.880 -0.0376  1.3409  0.3702
17961TIP3    H175374   6.209   3.381   3.958  1.1438  1.6124  0.3336
17961TIP3    H275375   6.251   3.397   3.813 -1.2728  0.9075 -0.4858
17962TIP3   OH275376   3.734   0.099  15.443  0.6100  0.9744 -0.2549
17962TIP3    H175377   3.749   0.190  15.470 -0.0797  1.3860 -1.1899
17962TIP3    H275378   3.728   0.050  15.525 -0.0472  1.9464  0.3022
17963TIP3   OH275379   0.432   3.051  14.207 -0.0343  0.0282  0.0120
17963TIP3    H175380   0.517   3.025  14.243  0.0991  2.2597  1.5815
17963TIP3    H275381   0.454   3.104  14.130  0.2477  2.5855  1.7281
17964TIP3   OH275382   1.096   2.025  11.315 -0.1066  0.0283  0.0352
17964TIP3    H175383   1.105   1.954  11.379 -0.7276 -0.1312 -0.0552
17964TIP3    H275384   1.183   2.033  11.276  0.7803  1.2371  2.0722
17965TIP3   OH275385   0.406   0.518   1.484 -1.1331  0.1328  0.0793
17965TIP3    H175386   0.339   0.512   1.417 -1.0244 -1.6845  0.0878
17965TIP3    H275387   0.391   0.442   1.540 -0.4163  0.8983  1.3603
17966TIP3   OH275388   1.257   3.035  14.889  0.2708 -0.0509 -0.1164
17966TIP3    H175389   1.254   2.988  14.972  1.2949  0.0279 -0.0172
17966TIP3    H275390   1.304   2.976  14.830 -1.0224 -0.3885 -0.8493
17967TIP3   OH275391   4.643   1.278   6.096 -0.1630  0.2444 -0.0064
17967TIP3    H175392   4.552   1.307   6.111 -1.4784 -3.0349 -0.8762
17967TIP3    H275393   4.679   1.269   6.184 -1.0335  0.5528  0.3974
17968TIP3   OH275394   2.182   3.961   5.880 -0.7510  0.0226  0.0626
17968TIP3    H175395   2.202   3.868   5.872  1.2393  0.3081  1.2230
17968TIP3    H275396   2.262   4.006   5.851 -1.2814  1.3509  0.5551
17969TIP3   OH275397   2.389   2.453  14.833  0.2923 -0.1204  0.1585
17969TIP3    H175398   2.377   2.510  14.757 -0.8685 -1.2119 -0.5071
17969TIP3    H275399   2.444   2.504  14.892  3.2856 -0.0935 -2.3648
17970TIP3   OH275400   3.799   1.515  11.107 -0.3234  0.5539  0.2645
17970TIP3    H175401   3.709   1.483  11.104 -0.1149  0.0294 -0.7954
17970TIP3    H275402   3.807   1.570  11.029  0.2994  0.5336  0.3113
17971TIP3   OH275403   0.125   6.551   1.470  0.2791 -0.3422  0.0082
17971TIP3    H175404   0.035   6.576   1.493  0.2253 -0.3071 -0.2328
17971TIP3    H275405   0.180   6.611   1.520  0.1537  0.1042 -0.3764
17972TIP3   OH275406   4.180   1.995   1.295  0.0044 -0.4944 -0.2701
17972TIP3    H175407   4.242   2.042   1.239  0.2917  0.3136  0.6822
17972TIP3    H275408   4.213   1.906   1.299  0.7944 -0.2060 -0.2353
17973TIP3   OH275409   5.881   5.930   2.882  0.4571 -0.1797  0.0276
17973TIP3    H175410   5.788   5.920   2.861  0.4527  1.1633 -0.7644
17973TIP3    H275411   5.927   5.898   2.803  0.5292  2.2200 -0.9924
17974TIP3   OH275412   3.787   1.607  13.804  0.4614  0.5558  0.2819
17974TIP3    H175413   3.808   1.531  13.750  2.7512  0.1466  1.6348
17974TIP3    H275414   3.744   1.570  13.882 -1.0172  0.9615 -0.3052
17975TIP3   OH275415   1.793   4.684   6.021 -0.9455  0.3108  0.2074
17975TIP3    H175416   1.702   4.694   5.992 -0.5856 -0.8837 -1.4791
17975TIP3    H275417   1.790   4.614   6.086 -0.9057 -1.7218 -1.8905
17976TIP3   OH275418   5.059   3.525  16.691  0.4983 -0.2424  0.5964
17976TIP3    H175419   5.119   3.595  16.664  0.6014 -0.4973  0.1547
17976TIP3    H275420   5.092   3.495  16.775  0.6324  0.0302  0.6429
17977TIP3   OH275421   4.830   6.265   5.752 -0.0133 -0.1122 -0.0737
17977TIP3    H175422   4.843   6.325   5.679  1.0319  0.7895  0.8074
17977TIP3    H275423   4.875   6.307   5.826 -2.4487 -0.1474  1.5402
17978TIP3   OH275424   3.206   4.526   3.558 -0.7361 -0.2182  0.0014
17978TIP3    H175425   3.251   4.563   3.483 -1.2880 -1.3401 -0.9060
17978TIP3    H275426   3.190   4.601   3.616  0.1198  0.5748 -0.7576
17979TIP3   OH275427   3.763   4.556  14.206 -0.4818 -0.2431 -0.4559
17979TIP3    H175428   3.746   4.644  14.174 -2.0762  0.7524  2.7603
17979TIP3    H275429   3.839   4.565  14.264 -0.9808 -0.8533  0.3140
17980TIP3   OH275430   2.422   1.028   4.845  0.0777  0.3559  0.5047
17980TIP3    H175431   2.512   0.996   4.843 -0.2275 -0.5098 -0.5680
17980TIP3    H275432   2.369   0.950   4.857 -0.5155  0.9739  2.2474
17981TIP3   OH275433   2.706   6.688   1.213 -0.4299  0.0783 -0.0400
17981TIP3    H175434   2.719   6.721   1.123  0.8845  1.0285  0.4670
17981TIP3    H275435   2.729   6.762   1.269 -2.8560  0.0618  1.1021
17982TIP3   OH275436   2.916   1.918  10.571  0.0794  0.2640 -0.3018
17982TIP3    H175437   2.887   1.999  10.613  1.3624  0.0089  1.1606
17982TIP3    H275438   2.888   1.849  10.632 -0.5696 -0.3648 -1.2936
17983TIP3   OH275439   0.622   0.639  12.626  0.1995  0.5330 -0.0790
17983TIP3    H175440   0.625   0.735  12.620  1.3571  0.5619  0.5791
17983TIP3    H275441   0.632   0.620  12.719  1.6840 -0.2509 -0.3651
17984TIP3   OH275442   3.213   0.488  11.916 -0.1997 -0.2419  0.1579
17984TIP3    H175443   3.143   0.485  11.982 -0.4708  0.5011 -0.0893
17984TIP3    H275444   3.180   0.548  11.849 -0.4765 -1.9535 -1.3000
17985TIP3   OH275445   5.323   6.242   4.460 -0.3440  0.5735 -0.1643
17985TIP3    H175446   5.297   6.331   4.482 -2.2222 -0.2004  0.9582
17985TIP3    H275447   5.419   6.243   4.467 -0.4101  2.1527  1.2350
17986TIP3   OH275448   2.644   3.127  15.539 -0.1558 -0.5886 -0.0495
17986TIP3    H175449   2.630   3.136  15.633  1.2238 -0.7022  0.1873
17986TIP3    H275450   2.576   3.181  15.499  1.3226  2.3793  1.0944
17987TIP3   OH275451   4.990   2.755  12.360 -0.4403 -0.1635 -0.5360
17987TIP3    H175452   4.959   2.664  12.368  0.0963 -0.3157 -0.1361
17987TIP3    H275453   4.931   2.795  12.297 -1.2129 -0.5650 -0.0857
17988TIP3   OH275454   6.179   3.860  16.992 -0.1239  0.6885  0.0514
17988TIP3    H175455   6.159   3.857  17.086 -0.2661  0.7877  0.0247
17988TIP3    H275456   6.093   3.859  16.950 -0.0982 -2.6563 -0.1762
17989TIP3   OH275457   0.147   4.368   0.121  0.1465 -0.3286 -0.3448
17989TIP3    H175458   0.221   4.423   0.145  0.1122 -0.6651  0.5575
17989TIP3    H275459   0.179   4.278   0.130  0.5122 -0.5222 -2.7457
17990TIP3   OH275460   0.746   3.199  11.973 -0.1436 -0.1580  0.0267
17990TIP3    H175461   0.738   3.158  11.887 -0.6588  1.2666 -0.6394
17990TIP3    H275462   0.785   3.285  11.956 -0.1656  0.1201  1.2233
17991TIP3   OH275463   5.383   2.152   1.576 -0.4741  0.4406  0.2149
17991TIP3    H175464   5.350   2.221   1.634  0.3049  2.0136 -1.1361
17991TIP3    H275465   5.477   2.150   1.593 -0.3980  0.1827 -0.2338
17992TIP3   OH275466   2.257   0.595  14.821 -0.0051  0.3024 -0.2330
17992TIP3    H175467   2.345   0.633  14.816  0.1632 -0.1791 -1.1076
17992TIP3    H275468   2.241   0.560  14.734  0.8600 -3.8596  1.0520
17993TIP3   OH275469   2.978   2.069   4.996 -0.4512 -0.7312  0.2411
17993TIP3    H175470   2.888   2.099   4.982 -0.4216 -1.1537 -1.0253
17993TIP3    H275471   2.977   2.029   5.083 -0.9613  1.1234  1.1425
17994TIP3   OH275472   5.639   6.638   4.518 -0.0217  0.1746  0.3777
17994TIP3    H175473   5.691   6.696   4.463  0.8437 -0.8833  0.0538
17994TIP3    H275474   5.613   6.692   4.593  0.7480  0.9724  0.0760
17995TIP3   OH275475   3.743   3.419   1.209 -0.0875  0.0260 -0.2930
17995TIP3    H175476   3.825   3.457   1.241  0.6147 -1.4089 -0.3233
17995TIP3    H275477   3.728   3.344   1.265 -0.7046 -0.4690 -1.0983
17996TIP3   OH275478   2.437   0.721   1.216  0.0092 -0.2613  0.1287
17996TIP3    H175479   2.473   0.776   1.285 -0.0593 -0.5351  0.3873
17996TIP3    H275480   2.384   0.655   1.263  0.5530 -0.8971 -0.1319
17997TIP3   OH275481   2.575   2.431   1.667  0.3249 -0.1832 -0.6503
17997TIP3    H175482   2.595   2.523   1.649  0.0598 -0.3024 -1.5975
17997TIP3    H275483   2.604   2.418   1.758  0.0817  0.9071 -0.3963
17998TIP3   OH275484   5.903   4.818   3.955 -0.4146  0.1037  0.4551
17998TIP3    H175485   5.955   4.893   3.928 -1.4208  0.9866  0.9104
17998TIP3    H275486   5.964   4.744   3.953 -0.1651  0.1795 -3.4228
17999TIP3   OH275487   1.098   5.675   4.771  0.2252 -0.0903  0.1735
17999TIP3    H175488   1.008   5.650   4.791  0.4638  0.8276  2.7507
17999TIP3    H275489   1.090   5.759   4.726 -0.2259 -0.8967 -1.3353
18000TIP3   OH275490   4.330   6.167  14.656  0.1774 -0.2693  0.5559
18000TIP3    H175491   4.287   6.133  14.735  1.2593  0.4861  1.5100
18000TIP3    H275492   4.269   6.146  14.585 -1.7249  0.6252  1.8141
18001TIP3   OH275493   4.528   6.327   2.026 -0.9002  0.3783  0.2722
18001TIP3    H175494   4.536   6.285   1.940  0.0461 -1.7704  1.3457
18001TIP3    H275495   4.604   6.384   2.031 -0.8049  0.3025 -0.2081
18002TIP3   OH275496   5.594   4.381   4.377 -0.3600  0.2929  0.3985
18002TIP3    H175497   5.641   4.303   4.407  1.1411  1.8328  2.3624
18002TIP3    H275498   5.501   4.356   4.380  0.1316 -2.1775 -1.5770
18003TIP3   OH275499   3.335   4.814   0.744 -0.0324 -0.4416  0.1635
18003TIP3    H175500   3.342   4.740   0.684  1.0456 -0.6909  0.5818
18003TIP3    H275501   3.374   4.887   0.697 -1.0624 -0.1281 -0.2345
18004TIP3   OH275502   2.298   1.871   2.204 -0.6018 -0.1522  0.1548
18004TIP3    H175503   2.252   1.824   2.135 -0.9830  0.5039 -0.0509
18004TIP3    H275504   2.285   1.818   2.283 -1.3933 -0.1728  0.0200
18005TIP3   OH275505   2.254   1.723   5.140  0.0552  0.1256  0.1097
18005TIP3    H175506   2.194   1.670   5.088 -0.1031  0.9876 -0.6035
18005TIP3    H275507   2.231   1.702   5.231 -0.9741  0.0404 -0.1532
18006TIP3   OH275508   1.497   5.873  14.103  0.0398 -0.2081 -0.5815
18006TIP3    H175509   1.481   5.918  14.020 -0.3151 -2.1923 -1.6659
18006TIP3    H275510   1.412   5.835  14.127  0.3378 -0.3862  0.2261
18007TIP3   OH275511   5.051   4.444  15.350  0.0309  0.2425 -0.1673
18007TIP3    H175512   5.015   4.527  15.381  0.5484  0.8926 -1.2569
18007TIP3    H275513   5.041   4.448  15.254 -3.1282 -2.4022 -0.1510
18008TIP3   OH275514   4.541   1.956  13.367  0.9495 -0.4772 -0.1537
18008TIP3    H175515   4.519   1.888  13.431  0.3549 -1.4301 -1.3283
18008TIP3    H275516   4.561   1.907  13.287  0.5094  0.7489 -1.0302
18009TIP3   OH275517   3.798   5.776  11.703  0.7131 -0.0339 -0.0717
18009TIP3    H175518   3.775   5.869  11.694  0.2027 -0.3198 -2.0620
18009TIP3    H275519   3.801   5.743  11.614 -1.3686 -2.4961  0.6613
18010TIP3   OH275520   2.943   2.946  12.310 -0.4440  0.2046  0.7042
18010TIP3    H175521   2.999   2.961  12.234 -1.5256 -0.9206 -0.3739
18010TIP3    H275522   2.992   2.981  12.384  0.6853  1.2646 -0.4968
18011TIP3   OH275523   2.563   3.599  14.503 -0.3545  0.3279  0.1630
18011TIP3    H175524   2.529   3.524  14.552  0.3144 -0.6616 -0.8459
18011TIP3    H275525   2.575   3.667  14.569  2.2095 -1.5148  1.7919
18012TIP3   OH275526   4.164   4.858   5.664  0.6273 -0.0389  0.1579
18012TIP3    H175527   4.090   4.911   5.638  0.3738  0.4639  1.7817
18012TIP3    H275528   4.240   4.904   5.628  0.4870  1.9376  2.1569
18013TIP3   OH275529   4.649   4.969  15.616 -0.2836 -0.8224  0.4366
18013TIP3    H175530   4.631   4.897  15.555  2.4960 -0.1791 -1.3356
18013TIP3    H275531   4.686   5.038  15.562 -1.7437  1.5671  2.2695
18014TIP3   OH275532   5.623   5.622   2.489 -0.0034  0.0512 -0.0373
18014TIP3    H175533   5.706   5.637   2.533  0.2180 -0.9197 -0.1078
18014TIP3    H275534   5.622   5.687   2.418  0.3753  0.5250  0.3814
18015TIP3   OH275535   0.268   5.590  10.637 -0.0132 -0.0624  0.4578
18015TIP3    H175536   0.360   5.587  10.663  0.3678 -0.4292 -0.8916
18015TIP3    H275537   0.239   5.499  10.642  0.0371 -0.1234 -0.2661
18016TIP3   OH275538   0.914   2.646  11.716  0.1470  0.2723  0.3576
18016TIP3    H175539   0.829   2.690  11.712  0.5472  0.9452 -1.4089
18016TIP3    H275540   0.976   2.716  11.736  0.3881 -0.1068  0.9712
18017TIP3   OH275541   5.498   2.538  12.685 -0.2000 -0.6966 -0.1943
18017TIP3    H175542   5.514   2.521  12.592  3.1647 -0.0301  0.1541
18017TIP3    H275543   5.585   2.551  12.723 -1.2174 -3.0290  3.4993
18018TIP3   OH275544   1.824   4.621  13.472  0.4249  0.3483 -0.0411
18018TIP3    H175545   1.764   4.607  13.545  0.2130  1.7059  0.0642
18018TIP3    H275546   1.904   4.654  13.512  1.0449 -0.8669 -0.2417
18019TIP3   OH275547   3.044   1.872  11.857  0.3275 -0.1191  0.8896
18019TIP3    H175548   3.011   1.888  11.945 -0.3740  1.1412  0.4175
18019TIP3    H275549   2.997   1.934  11.802 -0.3049 -1.8228 -0.6017
18020TIP3   OH275550   4.621   5.213  14.044  0.0199  0.0176  0.3168
18020TIP3    H175551   4.662   5.274  13.983  0.7976  1.3001  2.0397
18020TIP3    H275552   4.694   5.177  14.094 -0.6321 -0.6378  0.8187
18021TIP3   OH275553   2.345   2.534   3.918 -0.0656  0.2315  0.4642
18021TIP3    H175554   2.353   2.446   3.953  0.6308  0.4915  0.9947
18021TIP3    H275555   2.433   2.555   3.885 -0.7146 -0.0550 -1.6022
18022TIP3   OH275556   1.574   2.853  13.170  0.1513  0.0531  0.3167
18022TIP3    H175557   1.528   2.769  13.173  0.5582 -0.1429  1.6170
18022TIP3    H275558   1.525   2.906  13.107 -1.1126 -0.5684  0.7612
18023TIP3   OH275559   3.539   1.137   3.556  1.1113  0.1879 -0.5815
18023TIP3    H175560   3.564   1.202   3.490 -0.5722 -0.9688 -2.4751
18023TIP3    H275561   3.590   1.060   3.533 -0.2384 -0.5456 -1.2415
18024TIP3   OH275562   6.438   4.047   2.547 -0.1391  0.3093  1.0002
18024TIP3    H175563   6.527   4.014   2.554  0.4334  0.8344 -2.1814
18024TIP3    H275564   6.384   3.979   2.588  1.3616 -2.5083 -1.3149
18025TIP3   OH275565   2.492   0.691   0.817 -0.7251  0.3684  0.8675
18025TIP3    H175566   2.503   0.767   0.875 -1.0546  0.5819  0.6549
18025TIP3    H275567   2.554   0.626   0.850 -1.6358  0.1008  2.1200
18026TIP3   OH275568   0.039   5.281   3.092 -0.3630  0.1734 -0.1449
18026TIP3    H175569   0.090   5.200   3.093 -2.0356 -0.9332  0.2940
18026TIP3    H275570  -0.052   5.252   3.085 -1.0503  1.9984  0.5053
18027TIP3   OH275571   5.369   5.293  15.459 -0.3282 -0.1797 -0.2236
18027TIP3    H175572   5.414   5.350  15.521  1.3742 -1.4718 -0.2008
18027TIP3    H275573   5.417   5.211  15.462 -0.7093 -0.5685 -2.6295
18028TIP3   OH275574   6.749   0.371   4.541 -0.4198 -0.0543 -0.3402
18028TIP3    H175575   6.777   0.281   4.527  1.3131  0.3967 -0.0394
18028TIP3    H275576   6.722   0.373   4.633  0.5603 -0.0532 -0.0349
18029TIP3   OH275577   1.841   1.837  11.482 -0.0102  0.8496 -0.0527
18029TIP3    H175578   1.797   1.830  11.398 -0.2343 -0.6734  0.1683
18029TIP3    H275579   1.906   1.768  11.482  2.4015  2.9824 -0.3207
18030TIP3   OH275580   6.000   2.839   2.920 -0.4066 -0.3705  0.3254
18030TIP3    H175581   6.033   2.919   2.962  2.9168 -0.1587 -2.2438
18030TIP3    H275582   6.019   2.770   2.984  0.7067  0.4083  0.8837
18031TIP3   OH275583   5.874   2.158   5.272 -0.0936 -0.4677 -0.3544
18031TIP3    H175584   5.781   2.149   5.255 -0.4409 -1.2416  1.6582
18031TIP3    H275585   5.899   2.074   5.312  1.0139  0.4028  0.8701
18032TIP3   OH275586   0.201   0.331  13.979 -0.0070  0.0624 -0.0261
18032TIP3    H175587   0.222   0.239  13.965 -3.1020 -0.4536 -2.5438
18032TIP3    H275588   0.271   0.379  13.937  1.8104 -1.0363  1.5726
18033TIP3   OH275589   5.775   3.248   5.919 -0.5766 -0.5164 -0.1783
18033TIP3    H175590   5.694   3.209   5.887 -0.7549  0.0735 -0.4714
18033TIP3    H275591   5.751   3.289   6.002 -0.2412 -1.5696  0.4554
18034TIP3   OH275592   1.363   4.634  13.860  0.1828 -0.1558  0.0854
18034TIP3    H175593   1.442   4.683  13.882  0.0217 -0.5269  1.6868
18034TIP3    H275594   1.346   4.654  13.769  2.1159 -0.0624 -0.2994
18035TIP3   OH275595   0.953   3.400   4.753  0.5826 -0.1353  0.0044
18035TIP3    H175596   0.991   3.345   4.684 -0.3312  0.1401 -0.7346
18035TIP3    H275597   1.002   3.482   4.747 -0.4400  0.4096 -1.2971
18036TIP3   OH275598   4.886   6.401  14.357  0.2395  0.1110 -0.5861
18036TIP3    H175599   4.848   6.443  14.433  1.4571 -0.4928  0.3881
18036TIP3    H275600   4.812   6.387  14.298 -1.0612 -0.9239  1.1846
18037TIP3   OH275601   6.085   3.282  11.924 -0.7876  0.1642 -0.4547
18037TIP3    H175602   6.058   3.363  11.881 -0.8415  1.5491  2.0208
18037TIP3    H275603   6.170   3.301  11.961 -0.9270 -0.8193  0.4196
18038TIP3   OH275604   4.354   4.083  14.773 -0.1929  0.3099  0.0050
18038TIP3    H175605   4.277   4.038  14.807  0.8951  0.4743  3.0086
18038TIP3    H275606   4.409   4.013  14.738 -1.2282  0.0876 -1.2435
18039TIP3   OH275607   5.919   4.563   4.392 -0.1015  0.0858 -0.1011
18039TIP3    H175608   5.836   4.553   4.440 -1.7781  0.4011 -2.7429
18039TIP3    H275609   5.980   4.597   4.458 -1.1970 -2.7801  2.6854
18040TIP3   OH275610   4.090   4.240   0.766  0.2466 -0.3877  0.3405
18040TIP3    H175611   4.180   4.249   0.735  0.2136 -0.6251  0.1777
18040TIP3    H275612   4.059   4.330   0.777  0.2417 -0.3005 -0.3705
18041TIP3   OH275613   1.220   6.444   5.032  0.1905  0.1110 -0.6357
18041TIP3    H175614   1.152   6.403   4.977 -1.0900  0.6822  0.4650
18041TIP3    H275615   1.209   6.402   5.118  1.0567  0.4129 -0.3722
18042TIP3   OH275616   0.300   4.652  13.607 -0.2387 -0.3145  0.0821
18042TIP3    H175617   0.273   4.675  13.518  2.1550  2.1454 -0.1308
18042TIP3    H275618   0.369   4.586  13.595 -0.6905 -0.8158  0.2002
18043TIP3   OH275619   2.347   6.031  11.448 -0.4089 -0.4172  0.2593
18043TIP3    H175620   2.268   6.074  11.416 -0.2803 -0.3985 -0.0358
18043TIP3    H275621   2.316   5.953  11.493 -0.5727 -0.5934 -0.1596
18044TIP3   OH275622   6.738   4.065   5.236  0.6403  0.5480 -0.0994
18044TIP3    H175623   6.694   4.108   5.309 -0.1888 -2.0044  1.0564
18044TIP3    H275624   6.783   3.990   5.276  3.2828  1.1191 -1.7313
18045TIP3   OH275625   0.354   2.409   2.159  0.6273 -0.6045 -0.1743
18045TIP3    H175626   0.345   2.379   2.249  1.3067 -0.6542 -0.1242
18045TIP3    H275627   0.393   2.496   2.165 -0.7592  0.0599 -0.3515
18046TIP3   OH275628   5.215   5.850   4.798 -0.0894 -0.6482 -0.0945
18046TIP3    H175629   5.257   5.916   4.744 -1.1012 -0.6000 -0.8522
18046TIP3    H275630   5.177   5.788   4.736 -0.9648 -0.7881  0.5519
18047TIP3   OH275631   0.994   5.385  11.490 -0.5320  0.0939  0.1179
18047TIP3    H175632   1.066   5.421  11.438 -1.5455  2.9565  0.5377
18047TIP3    H275633   1.003   5.290  11.480  1.2199  0.4290 -2.6504
18048TIP3   OH275634   0.369   6.446  13.958  0.6179 -0.6697 -0.1274
18048TIP3    H175635   0.274   6.444  13.949  0.7621 -1.4622 -1.9269
18048TIP3    H275636   0.402   6.428  13.870  2.4520  0.5675  0.2536
18049TIP3   OH275637   1.418   3.881   2.314 -0.7329 -0.1056  0.1624
18049TIP3    H175638   1.474   3.917   2.245 -0.9061 -2.1165 -1.0872
18049TIP3    H275639   1.480   3.847   2.379 -0.5612  0.2799  0.2074
18050TIP3   OH275640   0.814   1.401  14.993  0.1500 -0.6136  0.5305
18050TIP3    H175641   0.866   1.410  15.073 -2.3118 -0.4395  2.2001
18050TIP3    H275642   0.724   1.420  15.019 -0.9105 -1.4764 -2.0913
18051TIP3   OH275643   3.041   0.779   5.826 -0.1421  0.5204  0.0666
18051TIP3    H175644   2.947   0.797   5.827 -1.0377 -3.2404  1.8038
18051TIP3    H275645   3.071   0.803   5.914  0.5023  1.3975 -0.3748
18052TIP3   OH275646   2.747   3.697   0.135 -0.3994 -0.5924  0.6189
18052TIP3    H175647   2.780   3.614   0.169  0.7592 -0.3726  0.0685
18052TIP3    H275648   2.821   3.757   0.142 -1.5316  0.7127  2.0387
18053TIP3   OH275649   5.377   4.807  12.460 -0.0799 -0.0741 -0.0983
18053TIP3    H175650   5.379   4.878  12.395 -2.9346 -0.0739 -0.3004
18053TIP3    H275651   5.318   4.839  12.528 -1.4770 -2.2226 -0.2184
18054TIP3   OH275652   1.569   1.065   0.947 -0.0395  0.0398 -0.0741
18054TIP3    H175653   1.603   1.037   1.032  0.8111  3.0675  0.6780
18054TIP3    H275654   1.625   1.020   0.883  0.2056 -1.1967  0.9725
18055TIP3   OH275655   6.587   1.685   1.339 -0.3649  0.7620  0.0835
18055TIP3    H175656   6.548   1.650   1.418 -1.4030  0.8883 -0.3553
18055TIP3    H275657   6.527   1.660   1.269  0.1084  1.3525 -0.5551
18056TIP3   OH275658   3.367   5.880  15.134  0.1904  0.1473  0.6175
18056TIP3    H175659   3.345   5.967  15.101  0.6581  0.4172  0.9971
18056TIP3    H275660   3.365   5.890  15.230  0.0768 -0.3031  0.6648
18057TIP3   OH275661   1.691   5.163   1.155  0.1828 -0.4312  0.6386
18057TIP3    H175662   1.631   5.206   1.216  0.2163 -0.7184  0.8749
18057TIP3    H275663   1.650   5.173   1.069  1.2778  2.1046  0.3298
18058TIP3   OH275664   0.943   4.892   5.465 -0.1759 -0.3823  0.2406
18058TIP3    H175665   0.951   4.811   5.515  1.3095 -0.8975 -0.7846
18058TIP3    H275666   0.849   4.908   5.461 -0.4464 -1.5660  1.2149
18059TIP3   OH275667   3.433   5.798  12.420  0.4046  0.1657 -0.1590
18059TIP3    H175668   3.480   5.835  12.345 -2.2836  0.3272 -1.8765
18059TIP3    H275669   3.416   5.873  12.477  0.1366  0.5139 -0.6959
18060TIP3   OH275670   3.837   2.124   1.167  0.4318  0.0944  0.5228
18060TIP3    H175671   3.743   2.120   1.182  0.4528  1.3532  1.1376
18060TIP3    H275672   3.876   2.105   1.252  0.8598 -3.3415 -0.3016
18061TIP3   OH275673   6.220   1.941  15.309  0.8028 -0.2345  0.2429
18061TIP3    H175674   6.161   1.867  15.325  1.9895 -1.2624  0.0492
18061TIP3    H275675   6.201   2.002  15.380  2.0060 -2.1671  2.3945
18062TIP3   OH275676   5.927   6.212  15.768 -0.0168 -0.2558  0.5995
18062TIP3    H175677   5.905   6.155  15.842 -0.7561 -1.3011 -0.3728
18062TIP3    H275678   5.918   6.155  15.691  0.8686  0.7546 -0.2884
18063TIP3   OH275679   3.518   1.442  11.192 -0.1826 -0.5466  0.4685
18063TIP3    H175680   3.463   1.435  11.269 -1.8990  0.1936 -0.6364
18063TIP3    H275681   3.460   1.473  11.123  1.6010  0.1778 -0.7988
18064TIP3   OH275682   6.583   0.985  14.877 -0.1331 -0.2454 -0.2086
18064TIP3    H175683   6.546   1.073  14.872  1.0091  0.1775 -2.0262
18064TIP3    H275684   6.673   0.998  14.905 -0.4477 -1.0147  1.2452
18065TIP3   OH275685   4.894   5.494  15.856 -0.3984  0.0605 -0.3518
18065TIP3    H175686   4.897   5.529  15.767 -0.7357  2.0280  0.3705
18065TIP3    H275687   4.805   5.513  15.886 -0.2362 -0.4325  0.4588
18066TIP3   OH275688   5.400   1.379   5.515  0.6438 -0.1078 -0.1270
18066TIP3    H175689   5.460   1.321   5.469  0.6882  1.0181 -1.5361
18066TIP3    H275690   5.456   1.440   5.563  0.6445  0.3453 -0.6858
18067TIP3   OH275691   2.555   5.948   5.084 -0.1342 -0.1947  0.0144
18067TIP3    H175692   2.607   6.015   5.127 -1.1167  0.3449  0.3777
18067TIP3    H275693   2.618   5.880   5.061  0.6349  0.1659  0.9955
18068TIP3   OH275694   0.101   3.548   4.089 -0.3702 -0.3513  0.1539
18068TIP3    H175695   0.187   3.516   4.118 -0.1621 -0.3609 -0.4728
18068TIP3    H275696   0.119   3.593   4.007 -0.9633 -0.2992  0.0538
18069TIP3   OH275697   5.124   3.066   1.397  0.3478 -0.6162  0.3300
18069TIP3    H175698   5.067   3.143   1.406 -0.4470 -0.9684 -1.3196
18069TIP3    H275699   5.064   2.994   1.377  1.2917 -1.1563 -0.6299
18070TIP3   OH275700   3.356   0.466   4.238  0.2958 -0.4542  0.0062
18070TIP3    H175701   3.306   0.498   4.313  0.0961 -1.0229  0.1259
18070TIP3    H275702   3.305   0.391   4.206  0.8377 -0.7581 -0.1502
18071TIP3   OH275703   0.112   6.153  16.641  0.5017  0.4334  0.0312
18071TIP3    H175704   0.023   6.187  16.656 -0.4257 -1.0613 -1.7610
18071TIP3    H275705   0.101   6.084  16.575  3.2571  1.5484 -1.7696
18072TIP3   OH275706   1.940   6.738  15.079 -0.1209  0.1281 -0.8839
18072TIP3    H175707   2.030   6.766  15.066  0.0333  0.2466  0.3177
18072TIP3    H275708   1.894   6.816  15.109 -0.7806  0.2186 -2.0649
18073TIP3   OH275709   5.795   0.043   1.869  0.2032 -0.0714 -0.6425
18073TIP3    H175710   5.773  -0.002   1.951  0.1040 -2.1769 -1.7445
18073TIP3    H275711   5.717   0.095   1.849 -1.0264 -1.8925 -0.8818
18074TIP3   OH275712   2.695   4.180   5.448 -0.2653  0.0727  0.0414
18074TIP3    H175713   2.711   4.142   5.361  2.5078 -0.9401  0.8682
18074TIP3    H275714   2.712   4.273   5.437 -0.8459  0.1074 -0.6717
18075TIP3   OH275715   6.752   4.351  11.007 -0.7922 -0.0876  0.2234
18075TIP3    H175716   6.669   4.351  10.961 -0.1271 -0.8182 -1.0214
18075TIP3    H275717   6.813   4.396  10.948 -0.3018  0.4987  1.1422
18076TIP3   OH275718   0.800   5.716   1.905 -0.3413 -0.3051  0.0718
18076TIP3    H175719   0.807   5.812   1.904  0.5523 -0.2953  2.0275
18076TIP3    H275720   0.823   5.692   1.995 -0.6087 -2.3670 -0.3721
18077TIP3   OH275721   2.237   3.887  14.531  0.0886 -0.4201  0.2984
18077TIP3    H175722   2.150   3.849  14.519  0.3267 -1.1807  0.9025
18077TIP3    H275723   2.276   3.835  14.601  1.6161 -1.1482 -1.0234
18078TIP3   OH275724   5.443   6.308   4.117  0.1611 -0.5432 -0.3108
18078TIP3    H175725   5.475   6.379   4.172 -0.9267 -0.4229  0.1882
18078TIP3    H275726   5.412   6.241   4.178 -1.6882 -0.1238 -0.7204
18079TIP3   OH275727   4.492   0.130  11.217  0.2927 -0.2960 -0.1073
18079TIP3    H175728   4.471   0.068  11.147 -1.3314 -0.6210  0.6178
18079TIP3    H275729   4.563   0.089  11.265  0.4339 -0.7519 -0.6975
18080TIP3   OH275730   1.135   3.111  16.333  0.2576  0.7521 -0.1395
18080TIP3    H175731   1.076   3.041  16.307 -1.0621  1.7580  0.0351
18080TIP3    H275732   1.206   3.066  16.380 -1.0213 -0.3995  0.8003
18081TIP3   OH275733   5.426   4.874   6.180 -0.1787 -0.1143 -0.3260
18081TIP3    H175734   5.478   4.828   6.115  0.0598  0.7556 -0.7693
18081TIP3    H275735   5.388   4.805   6.235  1.5131 -0.7742  0.0720
18082TIP3   OH275736   4.447   2.483  14.834 -0.3038 -0.6403  0.6774
18082TIP3    H175737   4.505   2.525  14.771 -0.7977  0.6281  1.0430
18082TIP3    H275738   4.506   2.428  14.887  0.2826 -0.7762 -0.1009
18083TIP3   OH275739   3.029   3.030  11.542 -0.9577 -0.0716  0.6250
18083TIP3    H175740   2.973   3.085  11.488 -1.4857 -1.6659 -0.5371
18083TIP3    H275741   2.995   3.040  11.631  0.3195  3.0771  0.8794
18084TIP3   OH275742   3.785   1.337  13.381  0.0871 -0.4898  0.1955
18084TIP3    H175743   3.706   1.293  13.411 -0.7898  2.1159  1.9925
18084TIP3    H275744   3.757   1.385  13.303  0.6973 -1.8706 -0.9227
18085TIP3   OH275745   5.190   0.500   5.635  0.5949 -0.0989  0.2417
18085TIP3    H175746   5.238   0.427   5.674  0.8546 -0.1489 -0.1679
18085TIP3    H275747   5.248   0.576   5.646 -0.6466  0.5717  2.7985
18086TIP3   OH275748   2.156   5.205  11.575 -0.4067 -0.2110  0.2273
18086TIP3    H175749   2.063   5.226  11.564 -0.4524 -0.3452  0.3675
18086TIP3    H275750   2.182   5.248  11.656  0.2282  1.7998 -0.9602
18087TIP3   OH275751   4.272   3.020  12.363 -0.4462  0.5289 -0.1714
18087TIP3    H175752   4.247   2.932  12.391 -0.2668  0.4633 -0.2180
18087TIP3    H275753   4.367   3.015  12.349 -0.4773  0.6578 -0.4354
18088TIP3   OH275754   0.177   2.658   4.723 -0.2872  0.2777  0.4878
18088TIP3    H175755   0.229   2.728   4.761  1.4381 -0.7401  0.1189
18088TIP3    H275756   0.240   2.605   4.674 -0.9110 -3.2648  3.1614
18089TIP3   OH275757   0.092   0.723   2.534 -0.1596  0.1577 -0.1584
18089TIP3    H175758   0.025   0.707   2.600  0.2472  0.2295  0.2750
18089TIP3    H275759   0.046   0.716   2.451 -0.5354 -0.6020  0.1073
18090TIP3   OH275760   5.451   4.863  15.611 -0.2037  0.4811 -0.4018
18090TIP3    H175761   5.417   4.774  15.602 -1.9373  1.2449 -1.7811
18090TIP3    H275762   5.392   4.917  15.559  1.5085  2.2909 -0.5748
18091TIP3   OH275763   5.853   1.481  12.590 -0.0984 -0.0907 -0.2160
18091TIP3    H175764   5.920   1.419  12.618  1.2389  0.9678 -0.9180
18091TIP3    H275765   5.829   1.453  12.502  2.4414  1.7408 -1.6631
18092TIP3   OH275766   4.795   1.276   0.545  0.3616  0.3477 -0.5940
18092TIP3    H175767   4.815   1.187   0.572 -1.3032 -0.9063 -3.0890
18092TIP3    H275768   4.742   1.312   0.616  0.7129 -0.7914  0.2707
18093TIP3   OH275769   6.131   1.452   2.702 -0.2394 -0.4495 -0.3410
18093TIP3    H175770   6.063   1.395   2.736  0.1287 -1.2766 -0.9568
18093TIP3    H275771   6.112   1.459   2.609 -1.6609  2.3762  0.0725
18094TIP3   OH275772   2.767   4.929  13.450 -0.0628 -0.4359  0.5278
18094TIP3    H175773   2.784   5.008  13.501 -1.3267  0.8760 -0.9774
18094TIP3    H275774   2.852   4.906  13.412 -0.1189  1.8566 -1.2126
18095TIP3   OH275775   2.872   3.241  12.079  0.4211 -0.0206 -0.3298
18095TIP3    H175776   2.823   3.324  12.078  0.7263  0.1613 -0.5599
18095TIP3    H275777   2.834   3.191  12.151  0.1867  0.2944 -0.2325
18096TIP3   OH275778   3.935   0.274   0.419  0.3677 -0.4311 -0.5902
18096TIP3    H175779   3.858   0.313   0.461 -0.6893 -1.8443 -1.1539
18096TIP3    H275780   3.987   0.239   0.492  0.0738 -0.2027 -0.2663
18097TIP3   OH275781   6.623   3.431   0.860  0.0406 -0.3745 -0.8626
18097TIP3    H175782   6.539   3.433   0.815 -1.1588  0.4511  1.2605
18097TIP3    H275783   6.628   3.343   0.897 -0.1508 -0.2673 -0.5732
18098TIP3   OH275784   0.724   1.969   0.558  0.6019  0.1578 -0.1324
18098TIP3    H175785   0.681   1.996   0.639  1.5207  0.2321  0.3440
18098TIP3    H275786   0.786   1.901   0.585  1.7830  1.0276 -0.5626
18099TIP3   OH275787   0.548   3.878   5.441  0.0300 -0.1516 -0.3381
18099TIP3    H175788   0.519   3.904   5.354 -0.7047  2.4328  0.5803
18099TIP3    H275789   0.635   3.917   5.450  1.1497 -2.3928 -0.6986
18100TIP3   OH275790   1.734   1.834   5.605  0.1104  0.0507 -0.0116
18100TIP3    H175791   1.809   1.865   5.554  0.2782  0.3946  0.4432
18100TIP3    H275792   1.663   1.892   5.580  0.2212  0.2908  0.2291
18101TIP3   OH275793   4.788   3.848  12.670  0.3208  0.1196  0.0950
18101TIP3    H175794   4.870   3.821  12.710 -0.6477 -1.7484  0.9914
18101TIP3    H275795   4.724   3.784  12.702 -1.2221  0.7114 -1.6218
18102TIP3   OH275796   5.713   0.481   5.532 -0.3139 -0.6066 -0.0836
18102TIP3    H175797   5.766   0.424   5.587 -1.2081 -0.7094  0.6891
18102TIP3    H275798   5.664   0.421   5.475 -0.3440 -0.5571 -0.1106
18103TIP3   OH275799   0.077   1.644  12.615 -0.2222  0.1423 -0.7239
18103TIP3    H175800   0.109   1.569  12.564 -2.2809 -0.2239 -1.5803
18103TIP3    H275801  -0.001   1.611  12.660  1.4648  0.4745  2.7459
18104TIP3   OH275802   1.936   5.602   3.880 -0.1442  0.0309  0.0173
18104TIP3    H175803   1.939   5.597   3.785  0.6431 -0.9668  0.0808
18104TIP3    H275804   1.995   5.533   3.910  0.2153  0.8339  1.2233
18105TIP3   OH275805   3.034   0.986  16.534  0.5839 -0.3427  0.1358
18105TIP3    H175806   3.122   1.007  16.503  0.0568  1.6372 -0.1527
18105TIP3    H275807   2.994   0.938  16.461 -0.1804  3.0856 -1.9599
18106TIP3   OH275808   0.193   5.484   5.065  0.9013 -0.3308 -0.1281
18106TIP3    H175809   0.131   5.435   5.119 -1.0489  1.5676 -0.5271
18106TIP3    H275810   0.279   5.458   5.098 -0.0776 -2.6212  0.8429
18107TIP3   OH275811   0.448   2.799   1.911  0.3613  0.4404 -0.1924
18107TIP3    H175812   0.374   2.814   1.971  1.5254  1.7605  0.9739
18107TIP3    H275813   0.443   2.871   1.848  0.7715  0.6609  0.0235
18108TIP3   OH275814   6.593   3.196  14.339 -0.2910 -0.2217  0.1252
18108TIP3    H175815   6.685   3.175  14.354 -0.0081  1.2128  0.5673
18108TIP3    H275816   6.572   3.152  14.256  0.5255 -1.2840  0.4601
18109TIP3   OH275817   2.022   0.026   0.708  0.2968  0.2535 -0.2199
18109TIP3    H175818   1.928   0.037   0.718  0.1444  0.5274 -1.7340
18109TIP3    H275819   2.031  -0.056   0.659  0.8900 -0.1964  0.6237
18110TIP3   OH275820   2.333   4.323   1.775  0.5825 -0.2306  0.4702
18110TIP3    H175821   2.250   4.355   1.738  1.5529  3.3182  0.9108
18110TIP3    H275822   2.381   4.403   1.796  4.8137 -2.0637 -1.1681
18111TIP3   OH275823   6.141   0.110  12.366 -0.4936 -0.1449  0.7713
18111TIP3    H175824   6.161   0.105  12.459  0.2547 -0.3403  0.6029
18111TIP3    H275825   6.193   0.183  12.333 -0.7179 -0.1048  0.4935
18112TIP3   OH275826   6.718   4.956   1.927 -0.8646 -0.1588  0.3038
18112TIP3    H175827   6.721   5.035   1.873 -1.0822  0.3391  0.9914
18112TIP3    H275828   6.806   4.949   1.964 -1.2564  0.6803  1.4792
18113TIP3   OH275829   0.958   0.528  14.663  0.4646 -1.0473  0.2649
18113TIP3    H175830   0.881   0.498  14.615 -0.3663 -0.1728  1.0112
18113TIP3    H275831   0.952   0.623  14.662  1.5754 -0.9588  0.2914
18114TIP3   OH275832   2.422   0.857   4.495  0.7316 -0.5583 -0.1762
18114TIP3    H175833   2.359   0.804   4.543 -0.3573  0.9228  0.0650
18114TIP3    H275834   2.382   0.943   4.488  2.5350  0.3069 -0.4156
18115TIP3   OH275835   1.880   2.809   4.114  0.1929  0.9824  0.1278
18115TIP3    H175836   1.959   2.787   4.064  0.0184 -0.8395  0.5976
18115TIP3    H275837   1.911   2.869   4.181  0.3283  4.0053 -2.4174
18116TIP3   OH275838   6.446   6.336  10.116  0.5274  0.5044  1.0150
18116TIP3    H175839   6.512   6.383  10.065 -0.0046 -0.4365 -0.6342
18116TIP3    H275840   6.496   6.273  10.167  0.9315 -0.5289 -0.5786
18117TIP3   OH275841   4.084   4.484  14.242 -0.3459  0.2806  0.0499
18117TIP3    H175842   4.085   4.508  14.334 -0.4137  0.6648 -0.0509
18117TIP3    H275843   4.075   4.388  14.243 -0.2555  0.2736  0.4399
18118TIP3   OH275844   1.156   5.136   1.219 -0.2179  0.1766 -0.5898
18118TIP3    H175845   1.122   5.085   1.293  0.4294 -0.7256 -0.8953
18118TIP3    H275846   1.078   5.162   1.170 -0.5781 -0.2213 -0.2350
18119TIP3   OH275847   6.013   3.731  14.820  0.0650  0.1110 -0.0547
18119TIP3    H175848   5.950   3.659  14.826 -0.2507  0.3271 -0.7633
18119TIP3    H275849   5.961   3.808  14.798  0.7573 -0.0363 -2.4195
18120TIP3   OH275850   5.148   0.112  17.140 -0.0085 -0.0293  0.2803
18120TIP3    H175851   5.212   0.182  17.129 -0.6555  0.2894 -1.9411
18120TIP3    H275852   5.130   0.082  17.051 -1.6561 -1.2853  0.9896
18121TIP3   OH275853   1.789   2.280   3.304  0.7401  0.4605 -0.1433
18121TIP3    H175854   1.793   2.306   3.396 -2.3211  0.6158  0.0766
18121TIP3    H275855   1.786   2.185   3.306 -2.2591  0.4497  0.2936
18122TIP3   OH275856   0.363   1.710   5.393  0.0322  0.8906 -0.3956
18122TIP3    H175857   0.424   1.642   5.363 -0.3419 -0.7342  2.2614
18122TIP3    H275858   0.404   1.748   5.470 -1.5067  1.0034  0.4116
18123TIP3   OH275859   1.673   0.751  11.173  0.0663 -0.5411  0.5813
18123TIP3    H175860   1.579   0.749  11.156  0.4147 -1.3698 -1.7340
18123TIP3    H275861   1.694   0.844  11.182 -0.8066 -0.2459 -0.2186
18124TIP3   OH275862   3.537   0.582  16.315  0.4966  0.2749  0.3604
18124TIP3    H175863   3.577   0.595  16.401 -0.6120 -1.8217  1.2419
18124TIP3    H275864   3.444   0.601  16.328  0.8318  4.6766 -1.5777
18125TIP3   OH275865   5.418   0.071  10.928  0.0316 -0.0437  0.1811
18125TIP3    H175866   5.469   0.151  10.912 -2.3450  2.4272  3.5930
18125TIP3    H275867   5.336   0.086  10.882 -0.5713 -0.3336  1.1387
18126TIP3   OH275868   4.261   5.164  12.451  0.4514  0.3333 -0.2563
18126TIP3    H175869   4.250   5.070  12.440 -0.0648  0.2798  0.5568
18126TIP3    H275870   4.217   5.203  12.375  1.8998 -0.0960 -1.3499
18127TIP3   OH275871   0.515   1.661  10.717  0.0084  0.6621 -0.6511
18127TIP3    H175872   0.543   1.736  10.770 -2.0009  0.9357  0.1140
18127TIP3    H275873   0.472   1.602  10.780 -0.0995 -0.2545 -1.5564
18128TIP3   OH275874   1.240   6.403   1.556 -0.2812 -0.5841 -0.4792
18128TIP3    H175875   1.230   6.366   1.643  0.5189  0.7373  0.2084
18128TIP3    H275876   1.256   6.328   1.499  1.9903 -1.2628  0.9419
18129TIP3   OH275877   0.249   4.726  16.844  0.1974 -0.1656 -0.3398
18129TIP3    H175878   0.231   4.637  16.874 -2.2272  0.8539  1.5958
18129TIP3    H275879   0.198   4.782  16.902  2.6128  2.6214 -0.6677
18130TIP3   OH275880   4.857   0.822   0.081 -0.7544  0.4452  0.3284
18130TIP3    H175881   4.836   0.769   0.157  1.2353  1.6436  1.8047
18130TIP3    H275882   4.900   0.762   0.020 -0.7772 -0.1539  0.8942
18131TIP3   OH275883   4.475   2.151   0.668 -0.1208 -0.3502  0.6248
18131TIP3    H175884   4.526   2.162   0.748 -1.2858 -0.2247  1.3766
18131TIP3    H275885   4.538   2.161   0.597  0.9710 -0.6727  1.5314
18132TIP3   OH275886   6.109   0.368   1.617  0.1880  0.4986 -0.6047
18132TIP3    H175887   6.030   0.380   1.670  1.1413  1.4390  0.6907
18132TIP3    H275888   6.129   0.275   1.625  0.8443  0.7592  1.5812
18133TIP3   OH275889   2.997   6.373  12.734 -1.0202  0.2373 -0.3141
18133TIP3    H175890   2.961   6.456  12.703 -1.1298  0.3248  0.0456
18133TIP3    H275891   2.992   6.378  12.829 -1.4202 -0.3567 -0.2992
18134TIP3   OH275892   1.522   0.766  12.075  0.1088 -0.2124 -0.3570
18134TIP3    H175893   1.433   0.730  12.082  0.3738 -0.8900 -0.3671
18134TIP3    H275894   1.579   0.692  12.097  0.6611  0.3271  0.0600
18135TIP3   OH275895   5.606   5.864  15.728 -0.4345 -0.2741 -0.5912
18135TIP3    H175896   5.527   5.915  15.709  0.4861  2.0823  1.3863
18135TIP3    H275897   5.677   5.912  15.685  0.5902  0.8011  2.0846
18136TIP3   OH275898   6.657   5.392  17.277  0.2450 -0.0395  0.0105
18136TIP3    H175899   6.697   5.466  17.230 -0.4016 -0.2080 -0.8301
18136TIP3    H275900   6.680   5.316  17.225  1.2402 -0.5150  1.0848
18137TIP3   OH275901   1.753   4.557  10.851 -0.6767 -0.2269 -0.0088
18137TIP3    H175902   1.658   4.563  10.840 -0.7657 -0.8474  0.4044
18137TIP3    H275903   1.767   4.475  10.898 -0.0502  0.6609  1.4051
18138TIP3   OH275904   3.491   6.557   5.080 -0.6288  0.7085 -0.0117
18138TIP3    H175905   3.584   6.537   5.072 -0.4453  1.7852 -0.7501
18138TIP3    H275906   3.474   6.553   5.174  0.2605  0.9208  0.1667
18139TIP3   OH275907   0.255   3.290  16.136  0.8292 -0.0336  0.5989
18139TIP3    H175908   0.264   3.363  16.075 -0.8416  0.5907  1.0690
18139TIP3    H275909   0.298   3.216  16.091  0.7094  0.7098 -0.7870
18140TIP3   OH275910   2.963   4.197   0.874 -0.0190  0.1616  0.2471
18140TIP3    H175911   3.053   4.227   0.884 -0.2123  0.3200  1.7944
18140TIP3    H275912   2.923   4.211   0.960 -1.1186 -1.2409  0.0166
18141TIP3   OH275913   5.313   5.689   0.927  0.0589  0.7791 -0.3410
18141TIP3    H175914   5.330   5.742   1.006 -2.7510  0.5211  0.5372
18141TIP3    H275915   5.218   5.676   0.927  0.4615 -3.4753 -1.0131
18142TIP3   OH275916   2.023   4.054   1.711  0.5711  0.1005 -0.2851
18142TIP3    H175917   1.973   3.976   1.735  1.6115  0.2363  2.8273
18142TIP3    H275918   1.980   4.125   1.759  1.9699  0.7124  0.1001
18143TIP3   OH275919   4.058   0.907   2.618  0.3379 -0.1455  0.5483
18143TIP3    H175920   4.045   0.813   2.613  0.9264 -0.1946 -0.0741
18143TIP3    H275921   3.993   0.944   2.558 -0.1310 -0.1240  1.0548
18144TIP3   OH275922   0.033   1.351  12.707  0.2237 -0.0995  0.1904
18144TIP3    H175923  -0.036   1.416  12.723  1.4980  1.4503 -0.3572
18144TIP3    H275924   0.069   1.332  12.793  0.2363  0.3998  0.3009
18145TIP3   OH275925   6.558   2.351   4.549  0.1299 -0.9912  0.4905
18145TIP3    H175926   6.653   2.360   4.547  0.0100  0.4074 -0.4526
18145TIP3    H275927   6.542   2.276   4.606  1.8173 -1.6414  0.1594
18146TIP3   OH275928   6.431   1.178  13.077  0.0678  0.1406  0.4082
18146TIP3    H175929   6.338   1.163  13.093  0.8064 -1.6459  3.9587
18146TIP3    H275930   6.457   1.243  13.142  1.5539 -0.3062  0.2907
18147TIP3   OH275931   4.055   4.839   1.192 -0.4033 -0.0087  0.1679
18147TIP3    H175932   4.060   4.749   1.224 -1.2784  0.1417  0.7666
18147TIP3    H275933   3.961   4.858   1.186 -0.2869  1.4246  1.7766
18148TIP3   OH275934   1.436   2.337   5.498  0.1768  0.2226  0.5492
18148TIP3    H175935   1.441   2.250   5.459  0.0116 -0.0358  1.0987
18148TIP3    H275936   1.358   2.334   5.554 -0.8017  1.2338 -0.6800
18149TIP3   OH275937   4.955   2.509   0.157 -0.3275 -0.1664  0.2405
18149TIP3    H175938   4.958   2.424   0.113 -3.1288 -2.6037  4.1145
18149TIP3    H275939   4.982   2.490   0.247 -1.2896  3.0096  1.3331
18150TIP3   OH275940   1.194   1.350  14.140 -0.6646  0.4374  0.3812
18150TIP3    H175941   1.159   1.269  14.177 -0.1875  0.5403  1.0762
18150TIP3    H275942   1.120   1.390  14.094 -0.2745 -1.6987 -2.3283
18151TIP3   OH275943   3.110   1.231  13.926  0.1552 -0.7659  0.2689
18151TIP3    H175944   3.152   1.265  13.846 -0.6217  0.6176  0.4139
18151TIP3    H275945   3.038   1.176  13.894  1.9824 -3.1733  0.0175
18152TIP3   OH275946   1.216   5.783  14.155  0.5057 -0.4391  0.4511
18152TIP3    H175947   1.161   5.848  14.199  0.9457  0.6529 -0.5810
18152TIP3    H275948   1.156   5.740  14.094  0.8316  1.0160 -0.9521
18153TIP3   OH275949   2.223   4.963  14.259 -0.1321  0.2042 -0.2352
18153TIP3    H175950   2.294   4.998  14.313  0.0325 -2.4293  1.4338
18153TIP3    H275951   2.265   4.940  14.176  0.7097 -0.1972  0.2921
18154TIP3   OH275952   5.325   2.078   5.876 -0.4332 -0.3176 -0.1857
18154TIP3    H175953   5.313   2.020   5.951 -1.0386  1.8320  1.4722
18154TIP3    H275954   5.406   2.125   5.896 -0.1874 -0.2654 -1.2717
18155TIP3   OH275955   4.531   3.300  16.121  0.8552 -0.2208  0.4537
18155TIP3    H175956   4.525   3.392  16.147 -0.4175 -0.1465 -0.0625
18155TIP3    H275957   4.442   3.276  16.097  1.2121 -1.5456  0.4073
18156TIP3   OH275958   5.491   2.535   1.181 -0.0840  0.0340  0.2830
18156TIP3    H175959   5.525   2.587   1.253 -2.2068  2.9797 -0.6441
18156TIP3    H275960   5.539   2.565   1.104 -0.1308 -0.6596 -0.0288
18157TIP3   OH275961   3.734   1.083   3.201  0.6751 -0.4074 -0.5719
18157TIP3    H175962   3.707   1.166   3.161 -0.5188 -0.9233 -0.9051
18157TIP3    H275963   3.651   1.038   3.218  1.2942 -1.3560 -0.0140
18158TIP3   OH275964   4.184   4.553   1.224  0.1499  0.2845  0.1679
18158TIP3    H175965   4.117   4.494   1.189  1.1205  0.3485 -1.8950
18158TIP3    H275966   4.227   4.502   1.293 -1.5494  0.0088  1.0813
18159TIP3   OH275967   3.242   5.964  14.184  0.0424  0.1322 -0.4595
18159TIP3    H175968   3.269   6.011  14.263 -2.7872  1.3958 -0.1095
18159TIP3    H275969   3.247   6.030  14.114 -2.7486  0.7387 -0.1998
18160TIP3   OH275970   2.319   1.701  13.414 -0.2432 -0.2949  0.4649
18160TIP3    H175971   2.255   1.669  13.478 -0.7900  0.7638  0.4760
18160TIP3    H275972   2.265   1.739  13.344  0.3606 -0.9106 -0.3480
18161TIP3   OH275973   1.535   4.070  11.949  0.7662  0.4956  0.0246
18161TIP3    H175974   1.467   4.038  11.890  0.0351  0.6603  0.7497
18161TIP3    H275975   1.529   4.012  12.025  1.3282  0.6159  0.1643
18162TIP3   OH275976   4.358   0.404   6.093  0.5098 -0.4370  0.0874
18162TIP3    H175977   4.440   0.378   6.050  0.6187  0.9840 -0.6246
18162TIP3    H275978   4.326   0.324   6.134  1.5894 -1.3205 -0.7289
18163TIP3   OH275979   0.436   2.130  16.070 -0.0359  0.0250  1.0824
18163TIP3    H175980   0.387   2.212  16.064 -1.8465 -1.0212  0.7212
18163TIP3    H275981   0.461   2.111  15.980  1.1464  0.6028  1.2789
18164TIP3   OH275982   6.309   4.058   2.079 -0.0149  0.1794 -0.0549
18164TIP3    H175983   6.272   4.146   2.071 -0.8411  0.0210  1.5098
18164TIP3    H275984   6.240   4.000   2.048  0.1232  0.0338 -0.0926
18165TIP3   OH275985   4.953   3.352   0.095  0.3701 -0.6136 -0.6684
18165TIP3    H175986   4.861   3.357   0.121  0.3560  0.1563 -0.8602
18165TIP3    H275987   5.000   3.335   0.176  0.2582  1.0398 -0.2251
18166TIP3   OH275988   5.486   3.174   0.098  0.0692 -0.0402 -0.0991
18166TIP3    H175989   5.521   3.263   0.106 -0.0112 -0.0813  0.6903
18166TIP3    H275990   5.560   3.123   0.064  0.3831  0.1493  0.2904
18167TIP3   OH275991   2.600   0.845  16.357 -0.8105  0.5531 -0.4737
18167TIP3    H175992   2.521   0.806  16.319 -1.4897 -0.3710  1.7570
18167TIP3    H275993   2.572   0.932  16.385 -1.0783  0.1953  0.3893
18168TIP3   OH275994   6.545   4.420  14.365  0.4909 -0.0634 -0.5253
18168TIP3    H175995   6.497   4.484  14.417  0.2152 -0.5641 -0.1527
18168TIP3    H275996   6.522   4.440  14.274 -0.4525 -0.3074 -0.3537
18169TIP3   OH275997   6.435   5.728   1.365  0.3443  0.1728 -0.2803
18169TIP3    H175998   6.369   5.797   1.369  0.7491  0.5125  0.8224
18169TIP3    H275999   6.519   5.775   1.364  0.6127 -0.2957  0.0227
18170TIP3   OH276000   3.265   1.102  13.235 -0.3771 -0.2305 -0.2056
18170TIP3    H176001   3.306   1.068  13.156  1.4138  0.8808  0.1933
18170TIP3    H276002   3.249   1.025  13.290  0.8399 -0.7327 -0.5390
18171TIP3   OH276003   3.103   4.961   5.244 -0.0871 -0.0187 -0.3818
18171TIP3    H176004   3.163   5.035   5.243 -0.2033  0.0679 -1.4241
18171TIP3    H276005   3.018   4.999   5.268 -0.2177  0.2491 -1.2468
18172TIP3   OH276006   4.384   1.368  12.286  0.0263  0.0527 -0.2606
18172TIP3    H176007   4.381   1.275  12.307 -0.7145 -0.2965 -1.7274
18172TIP3    H276008   4.316   1.380  12.220  0.5352  1.5067 -0.5771
18173TIP3   OH276009   6.020   0.067   2.106 -0.5174 -0.3412  0.5795
18173TIP3    H176010   6.013   0.052   2.200  0.7281  1.4749  1.0382
18173TIP3    H276011   6.113   0.086   2.092 -0.9325  0.9948 -0.7192
18174TIP3   OH276012   2.318   0.793  16.274 -0.1417 -0.5376 -0.1822
18174TIP3    H176013   2.284   0.711  16.311 -1.5892  0.6265  1.2292
18174TIP3    H276014   2.240   0.848  16.263  0.8656  0.8693 -0.4985
18175TIP3   OH276015   3.939   2.314   4.400  0.3104  0.4043  0.7155
18175TIP3    H176016   4.009   2.256   4.430 -0.0123 -0.7168 -0.6109
18175TIP3    H276017   3.860   2.281   4.443  0.2654  0.3990  0.6290
18176TIP3   OH276018   1.620   6.281   4.304  0.4194  0.3376 -0.9358
18176TIP3    H176019   1.559   6.276   4.378  1.0575 -1.6069 -0.4614
18176TIP3    H276020   1.587   6.217   4.242  0.3466  1.3875 -2.0120
18177TIP3   OH276021   3.033   3.971   4.303 -0.1415 -0.2236  0.7176
18177TIP3    H176022   2.994   3.887   4.282 -0.4786  0.0529  0.2165
18177TIP3    H276023   3.056   4.009   4.218 -3.8592  2.0367  0.4785
18178TIP3   OH276024   6.608   2.547  12.229  0.7625  0.2221 -0.0062
18178TIP3    H176025   6.692   2.544  12.183  1.7498  1.9718  1.5634
18178TIP3    H276026   6.610   2.471  12.286  1.7541  0.7806  0.7394
18179TIP3   OH276027   0.673   0.173   2.652  0.3452  0.4541 -0.2986
18179TIP3    H176028   0.742   0.145   2.712  2.8013  0.5237 -2.8835
18179TIP3    H276029   0.661   0.099   2.593  0.2244  1.4219 -1.5401
18180TIP3   OH276030   2.924   6.137  11.736  0.2990 -0.0994 -0.7271
18180TIP3    H176031   2.919   6.119  11.642  0.1524  0.6096 -0.8586
18180TIP3    H276032   2.844   6.099  11.772  0.2163 -0.1205 -0.9332
18181TIP3   OH276033   1.107   1.093  14.220 -0.2295  0.0428 -0.1010
18181TIP3    H176034   1.074   1.040  14.293 -3.0004  1.1091 -0.4571
18181TIP3    H276035   1.114   1.032  14.147 -0.0565 -0.4952  0.3607
18182TIP3   OH276036   2.849   3.356  15.099 -0.0942 -0.5234  0.6197
18182TIP3    H176037   2.857   3.301  15.177  0.5190 -0.9660  0.2504
18182TIP3    H276038   2.802   3.301  15.036  2.6724 -1.6277 -0.6365
18183TIP3   OH276039   1.259   3.761   1.394 -0.3628 -0.4939 -0.0362
18183TIP3    H176040   1.218   3.847   1.404 -1.6121 -1.1086  0.4345
18183TIP3    H276041   1.302   3.764   1.309  0.3288  0.8728  0.3477
18184TIP3   OH276042   1.813   0.522   5.819  0.0077  0.1433 -0.0508
18184TIP3    H176043   1.813   0.435   5.859  2.2178  0.8705  1.7632
18184TIP3    H276044   1.904   0.539   5.798 -0.6947  1.1227 -2.6240
18185TIP3   OH276045   0.321   5.765  14.175 -0.4324  0.4054  0.1425
18185TIP3    H176046   0.261   5.805  14.112  2.3937  2.7674 -1.2892
18185TIP3    H276047   0.386   5.721  14.121  0.4060 -0.1166  1.5452
18186TIP3   OH276048   3.810   3.987   2.276  0.1298  0.1084 -0.1718
18186TIP3    H176049   3.846   4.048   2.211  0.4624 -0.0182 -0.1103
18186TIP3    H276050   3.877   3.983   2.344  0.4197 -0.8589 -0.5028
18187TIP3   OH276051   2.921   1.112   0.713  0.0992  0.0355 -0.2956
18187TIP3    H176052   2.907   1.023   0.746 -0.2627 -0.0067 -0.5481
18187TIP3    H276053   3.015   1.118   0.699  0.3603  0.3108  1.4451
18188TIP3   OH276054   4.660   4.433   0.341  0.0780  0.1293 -0.0558
18188TIP3    H176055   4.720   4.502   0.372  0.1994 -0.7244  1.7284
18188TIP3    H276056   4.682   4.357   0.395  1.1040 -1.8856 -3.0684
18189TIP3   OH276057   3.794   0.021   5.123 -0.6096 -0.0609 -0.0156
18189TIP3    H176058   3.888   0.029   5.108 -0.5319 -0.8064  0.0596
18189TIP3    H276059   3.786  -0.014   5.212 -1.0107  1.8052  0.7404
18190TIP3   OH276060   5.704   1.163  12.322  0.4348 -0.1089  0.3169
18190TIP3    H176061   5.738   1.121  12.243  0.6796  0.1434  0.2878
18190TIP3    H276062   5.723   1.256  12.310 -2.2243  0.3898 -0.7207
18191TIP3   OH276063   2.694   5.452  11.066  0.5464 -0.1453 -0.3104
18191TIP3    H176064   2.704   5.535  11.113  0.9272 -0.0892 -0.4912
18191TIP3    H276065   2.673   5.477  10.976  0.5762 -0.2460 -0.3459
18192TIP3   OH276066   3.115   1.149   6.388 -0.0284 -0.3622  0.0978
18192TIP3    H176067   3.128   1.237   6.423  4.5838 -1.4081  1.7652
18192TIP3    H276068   3.049   1.110   6.446 -0.1608  1.1570  1.0355
18193TIP3   OH276069   1.150   0.564  16.301  0.6468  0.3420 -0.3072
18193TIP3    H176070   1.067   0.606  16.327  2.2309  2.6959  1.3283
18193TIP3    H276071   1.149   0.567  16.206 -1.3113 -0.0617 -0.3535
18194TIP3   OH276072   0.281   4.297   3.140 -0.0934 -0.2660 -0.2829
18194TIP3    H176073   0.366   4.312   3.181 -0.0581 -0.5758 -0.2405
18194TIP3    H276074   0.228   4.371   3.167  0.5647  0.6554 -1.4010
18195TIP3   OH276075   1.209   3.821  11.992 -0.1734 -0.6745 -0.0576
18195TIP3    H176076   1.191   3.908  11.956 -2.3391 -1.6556 -1.6016
18195TIP3    H276077   1.286   3.791  11.944 -0.2472 -0.1672 -0.5034
18196TIP3   OH276078   3.364   4.665   1.000  0.0357 -0.2369 -0.6815
18196TIP3    H176079   3.445   4.710   1.025 -0.1529  0.9338 -2.0608
18196TIP3    H276080   3.356   4.680   0.906 -1.8179 -0.3020 -0.5737
18197TIP3   OH276081   3.449   1.652  13.684 -0.1476  0.2712 -0.1549
18197TIP3    H176082   3.477   1.673  13.595  0.6677  1.7973  0.4157
18197TIP3    H276083   3.504   1.578  13.710 -1.0995 -0.8680 -1.2411
18198TIP3   OH276084   5.228   4.549   1.645 -0.2698  0.1200  0.2354
18198TIP3    H176085   5.272   4.627   1.611 -0.2023  0.6574  1.5376
18198TIP3    H276086   5.295   4.504   1.697 -0.5468 -0.3866  0.1618
18199TIP3   OH276087   2.790   3.282   4.860  0.9326  0.3159  0.1407
18199TIP3    H176088   2.745   3.217   4.806  2.2240 -0.2452 -0.3258
18199TIP3    H276089   2.808   3.354   4.801  0.3792  0.6703  0.4030
18200TIP3   OH276090   2.712   1.161  14.006  0.0779 -0.2941  0.5507
18200TIP3    H176091   2.733   1.146  14.098  2.3269 -1.7736 -0.1271
18200TIP3    H276092   2.739   1.081  13.961  0.2831  0.8793 -1.5668
18201TIP3   OH276093   3.343   3.140   5.269  0.1534  0.2259  0.3554
18201TIP3    H176094   3.304   3.222   5.238 -0.3917 -0.3600 -0.5589
18201TIP3    H276095   3.395   3.166   5.345  1.7967  1.8011 -1.1771
18202TIP3   OH276096   3.489   5.491  17.159 -0.1235 -0.5991  0.1658
18202TIP3    H176097   3.546   5.480  17.083  0.7320 -1.1361  0.8550
18202TIP3    H276098   3.430   5.416  17.157  0.7371 -1.3170  0.7049
18203TIP3   OH276099   6.775   3.719   5.595  0.3634  0.7077  0.0135
18203TIP3    H176100   6.738   3.640   5.635 -0.0861  0.8555 -0.1067
18203TIP3    H276101   6.709   3.787   5.611  0.0934  0.7358 -1.1164
18204TIP3   OH276102   3.482   5.950  11.527 -0.7095 -0.0425  0.0905
18204TIP3    H176103   3.446   5.996  11.603 -1.4942 -0.1812 -0.1835
18204TIP3    H276104   3.577   5.954  11.539 -0.5350  3.9487 -1.2641
18205TIP3   OH276105   6.371   5.666  16.103  0.1694  0.5235  0.6361
18205TIP3    H176106   6.457   5.660  16.144  0.6822  1.1035 -0.3120
18205TIP3    H276107   6.355   5.760  16.094  1.0694  0.5095 -2.3811
18206TIP3   OH276108   0.222   2.035  11.068  0.1005 -0.2418 -0.1535
18206TIP3    H176109   0.202   2.110  11.124 -3.5723 -1.3514  0.2771
18206TIP3    H276110   0.286   1.984  11.118 -0.7483  0.3555  1.6106
18207TIP3   OH276111   4.532   3.099  12.322  0.0529  0.3504 -0.2654
18207TIP3    H176112   4.623   3.126  12.336 -0.2467  0.4664  1.7373
18207TIP3    H276113   4.530   3.070  12.230  2.3341 -0.5611 -0.1086
18208TIP3   OH276114   3.078   0.400   3.701  0.4559  0.7659  0.2255
18208TIP3    H176115   3.109   0.485   3.734 -0.6185  1.4862 -0.5244
18208TIP3    H276116   3.153   0.362   3.656  1.0962  1.0877  0.9981
18209TIP3   OH276117   0.012   2.016   1.851  0.4899 -0.4036  0.4898
18209TIP3    H176118   0.076   2.086   1.861  0.8393 -0.5221 -0.7319
18209TIP3    H276119   0.054   1.940   1.892  3.6298 -1.9305 -4.6543
18210TIP3   OH276120   0.394   0.988   3.196 -0.0881 -0.0762 -0.2551
18210TIP3    H176121   0.433   0.973   3.281  1.0043  3.0221 -0.0895
18210TIP3    H276122   0.313   0.938   3.198 -0.0388 -0.2097  2.5616
18211TIP3   OH276123   5.302   4.047  12.513  0.8328 -0.1703  0.0311
18211TIP3    H176124   5.372   4.018  12.455  1.0510 -2.5053  1.3113
18211TIP3    H276125   5.307   4.142  12.512  1.4004 -0.1406 -2.9964
18212TIP3   OH276126   3.549   3.370  16.949 -0.7503  0.1482  0.2953
18212TIP3    H176127   3.454   3.363  16.938 -0.8122 -3.6072  1.6400
18212TIP3    H276128   3.561   3.389  17.041 -0.2869 -1.7560  0.6776
18213TIP3   OH276129   5.766   3.943  12.440 -0.0487  0.0149 -0.7558
18213TIP3    H176130   5.837   4.006  12.457  0.0685 -0.7281  1.9997
18213TIP3    H276131   5.800   3.888  12.369  2.3479 -0.5165  0.6711
18214TIP3   OH276132   6.572   6.534  13.594 -0.2767 -0.2644  0.5200
18214TIP3    H176133   6.546   6.506  13.506 -0.8200 -0.3526  0.7021
18214TIP3    H276134   6.530   6.470  13.653 -0.3581  0.1047  0.8688
18215TIP3   OH276135   6.281   6.400  10.518 -0.2449  0.5528 -0.4864
18215TIP3    H176136   6.189   6.374  10.525  0.4188 -1.6174  1.6019
18215TIP3    H276137   6.325   6.352  10.589  2.4456  1.8178 -1.1617
18216TIP3   OH276138   3.779   5.097   4.040 -0.2265  0.4495  0.0110
18216TIP3    H176139   3.791   5.191   4.054 -0.1237  0.4748 -0.2421
18216TIP3    H276140   3.770   5.061   4.128  0.6329  0.5814  0.1666
18217TIP3   OH276141   2.715   4.397   2.902 -0.5814 -0.1863  0.0570
18217TIP3    H176142   2.804   4.367   2.919  0.0806  1.8372  0.3813
18217TIP3    H276143   2.673   4.397   2.989 -0.4788  0.1706  0.1045
18218TIP3   OH276144   6.207   0.768  12.966 -0.0332 -0.3573  0.3841
18218TIP3    H176145   6.245   0.787  13.052  0.9624 -0.9166  0.0845
18218TIP3    H276146   6.283   0.761  12.908 -0.6575 -0.6661 -0.4016
18219TIP3   OH276147   1.605   5.522   4.165  0.3550  0.5457 -0.6667
18219TIP3    H176148   1.573   5.437   4.136  1.8485  0.3560 -1.8481
18219TIP3    H276149   1.530   5.561   4.211 -0.6239 -1.0271 -0.8531
18220TIP3   OH276150   0.180   2.282  11.208 -0.2467  0.3086  0.2780
18220TIP3    H176151   0.123   2.253  11.279 -0.3335  0.3252  0.2139
18220TIP3    H276152   0.186   2.377  11.218 -1.2460  0.4614 -0.4738
18221TIP3   OH276153   5.048   6.591  15.635 -0.1527  0.0695  0.7452
18221TIP3    H176154   4.967   6.573  15.684 -1.1682  0.2729 -0.7752
18221TIP3    H276155   5.019   6.601  15.544  1.6050  0.1277  0.1549
18222TIP3   OH276156   5.793   1.515   5.437  0.1560  0.2549 -0.6222
18222TIP3    H176157   5.748   1.432   5.449 -0.3845  0.3590 -1.7229
18222TIP3    H276158   5.871   1.493   5.386  0.9258  0.1959  0.5537
18223TIP3   OH276159   6.345   5.574  16.463 -0.0605  0.5052  0.7531
18223TIP3    H176160   6.390   5.539  16.540 -1.8402  0.3044  1.7641
18223TIP3    H276161   6.269   5.516  16.451 -1.4247  2.2207  0.6558
18224TIP3   OH276162   5.705   2.131  17.061  0.0821  0.2333 -0.9713
18224TIP3    H176163   5.721   2.067  17.130  0.9542 -0.7539 -2.0475
18224TIP3    H276164   5.622   2.172  17.085 -0.9115 -1.8367 -0.6462
18225TIP3   OH276165   4.565   3.326   5.845  0.1915 -0.4900 -0.0924
18225TIP3    H176166   4.590   3.257   5.907 -0.7212 -1.4370 -0.7597
18225TIP3    H276167   4.617   3.309   5.767 -0.6206 -0.9252 -0.5521
18226TIP3   OH276168   5.914   4.817  12.752  0.0259 -0.1564 -0.1898
18226TIP3    H176169   5.912   4.804  12.847  0.9009 -1.1610 -0.2949
18226TIP3    H276170   5.909   4.912  12.741  0.7918  0.0272  0.8923
18227TIP3   OH276171   6.764   6.142   5.178  0.4238  0.1182 -0.5041
18227TIP3    H176172   6.787   6.071   5.239 -0.7259 -0.7921 -1.0819
18227TIP3    H276173   6.834   6.142   5.114  0.7097 -0.1365 -0.1972
18228TIP3   OH276174   0.302   6.119   1.123  0.4029  1.0538 -0.1002
18228TIP3    H176175   0.247   6.088   1.195 -0.9564  0.2348 -1.4465
18228TIP3    H276176   0.355   6.188   1.162  2.0652 -1.4718  2.5231
18229TIP3   OH276177   4.843   1.925  11.243 -0.4875 -0.0178  0.1689
18229TIP3    H176178   4.829   1.866  11.318 -0.8473  0.5839  0.5800
18229TIP3    H276179   4.907   1.879  11.189 -1.0408 -0.9643  0.2909
18230TIP3   OH276180   1.771   5.169  17.283 -0.5609 -0.0441  0.2867
18230TIP3    H176181   1.856   5.208  17.304 -0.7698 -0.5692  2.3694
18230TIP3    H276182   1.779   5.077  17.308 -1.3903 -0.3744 -0.5941
18231TIP3   OH276183   1.296   0.735   2.426  0.5053  0.1650  0.4236
18231TIP3    H176184   1.238   0.705   2.496 -1.3259  0.9125 -0.6689
18231TIP3    H276185   1.358   0.664   2.412 -1.6994 -1.7900  0.0321
18232TIP3   OH276186   3.411   3.158  14.669  0.0957  0.0075 -0.1816
18232TIP3    H176187   3.450   3.147  14.756  0.1814 -0.9962 -0.3311
18232TIP3    H276188   3.351   3.084  14.661  1.0106 -0.6298 -1.4678
18233TIP3   OH276189   6.248   2.835   6.288 -0.5781  0.2477  0.1198
18233TIP3    H176190   6.214   2.870   6.371 -1.4453  1.0158 -0.5301
18233TIP3    H276191   6.211   2.748   6.282  0.1874 -0.1577  0.9324
18234TIP3   OH276192   1.907   6.806  12.584  0.1277  0.0930  0.2308
18234TIP3    H176193   1.952   6.792  12.500  2.3327  0.6239  1.2583
18234TIP3    H276194   1.837   6.741  12.584 -1.0490  1.1653 -2.7268
18235TIP3   OH276195   2.972   3.390  16.960  0.9333 -0.1165 -0.8028
18235TIP3    H176196   2.942   3.448  16.890 -1.4037 -1.6763 -1.1992
18235TIP3    H276197   2.900   3.389  17.023  1.0432 -2.2956 -0.6472
18236TIP3   OH276198   2.636   2.439   2.493 -0.4209 -0.2322 -0.0418
18236TIP3    H176199   2.577   2.477   2.558 -0.1174  1.0843 -0.5013
18236TIP3    H276200   2.667   2.358   2.533 -1.9429 -0.5701  0.5211
18237TIP3   OH276201   5.422   4.181  14.897  0.2062 -0.3140  0.7089
18237TIP3    H176202   5.517   4.194  14.896  0.1383  1.1325 -3.1386
18237TIP3    H276203   5.388   4.259  14.941  0.7193 -0.7167  1.8804
18238TIP3   OH276204   3.577   1.299  12.890 -0.2924 -0.0142  0.5426
18238TIP3    H176205   3.588   1.330  12.800  0.0478 -2.0970 -0.1783
18238TIP3    H276206   3.486   1.270  12.894 -0.3584  0.2448  0.9394
18239TIP3   OH276207   5.669   2.969   0.007  0.7842  0.3415  0.2554
18239TIP3    H176208   5.752   2.959  -0.040  2.0022 -0.0672  2.3450
18239TIP3    H276209   5.659   2.888   0.056 -3.3398 -1.7018 -3.3926
18240TIP3   OH276210   4.645   3.940   5.648  0.4584  0.5060  0.2761
18240TIP3    H176211   4.624   3.928   5.741 -0.4085 -1.9402 -0.1423
18240TIP3    H276212   4.596   4.017   5.622 -1.6298 -0.4162  1.2346
18241TIP3   OH276213   1.723   1.659   4.011 -0.4740  0.6882  0.3215
18241TIP3    H176214   1.752   1.699   3.930  2.0328 -4.2143 -1.6055
18241TIP3    H276215   1.687   1.574   3.985 -1.5344 -0.2879  4.2246
18242TIP3   OH276216   2.103   1.518   1.424 -0.0780  0.2006 -0.3626
18242TIP3    H176217   2.063   1.438   1.389 -1.9901  0.5481  0.9109
18242TIP3    H276218   2.183   1.487   1.466 -1.2516 -1.2366  0.9284
18243TIP3   OH276219   0.107   1.489   4.629 -0.4182  0.5273  0.0881
18243TIP3    H176220   0.018   1.455   4.621 -0.5249  1.2538 -2.5838
18243TIP3    H276221   0.163   1.423   4.588  0.2448  0.3347  1.2502
18244TIP3   OH276222   5.941   3.650  15.189  0.2060  0.3419  0.1745
18244TIP3    H176223   5.880   3.578  15.205  0.9453 -0.4309 -0.4175
18244TIP3    H276224   6.024   3.620  15.225  0.2900  1.3420  0.8689
18245TIP3   OH276225   0.614   4.871   4.798 -0.2108  0.0122 -0.0608
18245TIP3    H176226   0.547   4.931   4.764 -0.1937  0.1445  0.1361
18245TIP3    H276227   0.601   4.790   4.748 -0.5253  0.0330 -0.0164
18246TIP3   OH276228   5.376   2.574   1.716 -0.1703  0.5889  0.0394
18246TIP3    H176229   5.312   2.505   1.698  0.0588  0.7451 -1.5669
18246TIP3    H276230   5.434   2.537   1.782  0.9908 -1.4969 -1.9762
18247TIP3   OH276231   2.279   0.156  14.420 -0.0973  0.1439  0.2146
18247TIP3    H176232   2.196   0.183  14.380 -0.3306 -0.9813 -0.0910
18247TIP3    H276233   2.338   0.230  14.405 -0.9916  0.8991  0.2973
18248TIP3   OH276234   0.953   0.162  11.561 -0.4361  0.3032 -0.0830
18248TIP3    H176235   0.934   0.125  11.475 -0.6651  0.8349 -0.2667
18248TIP3    H276236   1.001   0.243  11.542  3.4505 -1.6473  0.3430
18249TIP3   OH276237   0.379   3.935  12.923 -0.0569 -0.5105 -1.0450
18249TIP3    H176238   0.301   3.884  12.947 -0.6155  0.7661 -0.0347
18249TIP3    H276239   0.344   4.014  12.882  0.7358 -0.0764 -0.8938
18250TIP3   OH276240   5.498   5.883  15.255  0.0098 -0.1628 -0.2675
18250TIP3    H176241   5.571   5.934  15.219  1.0718 -0.6041  1.1751
18250TIP3    H276242   5.527   5.792  15.250  0.1042 -0.2495  1.4553
18251TIP3   OH276243   1.543   2.951   5.302 -0.0231 -0.1627  0.4089
18251TIP3    H176244   1.553   3.045   5.284 -0.8044 -0.0589  0.4728
18251TIP3    H276245   1.507   2.915   5.222 -0.7604 -0.2119  0.7584
18252TIP3   OH276246   4.566   3.098   3.281 -0.2262  0.3659 -0.0112
18252TIP3    H176247   4.485   3.118   3.330 -0.9149 -0.7836 -0.6566
18252TIP3    H276248   4.636   3.131   3.337 -0.9669 -1.1900  1.9486
18253TIP3   OH276249   5.907   3.673   5.129 -0.5550 -0.4621  0.2295
18253TIP3    H176250   5.947   3.743   5.180  0.4660  0.0073 -1.1427
18253TIP3    H276251   5.890   3.713   5.043 -1.5363 -1.4301 -0.0525
18254TIP3   OH276252   0.173   6.205  12.034 -0.0600 -0.2672  0.2833
18254TIP3    H176253   0.238   6.134  12.026  0.1574  0.0371 -0.9088
18254TIP3    H276254   0.226   6.284  12.048 -0.2121 -0.1335  0.1100
18255TIP3   OH276255   0.577   3.149   4.059  0.1219 -0.0153  0.1014
18255TIP3    H176256   0.572   3.098   4.140 -0.2590 -1.4817 -0.8126
18255TIP3    H276257   0.626   3.228   4.084  1.7498 -1.3278  1.3188
18256TIP3   OH276258   2.410   2.115   3.136  0.1818 -0.4581  0.2866
18256TIP3    H176259   2.361   2.062   3.199 -0.5108 -0.6141 -0.3646
18256TIP3    H276260   2.354   2.191   3.120  0.4125 -0.3496 -0.0231
18257TIP3   OH276261   5.470   5.603  13.098  0.9088  0.0869  0.3381
18257TIP3    H176262   5.545   5.663  13.105  0.7924  0.3501 -0.5360
18257TIP3    H276263   5.396   5.654  13.132  0.8648  0.3442 -0.1327
18258TIP3   OH276264   2.474   5.440  15.116 -0.9889  0.8102  0.1149
18258TIP3    H176265   2.510   5.407  15.033  0.5939 -0.6401  1.3017
18258TIP3    H276266   2.381   5.453  15.098 -0.6987  0.5084 -1.8812
18259TIP3   OH276267   6.141   3.103  17.265 -0.4302 -0.3780 -0.3967
18259TIP3    H176268   6.089   3.164  17.213 -0.1693  0.3884  0.2204
18259TIP3    H276269   6.209   3.071  17.205 -0.6696 -0.1909 -0.7674
18260TIP3   OH276270   4.679   3.162  14.853 -0.0623 -0.0593  0.3132
18260TIP3    H176271   4.749   3.227  14.862  1.2000 -1.1705 -0.8967
18260TIP3    H276272   4.645   3.176  14.765  0.5902 -1.3337 -0.1699
18261TIP3   OH276273   3.018   0.539  15.761  0.1537 -0.3836  0.5189
18261TIP3    H176274   3.059   0.616  15.801 -1.0779  0.4680  0.2080
18261TIP3    H276275   2.943   0.574  15.714 -0.3096 -1.7677  0.1838
18262TIP3   OH276276   3.087   6.532  11.720  0.2349 -0.4336  0.2299
18262TIP3    H176277   2.997   6.519  11.751  1.3023  0.2210  4.2506
18262TIP3    H276278   3.120   6.443  11.706 -0.8064 -0.7060 -0.6188
18263TIP3   OH276279   4.811   4.158  12.259  0.3153  0.2270 -0.0686
18263TIP3    H176280   4.760   4.101  12.316  0.4081  1.0488  0.8654
18263TIP3    H276281   4.747   4.220  12.224  0.3290 -0.0273 -0.5535
18264TIP3   OH276282   1.250   5.513   2.755  0.2554 -0.0804 -0.0824
18264TIP3    H176283   1.323   5.483   2.701  0.2098 -0.2806 -0.0352
18264TIP3    H276284   1.239   5.606   2.733  0.1356 -0.1976 -0.5278
18265TIP3   OH276285   1.903   5.688   2.559 -0.0477  0.7480  0.5073
18265TIP3    H176286   1.965   5.616   2.572  0.3648  1.0987  0.5172
18265TIP3    H276287   1.825   5.662   2.609  0.4268  0.7185  1.2519
18266TIP3   OH276288   4.614   0.322   6.059 -0.5917 -0.1451 -0.8290
18266TIP3    H176289   4.641   0.347   6.148 -1.7582  1.2008 -0.8039
18266TIP3    H276290   4.690   0.338   6.005 -0.3316  0.4897 -0.2915
18267TIP3   OH276291   2.815   6.117  15.341 -0.1686  0.0985  0.6594
18267TIP3    H176292   2.904   6.085  15.351 -0.8555 -1.6191  1.4892
18267TIP3    H276293   2.769   6.048  15.293 -1.0310  1.0441  0.0586
18268TIP3   OH276294   3.560   1.080   4.922 -0.9026  0.1752  0.3640
18268TIP3    H176295   3.531   1.021   4.853  0.8739  1.4235 -1.6025
18268TIP3    H276296   3.528   1.166   4.895 -1.0343  0.5515  1.6543
18269TIP3   OH276297   4.442   3.090  11.384 -0.2370  0.0471 -0.1972
18269TIP3    H176298   4.419   3.020  11.324  0.0487  0.5696 -0.9264
18269TIP3    H276299   4.514   3.137  11.341 -0.6648  1.0145  0.1062
18270TIP3   OH276300   2.630   3.252   0.244  0.1099  0.2065 -0.0185
18270TIP3    H176301   2.564   3.306   0.288 -2.4437 -2.6194 -0.0838
18270TIP3    H276302   2.590   3.229   0.160  1.9672 -0.2211 -0.8346
18271TIP3   OH276303   3.977   2.898   2.530 -0.8788  0.3076 -0.4124
18271TIP3    H176304   3.889   2.872   2.558 -0.7354 -0.7792 -0.9036
18271TIP3    H276305   3.968   2.918   2.437 -0.4266 -0.8226 -0.7183
18272TIP3   OH276306   0.050   0.415  15.036  0.0683 -0.2115  0.0456
18272TIP3    H176307   0.018   0.501  15.010  0.8347 -0.2641 -1.1276
18272TIP3    H276308  -0.002   0.353  14.986 -0.4470 -0.4534  0.8520
18273TIP3   OH276309   6.608   2.055   2.214  0.3212 -0.2042 -0.0730
18273TIP3    H176310   6.595   2.132   2.270 -0.2471 -0.6362  0.3958
18273TIP3    H276311   6.629   2.092   2.128 -1.9152  0.5458 -0.3820
18274TIP3   OH276312   1.517   2.808   3.650 -0.2572  0.5456 -0.1900
18274TIP3    H176313   1.472   2.833   3.731 -1.6016  0.6471 -0.9524
18274TIP3    H276314   1.556   2.889   3.619  1.7183  0.2076  1.1894
18275TIP3   OH276315   1.844   5.359  11.300 -0.1552  0.0566  0.1075
18275TIP3    H176316   1.818   5.446  11.269 -0.4503 -0.5187 -1.3688
18275TIP3    H276317   1.939   5.357  11.288 -0.2789 -0.2033 -0.9590
18276TIP3   OH276318   5.315   0.682   1.451  0.1884 -0.2774 -0.1983
18276TIP3    H176319   5.235   0.724   1.481 -0.4023  0.0500 -2.0602
18276TIP3    H276320   5.381   0.752   1.451  0.1990 -0.2832  0.2872
18277TIP3   OH276321   6.798   1.471   3.386  0.1419 -0.0168  0.2126
18277TIP3    H176322   6.873   1.528   3.373  0.8776 -1.1331 -0.5807
18277TIP3    H276323   6.723   1.530   3.392  0.8117  0.9989 -1.1453
18278TIP3   OH276324   3.458   0.880   5.978  0.1170 -0.0924  0.5413
18278TIP3    H176325   3.522   0.844   6.039 -0.3990 -0.0216  1.1296
18278TIP3    H276326   3.373   0.863   6.018 -0.2538 -0.3733 -0.3281
18279TIP3   OH276327   1.884   3.538   0.229  0.1647 -0.6837 -0.2975
18279TIP3    H176328   1.856   3.465   0.284 -1.0267  0.0425  0.1051
18279TIP3    H276329   1.802   3.580   0.203  0.8488  1.1200  0.3350
18280TIP3   OH276330   6.282   2.138   3.500  0.2224  0.7986 -0.2610
18280TIP3    H176331   6.189   2.161   3.504 -0.2293 -1.0222  0.5758
18280TIP3    H276332   6.285   2.058   3.448  1.6295  2.0450 -2.2352
18281TIP3   OH276333   5.026   3.425   5.690  0.1221  0.1259 -0.4364
18281TIP3    H176334   5.100   3.450   5.635  0.1401 -0.6955 -0.8114
18281TIP3    H276335   4.995   3.507   5.727  0.2684  0.6736 -1.4737
18282TIP3   OH276336   2.080   4.637   0.148 -0.5685 -0.0911  0.1828
18282TIP3    H176337   2.165   4.601   0.175 -0.2398  1.8693  2.1314
18282TIP3    H276338   2.054   4.584   0.073  2.5319 -0.5631 -0.7111
18283TIP3   OH276339   2.084   2.869  17.153  0.2445  0.3308 -0.1237
18283TIP3    H176340   2.116   2.952  17.189  1.8843 -0.5929  0.6498
18283TIP3    H276341   2.063   2.890  17.062  1.3914  1.4322 -0.1731
18284TIP3   OH276342   5.707   3.045  10.839 -0.0731 -0.8923 -0.7825
18284TIP3    H176343   5.778   3.104  10.811  0.7364 -2.1391 -1.5060
18284TIP3    H276344   5.747   2.958  10.836 -0.5821 -1.3313  2.3439
18285TIP3   OH276345   4.272   6.596  12.694  0.1398  0.0436  0.0700
18285TIP3    H176346   4.194   6.544  12.676 -1.3557  2.2462 -0.1186
18285TIP3    H276347   4.276   6.659  12.623  2.6276 -0.5222 -0.3990
18286TIP3   OH276348   3.208   5.030   0.513  0.0396 -0.2300  0.2971
18286TIP3    H176349   3.218   4.948   0.465  0.7483  0.5876 -1.0102
18286TIP3    H276350   3.287   5.081   0.491 -1.1613  1.4710 -0.2934
18287TIP3   OH276351   5.660   1.160   0.732  0.3118  0.2820 -0.2491
18287TIP3    H176352   5.733   1.142   0.791  1.2967  1.0642 -1.1769
18287TIP3    H276353   5.661   1.256   0.722  0.0007  0.1825 -1.3068
18288TIP3   OH276354   2.240   4.529  12.492  0.7490 -0.0344 -0.3220
18288TIP3    H176355   2.161   4.575  12.522  1.6297  0.7574  0.8870
18288TIP3    H276356   2.289   4.596  12.444  1.2991 -0.1448  0.0857
18289TIP3   OH276357   1.493   0.503   2.065  0.7101 -0.0142 -0.6574
18289TIP3    H176358   1.486   0.598   2.066  0.6945 -0.0174  0.4744
18289TIP3    H276359   1.472   0.476   2.154 -1.0556 -1.2187 -1.3878
18290TIP3   OH276360   1.377   4.571  12.477 -0.6260 -0.2258  0.0392
18290TIP3    H176361   1.320   4.565  12.553  0.7274 -2.2941  0.9869
18290TIP3    H276362   1.428   4.490  12.479  0.2883  0.2070 -2.4081
18291TIP3   OH276363   4.891   6.328  10.891  0.3717 -0.0909 -0.2361
18291TIP3    H176364   4.945   6.406  10.879  0.6749 -0.3816 -0.7690
18291TIP3    H276365   4.842   6.319  10.810 -0.5326  0.2004  0.2638
18292TIP3   OH276366   6.371   1.500  13.930  0.4875  0.4781  0.0105
18292TIP3    H176367   6.300   1.453  13.975  1.0211  1.1952  1.6979
18292TIP3    H276368   6.432   1.430  13.903  0.3323  0.0229  0.7766
18293TIP3   OH276369   5.270   6.512   4.517  0.8398  0.3988 -0.0224
18293TIP3    H176370   5.295   6.600   4.545  0.5017  0.9603 -1.4290
18293TIP3    H276371   5.175   6.510   4.524  0.8449  0.1395 -0.0072
18294TIP3   OH276372   6.266   4.343   2.932 -0.2478  0.1235  0.0794
18294TIP3    H176373   6.190   4.287   2.914 -0.3136  0.7282 -1.6652
18294TIP3    H276374   6.263   4.410   2.864 -0.8832  3.0757  2.7474
18295TIP3   OH276375   5.717   2.317  12.033 -0.0260  0.1837  0.1859
18295TIP3    H176376   5.659   2.289  11.963  0.2230  0.8533 -0.3020
18295TIP3    H276377   5.782   2.372  11.990  1.0584 -0.6666  0.7039
18296TIP3   OH276378   0.763   6.229   1.322  0.9531 -0.1283  0.2453
18296TIP3    H176379   0.769   6.189   1.408  2.4145 -0.1314  0.1647
18296TIP3    H276380   0.762   6.323   1.339  1.5921 -0.1199  0.2644
18297TIP3   OH276381   6.288   5.614   5.357 -0.4342  0.3607 -0.0946
18297TIP3    H176382   6.367   5.662   5.384 -0.9813  1.5413 -0.5106
18297TIP3    H276383   6.261   5.567   5.435 -0.6053  1.7818  0.7413
18298TIP3   OH276384   6.400   2.272  11.321  0.4819 -0.1666  0.1068
18298TIP3    H176385   6.410   2.220  11.242  1.2089  0.6416 -0.3568
18298TIP3    H276386   6.334   2.337  11.300  1.0508  0.3801 -0.0318
18299TIP3   OH276387   6.059   3.987   4.796 -0.6194  0.5083 -0.0990
18299TIP3    H176388   6.057   3.894   4.818 -1.1850  0.2603 -1.1145
18299TIP3    H276389   6.152   4.010   4.793 -0.4720 -0.0804 -0.0617
18300TIP3   OH276390   1.367   2.408  10.847 -0.4091 -0.4437  0.1653
18300TIP3    H176391   1.412   2.340  10.897  0.8927 -0.4233 -0.9471
18300TIP3    H276392   1.423   2.485  10.855  0.3382 -0.6968 -2.0731
18301TIP3   OH276393   2.580   4.538   2.622 -0.2545  0.6967  0.0550
18301TIP3    H176394   2.647   4.592   2.664 -2.4809  2.0706  2.1283
18301TIP3    H276395   2.555   4.587   2.544  0.2522  0.7975 -0.0504
18302TIP3   OH276396   1.710   4.995   3.160  0.2327 -0.0660  0.3493
18302TIP3    H176397   1.691   4.935   3.087 -0.2597  0.0601  0.3717
18302TIP3    H276398   1.624   5.018   3.195  0.4905 -1.5110  2.1065
18303TIP3   OH276399   2.171   6.377  15.472  0.7546 -0.0823  0.3419
18303TIP3    H176400   2.161   6.371  15.377  1.5865  1.2363  0.1309
18303TIP3    H276401   2.181   6.287  15.501  2.1220 -0.4330 -1.0420
18304TIP3   OH276402   3.531   1.982  13.395  0.3148  0.3252 -0.0741
18304TIP3    H176403   3.499   2.069  13.418  0.1198  0.4607 -0.8354
18304TIP3    H276404   3.616   1.997  13.355 -0.4180  0.3305 -1.6982
18305TIP3   OH276405   3.169   0.306   6.161  0.2304 -0.3233  0.0509
18305TIP3    H176406   3.200   0.394   6.142  2.8837 -1.0062  0.6939
18305TIP3    H276407   3.079   0.317   6.190  1.0504  2.4270  1.9904
18306TIP3   OH276408   1.623   1.579   5.564  0.0627 -0.1150  0.1369
18306TIP3    H176409   1.617   1.542   5.652  0.8384 -1.5012 -0.3696
18306TIP3    H276410   1.664   1.664   5.576  1.0643 -0.7085  1.0258
18307TIP3   OH276411   6.461   4.150   0.267 -0.0900 -0.0486  0.4403
18307TIP3    H176412   6.413   4.232   0.277 -1.6168 -0.7846 -0.4107
18307TIP3    H276413   6.399   4.082   0.296  0.7405 -0.9717  0.1218
18308TIP3   OH276414   2.002   3.226  12.353  0.0377  0.0254  0.3424
18308TIP3    H176415   2.091   3.211  12.385  1.0584  2.4327 -1.0314
18308TIP3    H276416   1.957   3.271  12.425 -0.3509 -1.8376  1.3067
18309TIP3   OH276417   5.574   0.578   2.117 -0.2730  0.0688 -0.0052
18309TIP3    H176418   5.668   0.594   2.107 -0.2999 -0.3865 -1.2093
18309TIP3    H276419   5.550   0.526   2.040 -1.2626 -0.9554  0.9623
18310TIP3   OH276420   2.141   1.848  11.369  0.5873  0.0925  0.2821
18310TIP3    H176421   2.170   1.778  11.427 -0.2600 -0.7238 -0.2556
18310TIP3    H276422   2.106   1.804  11.292 -0.2756  1.0790  0.0706
18311TIP3   OH276423   0.218   3.120   2.111  0.2579 -0.0440 -0.1995
18311TIP3    H176424   0.188   3.044   2.161  1.5570 -0.4515  0.0016
18311TIP3    H276425   0.310   3.101   2.092  0.0794  0.5751 -1.8555
18312TIP3   OH276426   0.105   5.079   5.362 -0.2100 -0.0756  0.0477
18312TIP3    H176427   0.156   5.051   5.286 -1.4118 -1.3087 -0.3383
18312TIP3    H276428   0.122   5.013   5.428  1.7126  1.5710  1.3222
18313TIP3   OH276429   4.407   1.190  15.882 -0.1863  0.2368  0.2463
18313TIP3    H176430   4.410   1.131  15.807 -2.1585  0.7231 -0.2704
18313TIP3    H276431   4.340   1.153  15.939  0.7450  0.3074  1.4196
18314TIP3   OH276432   2.032   1.263  14.162 -0.5024 -0.8054 -0.0054
18314TIP3    H176433   2.036   1.283  14.069  0.6613  1.1327  0.4152
18314TIP3    H276434   2.094   1.191  14.173  1.0742  0.4540 -0.4025
18315TIP3   OH276435   0.500   6.796   0.824  0.2648  0.6252 -0.4065
18315TIP3    H176436   0.457   6.710   0.820  0.8551  0.3449 -0.9665
18315TIP3    H276437   0.544   6.805   0.739  1.1056  0.9979  0.0515
18316TIP3   OH276438   0.202   3.176   2.441  0.4887 -0.3019  0.0631
18316TIP3    H176439   0.267   3.240   2.470  0.3844 -0.3736  0.4618
18316TIP3    H276440   0.118   3.213   2.470  0.3351 -0.1242 -0.6038
18317TIP3   OH276441   3.110   3.794  15.827 -0.1207  0.4031 -0.1900
18317TIP3    H176442   3.050   3.806  15.754 -0.6780 -0.5375  0.0958
18317TIP3    H276443   3.162   3.874  15.829  1.3426 -0.3494 -2.9213
18318TIP3   OH276444   5.878   3.816   2.805  0.1853 -0.3206  0.4234
18318TIP3    H176445   5.922   3.899   2.826  0.6021 -0.7663  1.3773
18318TIP3    H276446   5.785   3.837   2.810  0.2789 -0.0581  1.3416
18319TIP3   OH276447   1.201   5.570  13.603  0.3193 -0.3610  0.8261
18319TIP3    H176448   1.156   5.486  13.601  1.8672 -1.2521  1.5361
18319TIP3    H276449   1.291   5.550  13.577  0.4648  1.2632 -0.0486
18320TIP3   OH276450   4.052   2.307   1.142  0.7570  0.2119  0.1704
18320TIP3    H176451   3.999   2.239   1.185  2.0228  0.2285  1.8560
18320TIP3    H276452   3.992   2.381   1.131  0.7705  0.9430  3.8104
18321TIP3   OH276453   0.272   2.209   4.496 -0.0840  0.6652 -0.1293
18321TIP3    H176454   0.333   2.141   4.468 -0.9598 -0.0914 -0.2183
18321TIP3    H276455   0.327   2.286   4.509  0.9276 -0.0698  0.0281
18322TIP3   OH276456   2.611   3.417  16.073 -0.5422 -0.5123 -0.7234
18322TIP3    H176457   2.614   3.326  16.103 -2.4004 -0.7410 -1.1112
18322TIP3    H276458   2.628   3.469  16.151  1.7265 -1.1772 -0.7228
18323TIP3   OH276459   3.238   4.433  16.079 -0.1258 -0.7085 -0.3333
18323TIP3    H176460   3.200   4.385  16.153  0.2051 -1.4038 -0.6058
18323TIP3    H276461   3.188   4.515  16.075  0.4209 -0.2494  1.2195
18324TIP3   OH276462   2.322   5.940   0.488 -0.2511 -0.4309  0.3592
18324TIP3    H176463   2.269   5.944   0.408 -0.6379 -0.4874  0.6103
18324TIP3    H276464   2.296   5.858   0.530 -1.5904  0.5709  1.5904
18325TIP3   OH276465   1.801   3.356  16.723 -0.6754 -0.0687 -0.0334
18325TIP3    H176466   1.825   3.286  16.783  3.6279  0.4132 -0.8506
18325TIP3    H276467   1.775   3.429  16.780 -1.1462 -1.0110  0.9848
18326TIP3   OH276468   0.449   6.434   3.105  0.0820 -0.0927  0.0531
18326TIP3    H176469   0.471   6.342   3.114 -1.2633 -0.4162  0.2245
18326TIP3    H276470   0.534   6.479   3.099  0.7759 -1.1729  1.4008
18327TIP3   OH276471   2.304   0.372  15.904 -0.1437 -0.4654  0.0745
18327TIP3    H176472   2.331   0.369  15.996 -0.5363  0.5280  0.2308
18327TIP3    H276473   2.268   0.460  15.892 -0.5843 -0.7627 -0.8955
18328TIP3   OH276474   3.843   2.191  10.493 -0.5226  0.4430 -0.2824
18328TIP3    H176475   3.935   2.211  10.475 -0.5808  0.9165 -0.0703
18328TIP3    H276476   3.838   2.186  10.589 -0.9599  1.6198 -0.2370
18329TIP3   OH276477   5.353   0.411   6.226  0.7101  0.0900  0.0521
18329TIP3    H176478   5.394   0.385   6.144 -0.4685 -1.5185 -0.0836
18329TIP3    H276479   5.325   0.502   6.212  1.1399  0.0596 -1.0586
18330TIP3   OH276480   1.974   2.180  10.696  0.7102  0.1023  0.0830
18330TIP3    H176481   1.985   2.154  10.605 -0.1750 -0.8440  0.2235
18330TIP3    H276482   1.960   2.274  10.693  0.9656  0.1222 -0.7293
18331TIP3   OH276483   1.914   1.104   2.924 -0.3715  0.1136  0.2119
18331TIP3    H176484   1.848   1.161   2.964 -0.3600 -0.2930  0.8259
18331TIP3    H276485   1.871   1.069   2.846 -0.6633  0.3245  0.2756
18332TIP3   OH276486   4.065   4.087   2.090 -0.1963 -0.2412  0.3908
18332TIP3    H176487   4.104   4.131   2.166 -0.3547  1.0277 -0.2414
18332TIP3    H276488   3.975   4.120   2.087 -0.1092 -0.0712 -0.5046
18333TIP3   OH276489   2.027   1.721   3.372  0.0936 -0.1230  0.1779
18333TIP3    H176490   1.987   1.800   3.337 -0.8953 -0.1426  1.2071
18333TIP3    H276491   1.961   1.684   3.430  0.7767 -1.3738  0.1990
18334TIP3   OH276492   5.990   5.048  14.957  0.1978 -0.0291  0.0135
18334TIP3    H176493   5.995   5.144  14.965  2.1557 -0.0132 -0.7355
18334TIP3    H276494   5.900   5.027  14.980  0.2650  1.7715  2.3645
18335TIP3   OH276495   3.299   3.010  14.357  0.8328  0.1093  0.0762
18335TIP3    H176496   3.268   2.930  14.314  3.4023 -0.7144 -0.3712
18335TIP3    H276497   3.225   3.070  14.350 -0.2318 -1.3231 -1.9899
18336TIP3   OH276498   2.885   3.904  13.085 -0.0337  0.2396  0.1292
18336TIP3    H176499   2.922   3.970  13.144  2.8063 -0.5277 -0.6313
18336TIP3    H276500   2.873   3.950  13.002 -0.9490  0.5050  0.3935
18337TIP3   OH276501   6.103   1.592   1.919 -0.2075 -0.5568 -0.2360
18337TIP3    H176502   6.025   1.609   1.971  0.0761  0.6602 -0.1766
18337TIP3    H276503   6.148   1.677   1.914  2.4991 -1.7331  1.9330
18338TIP3   OH276504   6.522   1.273  12.822  0.3272 -0.2752 -0.4573
18338TIP3    H176505   6.568   1.353  12.848  1.8082 -1.8621  2.3059
18338TIP3    H276506   6.512   1.224  12.904  0.8501 -3.6029 -2.2365
18339TIP3   OH276507   1.184   5.507   5.526  0.7375 -0.0595 -0.5038
18339TIP3    H176508   1.199   5.474   5.614  0.5466  0.4501 -0.2775
18339TIP3    H276509   1.108   5.459   5.494 -1.1243  1.8913  0.7632
18340TIP3   OH276510   3.053   2.534   0.390  0.1067  0.3125  0.0158
18340TIP3    H176511   3.004   2.610   0.359 -0.7592  0.0332  0.6459
18340TIP3    H276512   3.132   2.570   0.431  0.3021  0.7874 -0.7735
18341TIP3   OH276513   0.280   5.140   1.690 -0.6642  0.5300 -0.5924
18341TIP3    H176514   0.273   5.150   1.785  0.0018  1.6839 -0.6421
18341TIP3    H276515   0.305   5.227   1.659 -1.7081  0.3902 -1.9190
18342TIP3   OH276516   0.257   2.399   0.423 -0.0023 -0.4181 -0.5294
18342TIP3    H176517   0.348   2.375   0.444  1.0441  0.2650 -3.7710
18342TIP3    H276518   0.265   2.475   0.365 -2.6278 -0.7562 -1.4412
18343TIP3   OH276519   3.995   0.390   0.906 -0.4931  0.4561 -0.3091
18343TIP3    H176520   3.908   0.424   0.882 -1.3497 -1.3713  0.0206
18343TIP3    H276521   3.995   0.300   0.873 -0.3143 -0.9488  3.0799
18344TIP3   OH276522   2.727   4.546  14.860  0.6902 -0.1120  0.2417
18344TIP3    H176523   2.747   4.471  14.916 -1.0126  1.3657  3.0786
18344TIP3    H276524   2.632   4.543  14.848  0.7810  0.7620 -0.8914
18345TIP3   OH276525   0.130   0.843   3.159  0.1047  0.5190 -0.0668
18345TIP3    H176526   0.095   0.793   3.085  1.9504 -1.6567  0.4055
18345TIP3    H276527   0.060   0.842   3.224 -0.5410  0.0807 -0.7536
18346TIP3   OH276528   0.169   3.333  13.540  0.6394  0.4814  0.0374
18346TIP3    H176529   0.113   3.369  13.609 -1.8702  0.1479 -1.7109
18346TIP3    H276530   0.216   3.262  13.583 -1.0875  0.0616  1.3750
18347TIP3   OH276531   0.793   0.234  14.259 -0.0552  0.3074 -0.4023
18347TIP3    H176532   0.731   0.225  14.332  2.3406  0.9267  1.8771
18347TIP3    H276533   0.738   0.251  14.183 -2.7084 -0.1030  1.2755
18348TIP3   OH276534   6.001   2.303  13.796 -0.3109  0.8316  0.2567
18348TIP3    H176535   6.091   2.275  13.814 -1.2200 -2.2422  0.4735
18348TIP3    H276536   5.968   2.240  13.732 -2.6152  1.2880  0.9147
18349TIP3   OH276537   0.405   0.960  16.920  0.5616 -0.5957  0.1689
18349TIP3    H176538   0.408   0.873  16.961  3.1077 -0.9967 -0.7250
18349TIP3    H276539   0.422   0.944  16.828  1.2320  0.8708  0.0150
18350TIP3   OH276540   0.056   4.705   5.046 -0.1780 -0.4338  0.3114
18350TIP3    H176541   0.099   4.785   5.076  0.5032 -0.4277 -0.6324
18350TIP3    H276542  -0.031   4.708   5.086  0.3070  0.1004  1.3677
18351TIP3   OH276543   2.037   0.989   2.419 -0.8020 -0.0688  0.2538
18351TIP3    H176544   2.096   1.039   2.362 -1.8120  0.8690 -0.0089
18351TIP3    H276545   2.094   0.955   2.488  0.5803 -1.7230 -1.5851
18352TIP3   OH276546   3.263   3.921   3.355  0.3624  0.0466  0.1932
18352TIP3    H176547   3.202   3.858   3.393  0.3193 -0.4096 -0.6108
18352TIP3    H276548   3.232   4.006   3.386 -0.5023 -0.2066  0.0494
18353TIP3   OH276549   1.355   5.670   0.952 -0.0713  0.6016  0.0711
18353TIP3    H176550   1.323   5.581   0.969 -0.2077  0.6788  0.2118
18353TIP3    H276551   1.285   5.712   0.902 -0.1019  0.7024  0.1983
18354TIP3   OH276552   2.256   2.555   1.029  0.1418  0.0753  0.2562
18354TIP3    H176553   2.178   2.585   0.982  0.3540 -0.4937 -0.4856
18354TIP3    H276554   2.221   2.497   1.097 -0.2016  1.2948  1.1465
18355TIP3   OH276555   4.014   3.079   5.864  0.1151 -0.2427  0.1489
18355TIP3    H176556   3.984   3.117   5.782 -0.6469  1.5022  1.1757
18355TIP3    H276557   3.937   3.078   5.920  0.9952  0.3122  1.4304
18356TIP3   OH276558   0.630   5.735   3.847  0.3019 -0.5401  0.2950
18356TIP3    H176559   0.561   5.676   3.877  0.0558  0.0919  0.9746
18356TIP3    H276560   0.606   5.755   3.756  0.1236 -1.0884  0.2151
18357TIP3   OH276561   0.995   6.185  11.866  0.5549  0.0923 -0.3028
18357TIP3    H176562   0.997   6.227  11.780  1.9739  1.8695  0.5298
18357TIP3    H276563   1.027   6.252  11.926  0.8967 -1.5371  1.4283
18358TIP3   OH276564   2.852   0.747   5.215 -0.8702 -0.0951  0.3063
18358TIP3    H176565   2.849   0.677   5.280 -2.0037 -1.0015 -0.6891
18358TIP3    H276566   2.912   0.715   5.148 -0.3666  0.4757  0.4724
18359TIP3   OH276567   3.801   2.574  12.612 -0.4062  0.5783  0.4437
18359TIP3    H176568   3.793   2.480  12.596 -1.7489  0.6501  0.5301
18359TIP3    H276569   3.743   2.614  12.547  1.2171  1.4581 -0.5333
18360TIP3   OH276570   1.426   2.250  16.793 -0.4897 -0.8551 -0.1545
18360TIP3    H176571   1.411   2.345  16.792 -3.3570 -1.2288 -0.8017
18360TIP3    H276572   1.461   2.233  16.881  0.9840  0.8604 -0.3380
18361TIP3   OH276573   6.736   0.322   4.094 -0.0309 -0.4460 -0.1601
18361TIP3    H176574   6.820   0.324   4.140  0.0916 -0.2306 -0.3889
18361TIP3    H276575   6.673   0.294   4.160 -0.3260  2.3900  0.9072
18362TIP3   OH276576   6.054   2.009   3.749  0.3861  0.0877  0.5409
18362TIP3    H176577   6.067   1.933   3.804  0.3837 -0.7405 -0.5670
18362TIP3    H276578   6.136   2.058   3.755  1.1744 -1.0802 -0.3392
18363TIP3   OH276579   2.818   4.067  16.016 -0.5011  0.4359  0.2022
18363TIP3    H176580   2.743   4.087  16.071 -0.1345 -0.2966  0.9944
18363TIP3    H276581   2.815   3.971  16.006 -0.1852  0.4937 -0.5051
18364TIP3   OH276582   2.796   3.174   3.411  0.2386  0.0792 -0.0182
18364TIP3    H176583   2.861   3.231   3.370  0.0903  0.3569  0.1245
18364TIP3    H276584   2.815   3.087   3.377  0.8097  0.1212  0.1793
18365TIP3   OH276585   1.527   4.877  17.249 -0.8873 -0.2956 -0.1733
18365TIP3    H176586   1.528   4.951  17.309  1.1502  1.0653 -1.7572
18365TIP3    H276587   1.548   4.801  17.304  1.2437  0.9445  0.8252
18366TIP3   OH276588   1.731   0.984   1.176  0.1721  0.1355  0.3752
18366TIP3    H176589   1.738   1.041   1.252 -0.0858  0.0056  0.4978
18366TIP3    H276590   1.820   0.978   1.142  0.7418 -1.6708  2.0167
18367TIP3   OH276591   5.754   3.094  14.229  0.2687  0.0713  0.3487
18367TIP3    H176592   5.690   3.159  14.200 -0.5783  0.5031  2.9436
18367TIP3    H276593   5.838   3.139  14.222 -0.3692  1.9458  2.9822
18368TIP3   OH276594   2.330   6.705  12.184  0.1131  0.0285  0.0616
18368TIP3    H176595   2.387   6.637  12.149  0.9499  0.6068  0.2840
18368TIP3    H276596   2.388   6.778  12.203 -0.5630  0.3120  1.1215
18369TIP3   OH276597   1.661   1.374   3.420  0.1680 -0.5726 -0.0696
18369TIP3    H176598   1.623   1.458   3.446  1.0529 -0.3425  0.5070
18369TIP3    H276599   1.730   1.397   3.358  0.8759 -0.8081  0.6115
18370TIP3   OH276600   1.035   0.969  11.055  0.7495  0.3740 -0.1204
18370TIP3    H176601   0.948   0.976  11.015  1.0438  2.5320 -0.4744
18370TIP3    H276602   1.096   0.976  10.981  1.2581  1.6362  0.4041
18371TIP3   OH276603   2.544   4.594  13.288  0.2770 -0.2099  0.4263
18371TIP3    H176604   2.544   4.689  13.277  2.2635 -0.2434 -0.3722
18371TIP3    H276605   2.457   4.567  13.260 -0.8204  1.4652  1.9624
18372TIP3   OH276606   4.902   1.688   5.288  0.1217 -0.1350 -0.1019
18372TIP3    H176607   4.912   1.701   5.193 -0.3028  3.1876  0.1959
18372TIP3    H276608   4.984   1.721   5.325  0.1132 -1.0259  0.7522
18373TIP3   OH276609   2.535   2.286  14.575 -0.0220  0.5615  0.2160
18373TIP3    H176610   2.468   2.321  14.632 -0.8949 -0.5887 -0.0613
18373TIP3    H276611   2.559   2.358  14.517 -1.0054  0.9916  0.3400
18374TIP3   OH276612   1.098   1.286   5.956 -0.2526 -0.5823  0.2442
18374TIP3    H176613   1.182   1.330   5.942  0.6005 -2.5075 -1.1900
18374TIP3    H276614   1.095   1.270   6.051  0.8351 -0.1753  0.3609
18375TIP3   OH276615   2.497   4.424  12.249  0.2248 -0.3465  0.1865
18375TIP3    H176616   2.492   4.504  12.301  1.0038 -0.0546 -0.1718
18375TIP3    H276617   2.519   4.454  12.161  0.3961 -0.9514  0.0197
18376TIP3   OH276618   6.131   5.177   4.764  0.0228  0.6751 -0.1810
18376TIP3    H176619   6.220   5.196   4.735  0.0875 -0.7468 -1.0004
18376TIP3    H276620   6.135   5.179   4.859  0.6398  1.8264 -0.2135
18377TIP3   OH276621   3.620   1.318  16.289 -0.4228  0.2046 -0.1854
18377TIP3    H176622   3.540   1.365  16.311 -0.5097  0.0308 -0.1303
18377TIP3    H276623   3.590   1.235  16.252 -0.3236  1.0518 -2.3192
18378TIP3   OH276624   3.164   4.454  17.143 -0.2564 -0.3603  0.3803
18378TIP3    H176625   3.224   4.471  17.215 -0.9363  0.3125  0.7986
18378TIP3    H276626   3.211   4.392  17.087  0.3466 -0.7635  1.3067
18379TIP3   OH276627   5.670   5.724   0.391  0.3686  0.7075 -0.6493
18379TIP3    H176628   5.741   5.775   0.430 -0.3500  0.8848  0.4661
18379TIP3    H276629   5.688   5.727   0.297  3.4297 -1.6168 -0.3029
18380TIP3   OH276630   3.263   3.246   2.825  0.2388 -0.0537  0.3360
18380TIP3    H176631   3.184   3.217   2.778 -1.7026  3.1032  1.3205
18380TIP3    H276632   3.319   3.283   2.757  0.9022 -2.1377 -0.3478
18381TIP3   OH276633   3.272   0.221   2.649  0.3154  0.0666  0.9944
18381TIP3    H176634   3.178   0.231   2.664  0.2726 -1.5756  2.0965
18381TIP3    H276635   3.279   0.146   2.590  0.8843  1.4436 -0.7688
18382TIP3   OH276636   1.199   2.864  13.009  0.0052 -0.0889  0.1955
18382TIP3    H176637   1.266   2.826  13.066  0.4698 -0.2919 -0.4754
18382TIP3    H276638   1.247   2.928  12.956 -0.8655  1.9743  1.7560
18383TIP3   OH276639   6.345   2.507  10.515  0.3679  0.6599  0.0389
18383TIP3    H176640   6.251   2.523  10.528  0.0627 -0.4454 -0.6398
18383TIP3    H276641   6.374   2.578  10.458 -0.1543  0.8014 -0.0518
18384TIP3   OH276642   5.877   0.009   0.706 -0.2496 -0.5925 -0.3736
18384TIP3    H176643   5.791   0.032   0.670 -2.2821 -0.3535  4.0157
18384TIP3    H276644   5.906   0.089   0.750  0.8002 -1.5196  0.6794
18385TIP3   OH276645   5.671   5.269   1.630  0.0691 -0.1262 -0.0049
18385TIP3    H176646   5.697   5.177   1.624 -0.7061 -0.3559  0.0309
18385TIP3    H276647   5.742   5.317   1.587 -0.0734 -0.8347 -1.0511
18386TIP3   OH276648   3.272   3.869   1.899 -0.2825  0.9682  0.3598
18386TIP3    H176649   3.257   3.805   1.830 -0.2570  2.7318 -1.3806
18386TIP3    H276650   3.186   3.910   1.912 -0.5299 -0.0438  2.1573
18387TIP3   OH276651   4.520   3.366  14.236 -0.0671  0.6001  0.1173
18387TIP3    H176652   4.463   3.413  14.174 -0.5684  0.2567  0.3101
18387TIP3    H276653   4.542   3.284  14.191  0.7204  0.9642 -0.1754
18388TIP3   OH276654   3.649   6.223   1.006  0.0160 -0.5220 -0.0573
18388TIP3    H176655   3.570   6.194   1.053  0.0724 -1.2825 -0.4157
18388TIP3    H276656   3.641   6.183   0.919 -0.0600  0.8312 -0.6854
18389TIP3   OH276657   3.340   1.191  14.915  0.2455 -0.0254 -0.2213
18389TIP3    H176658   3.390   1.264  14.952 -1.4947  0.7088  0.7580
18389TIP3    H276659   3.316   1.220  14.828  1.3164 -0.3007 -0.6236
18390TIP3   OH276660   1.836   3.676  12.458 -0.3440 -0.6422  0.2597
18390TIP3    H176661   1.755   3.709  12.495 -1.0495 -1.5830 -0.4022
18390TIP3    H276662   1.810   3.629  12.379  0.9577 -0.0499 -0.5734
18391TIP3   OH276663   2.203   0.790   3.298  0.2050  0.4824  0.1018
18391TIP3    H176664   2.141   0.822   3.234  1.1650  0.7668 -0.7078
18391TIP3    H276665   2.192   0.695   3.298  1.5835  0.2571 -2.0175
18392TIP3   OH276666   5.345   6.485   3.290 -0.2359 -0.6119  0.0510
18392TIP3    H176667   5.305   6.570   3.310 -1.8013 -1.5202  1.0055
18392TIP3    H276668   5.362   6.446   3.375 -0.0623 -1.4825 -0.3732
18393TIP3   OH276669   0.773   0.250   2.005 -0.1328 -0.0914 -0.2275
18393TIP3    H176670   0.802   0.187   2.072  0.6900  0.3392 -0.1654
18393TIP3    H276671   0.690   0.284   2.040  0.7993  0.9130  1.1306
18394TIP3   OH276672   6.198   4.226  16.171 -0.0265  0.2596  0.5194
18394TIP3    H176673   6.135   4.244  16.241  0.7719  0.3927  1.2215
18394TIP3    H276674   6.238   4.143  16.196 -3.1475 -2.3702 -2.3125
18395TIP3   OH276675   4.195   2.299   0.707 -0.2262 -0.0675 -0.5392
18395TIP3    H176676   4.118   2.242   0.701 -1.3982  1.4656 -0.7775
18395TIP3    H276677   4.262   2.255   0.654 -1.0914 -1.1930 -0.7384
18396TIP3   OH276678   4.849   1.013   0.624  0.0854  0.3293  0.2805
18396TIP3    H176679   4.805   0.950   0.681 -0.4229  0.7066  0.3122
18396TIP3    H276680   4.909   0.960   0.572  1.2282  0.0881  1.7771
18397TIP3   OH276681   3.096   3.910   4.744 -0.2093 -0.0567 -0.0001
18397TIP3    H176682   3.170   3.865   4.704  0.4784  0.6485  0.4339
18397TIP3    H276683   3.051   3.953   4.671  1.3358  1.6582 -0.0185
18398TIP3   OH276684   3.800   2.390   3.138  0.1540  0.4540 -0.2344
18398TIP3    H176685   3.815   2.378   3.045  0.0518  1.1218 -0.3423
18398TIP3    H276686   3.887   2.383   3.178  0.4024  1.5661 -0.5439
18399TIP3   OH276687   6.630   1.763   5.051 -0.5063  0.1812 -0.3233
18399TIP3    H176688   6.617   1.782   5.144 -0.2175 -0.2556 -0.1928
18399TIP3    H276689   6.543   1.738   5.020 -0.7572  1.0557 -0.3471
18400TIP3   OH276690   2.510   1.096  11.236 -0.3098  0.8431 -0.3397
18400TIP3    H176691   2.443   1.159  11.209 -1.8127 -1.0445 -1.2419
18400TIP3    H276692   2.550   1.067  11.155  0.2740  0.5091  0.0597
18401TIP3   OH276693   6.403   0.131  15.151 -0.1654 -0.5766 -0.0618
18401TIP3    H176694   6.350   0.206  15.127  0.3541 -0.4840 -0.9672
18401TIP3    H276695   6.488   0.168  15.175 -0.5571 -0.6975  1.6468
18402TIP3   OH276696   6.558   0.902   5.293  0.1908 -0.1977 -0.0451
18402TIP3    H176697   6.482   0.956   5.269  1.1231  0.9939 -0.3661
18402TIP3    H276698   6.560   0.906   5.389 -1.3174 -1.9115  0.1285
18403TIP3   OH276699   3.713   0.122  12.918  0.2051  0.1422 -0.1616
18403TIP3    H176700   3.628   0.141  12.957  0.3192  2.2259 -0.8120
18403TIP3    H276701   3.693   0.088  12.831  0.0299 -0.3275  0.0602
18404TIP3   OH276702   0.965   3.665   3.360 -0.3360  0.0636 -0.0189
18404TIP3    H176703   1.000   3.620   3.437 -1.2427 -2.7312 -1.0986
18404TIP3    H276704   1.022   3.638   3.288  0.0065  1.9713 -0.5156
18405TIP3   OH276705   1.607   4.017   0.177  0.0431  0.3232  0.4959
18405TIP3    H176706   1.682   3.960   0.163  0.5791  1.3444 -1.1590
18405TIP3    H276707   1.630   4.069   0.254  1.0902  0.6769 -0.0386
18406TIP3   OH276708   2.788   5.284  12.149 -0.3646 -0.1955 -0.0014
18406TIP3    H176709   2.779   5.290  12.054 -0.0066  0.2694 -0.0091
18406TIP3    H276710   2.708   5.240  12.177 -1.1690  0.9492 -0.3895
18407TIP3   OH276711   1.411   4.287  11.583 -0.5313 -0.4095  0.0480
18407TIP3    H176712   1.408   4.359  11.519 -0.5149 -0.0043  0.4970
18407TIP3    H276713   1.381   4.327  11.664  0.4651 -0.6579  0.5457
18408TIP3   OH276714   2.742   5.814   4.175  0.7841 -0.0780 -0.4360
18408TIP3    H176715   2.815   5.774   4.221  0.6934  0.7839  0.4995
18408TIP3    H276716   2.745   5.906   4.201 -0.1039  0.1482 -1.0855
18409TIP3   OH276717   1.493   6.614  16.424 -0.6731  0.6107 -0.0869
18409TIP3    H176718   1.491   6.685  16.360 -2.7109  0.7756  0.0993
18409TIP3    H276719   1.456   6.653  16.504 -2.9152 -0.9026 -0.3105
18410TIP3   OH276720   4.355   6.752  15.837  0.5451  0.1603 -0.4541
18410TIP3    H176721   4.409   6.758  15.758  0.5266 -2.3468 -0.7301
18410TIP3    H276722   4.415   6.720  15.905  0.4551  1.8618  0.4829
18411TIP3   OH276723   2.021   5.380  15.713 -0.3449  0.2441 -0.1540
18411TIP3    H176724   2.001   5.291  15.685 -1.5298  0.7699 -1.0642
18411TIP3    H276725   2.003   5.381  15.807 -0.6924 -0.3627 -0.2117
18412TIP3   OH276726   1.195   3.869   5.237 -0.0456 -0.2448  0.2328
18412TIP3    H176727   1.212   3.927   5.164  0.3406  1.0170  1.2822
18412TIP3    H276728   1.099   3.861   5.240 -0.0804  0.0504 -0.1257
18413TIP3   OH276729   3.743   2.076  13.938 -0.0409  0.5202 -0.2904
18413TIP3    H176730   3.747   1.982  13.957  0.3289  0.3985 -0.9546
18413TIP3    H276731   3.832   2.107  13.952 -0.5712  1.2278  2.0992
18414TIP3   OH276732   2.170   4.549   1.648  0.3180  0.0266 -0.0024
18414TIP3    H176733   2.234   4.596   1.595 -1.9099 -0.0257 -2.9605
18414TIP3    H276734   2.135   4.615   1.708  1.2137  0.6794 -0.1799
18415TIP3   OH276735   4.426   0.773  12.440  0.3077 -0.1365  0.3335
18415TIP3    H176736   4.349   0.721  12.417 -0.0596  0.3435  0.4510
18415TIP3    H276737   4.411   0.798  12.532  0.4355  0.2407  0.2539
18416TIP3   OH276738   4.257   1.362   3.152  0.0142 -0.0122 -0.2239
18416TIP3    H176739   4.347   1.347   3.178  0.6561  1.1275 -1.6264
18416TIP3    H276740   4.211   1.385   3.233  1.1930  0.3098  0.3665
18417TIP3   OH276741   6.549   5.404   5.311  0.4062  0.0845  0.3563
18417TIP3    H176742   6.568   5.436   5.223 -1.0148 -1.6890 -0.6544
18417TIP3    H276743   6.605   5.327   5.321 -0.6078 -0.6674  0.3532
18418TIP3   OH276744   5.127   4.163   2.931 -0.6060 -0.2047  1.0007
18418TIP3    H176745   5.085   4.225   2.991  1.2858  1.3126  0.8549
18418TIP3    H276746   5.118   4.203   2.845  1.0942  0.1913  0.9726
18419TIP3   OH276747   1.387   5.473  16.050 -0.0954  0.3329  0.2041
18419TIP3    H176748   1.362   5.497  15.961 -0.1042  1.2565  0.4371
18419TIP3    H276749   1.463   5.530  16.069 -0.5835  0.7159  1.0559
18420TIP3   OH276750   2.114   5.697   4.155  0.2675  0.1963  0.6741
18420TIP3    H176751   2.103   5.658   4.068  1.1530  1.8555 -0.2320
18420TIP3    H276752   2.117   5.622   4.214 -1.0162 -0.9449 -0.6280
18421TIP3   OH276753   0.725   5.917  12.198  0.8114  0.4461  0.1624
18421TIP3    H176754   0.689   5.901  12.110 -0.1001  1.0226  0.4095
18421TIP3    H276755   0.729   6.012  12.205 -1.9026  0.5463  1.7720
18422TIP3   OH276756   0.687   0.781   5.501 -0.2988 -0.0672  0.3796
18422TIP3    H176757   0.704   0.719   5.430  0.3080 -0.4700  0.8695
18422TIP3    H276758   0.674   0.865   5.457  1.3625 -0.0546 -0.1390
18423TIP3   OH276759   2.493   4.009   0.696 -0.5406  0.1442  0.2091
18423TIP3    H176760   2.444   3.976   0.772  1.9752  0.7118  2.2412
18423TIP3    H276761   2.584   4.005   0.724  0.4989  0.4766 -2.8252
18424TIP3   OH276762   2.459   6.441  16.939 -0.1149  0.3524 -0.3944
18424TIP3    H176763   2.511   6.364  16.916  0.8599 -0.0099  2.6041
18424TIP3    H276764   2.371   6.407  16.952  0.3432 -0.3584  1.0912
18425TIP3   OH276765   0.080   0.669   0.439 -0.1729  0.1819  0.3916
18425TIP3    H176766   0.162   0.703   0.405  1.1502 -0.8903  2.3245
18425TIP3    H276767   0.012   0.709   0.384  1.5941  1.3874 -1.0069
18426TIP3   OH276768   6.278   2.488  16.788 -0.3763 -0.1529  0.1252
18426TIP3    H176769   6.263   2.558  16.852 -0.9556  0.7925 -1.0066
18426TIP3    H276770   6.362   2.508  16.749 -0.7000  0.1217 -0.4451
18427TIP3   OH276771   0.862   5.663  14.101 -0.3701 -0.2902 -0.0128
18427TIP3    H176772   0.809   5.676  14.180  1.2127  0.4936  0.9862
18427TIP3    H276773   0.798   5.650  14.031 -1.8353 -0.6112  1.3246
18428TIP3   OH276774   1.906   4.283   1.817 -0.1140 -0.1391 -0.4955
18428TIP3    H176775   1.888   4.317   1.905  0.5563 -0.7429 -0.1084
18428TIP3    H276776   1.918   4.361   1.763 -0.3061  0.2387 -0.0001
18429TIP3   OH276777   3.665   1.424   3.496 -0.0918 -0.4936  0.4912
18429TIP3    H176778   3.645   1.418   3.403 -0.3465 -1.3085  0.5936
18429TIP3    H276779   3.599   1.483   3.532  2.2093  2.9710 -0.4629
18430TIP3   OH276780   3.707   4.221   0.073 -0.2994  0.6901 -0.2792
18430TIP3    H176781   3.761   4.288   0.116 -0.6299  1.0642 -0.4347
18430TIP3    H276782   3.630   4.269   0.043  0.4124  0.6763 -2.2783
18431TIP3   OH276783   6.447   0.551   5.563 -0.7937  0.2151 -0.5380
18431TIP3    H176784   6.495   0.630   5.540  0.9117 -0.5044  0.3441
18431TIP3    H276785   6.494   0.480   5.520 -1.5661 -0.4481 -0.3202
18432TIP3   OH276786   2.107   1.228  15.927  0.2796  0.0619  0.1077
18432TIP3    H176787   2.152   1.144  15.936  0.3339  0.1735  0.9451
18432TIP3    H276788   2.156   1.288  15.984 -0.6310  0.3073  0.6421
18433TIP3   OH276789   2.613   2.386   2.986  0.1939 -0.3149  0.1827
18433TIP3    H176790   2.525   2.399   3.021  0.1940  0.5143 -0.1199
18433TIP3    H276791   2.604   2.310   2.928 -0.0294 -1.0552  1.1592
18434TIP3   OH276792   3.415   4.493   4.605  0.2294 -0.1337 -0.3512
18434TIP3    H176793   3.502   4.500   4.645  0.1890  0.3485 -0.3333
18434TIP3    H276794   3.423   4.422   4.542  0.3564 -0.7589  0.3534
18435TIP3   OH276795   2.555   3.544   4.539  0.0387 -0.5706  0.5181
18435TIP3    H176796   2.576   3.603   4.467 -1.4777 -1.1881 -0.4795
18435TIP3    H276797   2.459   3.535   4.536  0.1243 -2.2355  1.2963
18436TIP3   OH276798   4.340   0.715   0.328  0.3047  0.4647  0.2180
18436TIP3    H176799   4.345   0.725   0.423 -2.7899 -0.2823  0.5758
18436TIP3    H276800   4.373   0.798   0.293  2.1655  0.4929  1.8448
18437TIP3   OH276801   1.580   5.358  13.366 -0.1937 -0.0303 -0.6700
18437TIP3    H176802   1.670   5.389  13.373 -1.0382  2.3343  1.1450
18437TIP3    H276803   1.588   5.267  13.336  2.7319  0.2340 -0.9860
18438TIP3   OH276804   5.527   6.263  12.225 -0.0142  0.5623  0.6198
18438TIP3    H176805   5.570   6.347  12.212 -1.7227  1.4017  0.1135
18438TIP3    H276806   5.593   6.198  12.198  1.2455  1.7151  0.7879
18439TIP3   OH276807   4.034   1.968   0.984 -0.1094  0.1857  0.1235
18439TIP3    H176808   4.040   1.974   1.079 -2.6734  2.5382  0.2672
18439TIP3    H276809   4.092   2.036   0.951  0.5483 -0.4285 -0.0058
18440TIP3   OH276810   5.968   1.568   0.605 -0.0675  0.3782  0.2864
18440TIP3    H176811   6.039   1.527   0.656  0.6672 -0.5996 -1.4314
18440TIP3    H276812   5.938   1.498   0.546  0.6488  2.0086 -2.1636
18441TIP3   OH276813   2.823   6.617   2.298 -0.4411  0.0340 -0.5328
18441TIP3    H176814   2.811   6.647   2.208 -0.8536  1.5285 -0.0142
18441TIP3    H276815   2.753   6.553   2.311 -1.1458  0.6976 -0.9228
18442TIP3   OH276816   2.129   1.460   6.177  0.0272  0.7154  0.2745
18442TIP3    H176817   2.191   1.509   6.231  1.4641  0.4527 -1.0492
18442TIP3    H276818   2.185   1.408   6.119 -1.4494  0.5586 -1.0568
18443TIP3   OH276819   1.032   5.998   5.481  1.3043  0.4970 -0.4714
18443TIP3    H176820   1.090   6.040   5.544  1.1447  2.5203 -1.5776
18443TIP3    H276821   1.089   5.975   5.407  1.5590 -2.1845  0.4750
18444TIP3   OH276822   6.536   3.478   4.305 -0.1159 -0.5013  0.1737
18444TIP3    H176823   6.486   3.557   4.282 -0.9720 -1.5240 -1.6217
18444TIP3    H276824   6.474   3.425   4.355 -0.2766 -1.0191 -0.5711
18445TIP3   OH276825   1.322   6.670  11.892  0.0426  0.3464 -0.0799
18445TIP3    H176826   1.300   6.761  11.914  0.4117  0.2631  0.6472
18445TIP3    H276827   1.288   6.658  11.803 -1.1585  0.8093  0.2991
18446TIP3   OH276828   2.845   3.091   5.277 -0.5068  0.0328  0.1571
18446TIP3    H176829   2.903   3.131   5.213  0.1355 -0.7881  0.2033
18446TIP3    H276830   2.904   3.057   5.345 -1.1450  0.4863  0.9512
18447TIP3   OH276831   5.357   3.306   3.100 -0.2820  0.3854  0.0204
18447TIP3    H176832   5.412   3.332   3.174 -0.5555 -0.6808  0.6144
18447TIP3    H276833   5.415   3.253   3.045 -0.8180 -1.2470  0.9482
18448TIP3   OH276834   0.727   4.307  12.393  0.1802  0.1269 -0.0896
18448TIP3    H176835   0.680   4.346  12.320  1.5040 -1.0422 -1.6426
18448TIP3    H276836   0.714   4.212  12.383  1.3714 -0.1220  0.4783
18449TIP3   OH276837   6.487   6.742   3.853  0.1038  0.3311 -0.1363
18449TIP3    H176838   6.556   6.807   3.862  0.5658 -0.1406 -0.1815
18449TIP3    H276839   6.516   6.668   3.907 -0.6995  0.3933  0.3934
18450TIP3   OH276840   1.308   2.827   2.690 -0.0923  0.6027 -0.0257
18450TIP3    H176841   1.263   2.750   2.657  2.1645 -0.5623 -0.5930
18450TIP3    H276842   1.275   2.838   2.779 -1.7560  0.0921 -0.5465
18451TIP3   OH276843   0.754   6.791  13.510  0.1030  0.6547 -0.4525
18451TIP3    H176844   0.777   6.751  13.594  1.9818  0.6057 -0.9572
18451TIP3    H276845   0.664   6.761  13.494  0.5329 -1.2690  0.4129
18452TIP3   OH276846   1.676   6.168  15.610 -0.2058  0.4602 -0.6062
18452TIP3    H176847   1.689   6.176  15.705 -0.6580 -2.3972 -0.2125
18452TIP3    H276848   1.600   6.223  15.591  0.3901  1.7302  0.5194
18453TIP3   OH276849   1.034   3.833   1.167  0.2273 -0.3607 -0.9397
18453TIP3    H176850   0.947   3.817   1.130 -0.4721 -0.3846  0.6490
18453TIP3    H276851   1.068   3.746   1.187  0.8228 -0.3784 -1.9618
18454TIP3   OH276852   5.878   6.413  12.218 -0.1307 -0.3189  0.0394
18454TIP3    H176853   5.880   6.380  12.308 -1.0831 -0.8586 -0.1229
18454TIP3    H276854   5.968   6.439  12.200  0.0391  0.0211  1.2304
18455TIP3   OH276855   0.762   6.099  12.011 -0.6274 -0.3064 -0.0610
18455TIP3    H176856   0.803   6.162  12.070 -0.9887  0.7468 -0.8973
18455TIP3    H276857   0.829   6.081  11.945 -1.2487  0.9588 -1.0901
18456TIP3   OH276858   4.568   5.291   4.339 -0.2743  0.2722 -0.0540
18456TIP3    H176859   4.567   5.273   4.245 -0.4545 -0.8264  0.1488
18456TIP3    H276860   4.661   5.294   4.362 -0.2354  0.3088 -0.2185
18457TIP3   OH276861   4.198   3.297  11.231  0.0489 -0.0423  0.8608
18457TIP3    H176862   4.165   3.378  11.193 -1.7348 -0.5836  1.1541
18457TIP3    H276863   4.171   3.300  11.322 -0.3364 -1.0884  0.7997
18458TIP3   OH276864   1.364   6.622   2.349  0.3185 -0.1236  0.0876
18458TIP3    H176865   1.417   6.643   2.272  0.1648  0.7445  0.2108
18458TIP3    H276866   1.390   6.686   2.414  1.4326 -1.6671  1.2520
18459TIP3   OH276867   6.516   6.671  11.872  0.3411 -0.6528 -0.1270
18459TIP3    H176868   6.486   6.601  11.931  2.3052 -0.4382  1.2209
18459TIP3    H276869   6.572   6.627  11.809  0.8253 -0.4264  0.1449
18460TIP3   OH276870   5.065   2.852   4.394  0.1616 -0.0923  0.3717
18460TIP3    H176871   5.109   2.909   4.456 -0.6999  0.6382  0.3316
18460TIP3    H276872   4.991   2.816   4.443  1.5661 -2.4535  0.8954
18461TIP3   OH276873   5.730   4.194  13.138 -1.1854  0.3361  0.1683
18461TIP3    H176874   5.767   4.108  13.117  1.3389  1.7201 -1.5799
18461TIP3    H276875   5.646   4.196  13.093 -0.7916 -0.8320 -0.6824
18462TIP3   OH276876   1.626   4.316  15.790  0.0388 -0.0111  0.0641
18462TIP3    H176877   1.596   4.405  15.771  0.7977  0.3968  0.6882
18462TIP3    H276878   1.676   4.325  15.871 -0.5117 -1.1451  0.5579
18463TIP3   OH276879   1.890   0.899   5.098 -0.3937 -0.1893 -0.0563
18463TIP3    H176880   1.798   0.874   5.094 -0.4888  0.1743 -0.1970
18463TIP3    H276881   1.892   0.989   5.065 -0.2693  0.5674  1.8620
18464TIP3   OH276882   2.803   1.487  12.330  0.4499 -0.6809 -0.3678
18464TIP3    H176883   2.893   1.518  12.323  0.3533 -0.1867  0.3768
18464TIP3    H276884   2.758   1.556  12.380 -0.2347 -1.1244 -0.3535
18465TIP3   OH276885   5.819   5.030   2.727  0.6313  0.6749  0.4093
18465TIP3    H176886   5.832   5.081   2.807  0.8380  0.1658  0.7057
18465TIP3    H276887   5.814   4.940   2.756  2.7822  0.2520 -0.3218
18466TIP3   OH276888   5.568   2.310  11.473  0.5133  0.0385  0.2485
18466TIP3    H176889   5.531   2.386  11.518  1.0117 -0.0183  0.7672
18466TIP3    H276890   5.517   2.302  11.393 -1.0140 -0.4021  1.2162
18467TIP3   OH276891   1.278   2.325   3.062  0.2542  0.0188 -0.4594
18467TIP3    H176892   1.258   2.314   3.155 -1.5100  0.8350 -0.6844
18467TIP3    H276893   1.357   2.380   3.061 -0.1739  0.6978  0.5811
18468TIP3   OH276894   3.956   1.773   1.524  0.2183 -0.0584  0.4909
18468TIP3    H176895   4.016   1.778   1.599  0.0169 -1.7456  0.8257
18468TIP3    H276896   3.902   1.696   1.543  0.6352 -0.9601 -1.7288
18469TIP3   OH276897   0.338   0.704  15.325 -0.0464 -0.6897 -0.9763
18469TIP3    H176898   0.274   0.672  15.262 -1.7903  1.1312 -0.2409
18469TIP3    H276899   0.316   0.660  15.407  1.5974 -2.3117 -1.3491
18470TIP3   OH276900   4.143   3.148   2.771  0.2854 -0.8409 -0.3398
18470TIP3    H176901   4.069   3.093   2.798  0.5092 -0.2797  1.5633
18470TIP3    H276902   4.184   3.100   2.699 -3.6937  0.2259 -3.7755
18471TIP3   OH276903   6.540   5.291   3.979 -0.5100  0.1713 -0.4146
18471TIP3    H176904   6.473   5.224   3.965 -0.1469 -0.2331 -0.2578
18471TIP3    H276905   6.501   5.371   3.945 -1.4620  0.1524  0.5793
18472TIP3   OH276906   1.572   0.766   2.263 -0.0689  0.1439  0.5058
18472TIP3    H176907   1.658   0.808   2.268 -1.3507  3.1489 -0.0716
18472TIP3    H276908   1.530   0.787   2.346 -0.2034 -1.4681  0.8702
18473TIP3   OH276909   1.477   5.815   5.853 -0.1522 -0.5352  0.0882
18473TIP3    H176910   1.486   5.849   5.942 -1.3862  1.5361 -0.5024
18473TIP3    H276911   1.383   5.820   5.834  0.1229 -0.5411 -1.4730
18474TIP3   OH276912   2.986   0.789  15.959  0.6656  0.1947 -0.3780
18474TIP3    H176913   3.070   0.770  15.916  1.2761  1.9105 -0.0162
18474TIP3    H276914   3.006   0.788  16.052 -0.1730 -1.2866 -0.1805
18475TIP3   OH276915   4.877   0.859  12.904  0.4792  0.2380 -0.0998
18475TIP3    H176916   4.797   0.847  12.955 -0.0994  1.7413 -0.6104
18475TIP3    H276917   4.848   0.857  12.813  1.3430 -1.2839 -0.3749
18476TIP3   OH276918   3.773   5.883   0.243 -0.1521  0.4257  0.0744
18476TIP3    H176919   3.744   5.974   0.246 -0.0195  0.4904 -0.5348
18476TIP3    H276920   3.691   5.832   0.243 -0.2559  0.5834 -0.7732
18477TIP3   OH276921   3.793   4.194   4.483  0.1707 -0.2008 -0.2316
18477TIP3    H176922   3.785   4.289   4.474  1.6322  0.0489  0.6905
18477TIP3    H276923   3.767   4.177   4.574 -0.0192 -0.6749 -0.3751
18478TIP3   OH276924   5.563   0.487  14.885  0.4031 -0.9679  0.1077
18478TIP3    H176925   5.531   0.563  14.934  1.1156  0.5747 -1.6763
18478TIP3    H276926   5.613   0.437  14.948  0.5181  0.4443  1.1804
18479TIP3   OH276927   0.157   5.242  10.274 -0.2676 -0.4642 -0.5386
18479TIP3    H176928   0.093   5.249  10.203 -1.4263 -2.2157  0.2615
18479TIP3    H276929   0.104   5.224  10.351  1.1149 -0.4694  0.4392
18480TIP3   OH276930   5.072   4.228  12.346 -0.2990  0.2854  0.2020
18480TIP3    H176931   5.068   4.211  12.440  0.9603  0.2574  0.2715
18480TIP3    H276932   4.988   4.198  12.312  0.2676 -2.3180  0.9077
18481TIP3   OH276933   3.506   0.597   2.101  0.7485  0.1059  0.7799
18481TIP3    H176934   3.551   0.540   2.038  1.3428  0.0988  1.2020
18481TIP3    H276935   3.478   0.538   2.171 -0.0084  0.0961  0.4838
18482TIP3   OH276936   5.152   5.187  13.673 -0.8911  0.5653 -0.0693
18482TIP3    H176937   5.086   5.159  13.609 -0.2515  0.0801 -0.5437
18482TIP3    H276938   5.110   5.176  13.758 -1.6411  0.8916 -0.3909
18483TIP3   OH276939   5.791   5.030   1.553 -0.2444 -0.3865 -0.2441
18483TIP3    H176940   5.883   5.034   1.581 -0.4204 -1.6664  0.6072
18483TIP3    H276941   5.790   5.077   1.469  0.9775  0.5254  0.2165
18484TIP3   OH276942   6.344   0.255   2.850 -0.0617 -0.2326 -0.3854
18484TIP3    H176943   6.329   0.222   2.939 -0.4452 -1.8380 -1.0083
18484TIP3    H276944   6.324   0.181   2.793 -1.5871  1.2609 -1.9453
18485TIP3   OH276945   1.948   3.024   4.321  0.3807  0.2436 -0.2440
18485TIP3    H176946   1.904   3.082   4.259 -1.2117  0.8431  1.3623
18485TIP3    H276947   1.894   3.028   4.400  2.1362 -0.7511  1.0826
18486TIP3   OH276948   5.829   2.781  10.786 -0.0803 -0.0084  0.0353
18486TIP3    H176949   5.908   2.734  10.763 -0.1254  1.0737 -2.8454
18486TIP3    H276950   5.760   2.739  10.734 -0.1520  2.8377 -2.5153
18487TIP3   OH276951   5.782   2.488  16.160 -0.2641 -0.0616 -0.0754
18487TIP3    H176952   5.832   2.567  16.182  0.1231 -0.3857  0.2316
18487TIP3    H276953   5.698   2.500  16.204 -0.6067  0.6612 -0.9109
18488TIP3   OH276954   5.792   0.712   0.576 -0.3531  0.6179  0.0057
18488TIP3    H176955   5.699   0.721   0.594 -0.2763  0.8145  0.3192
18488TIP3    H276956   5.832   0.696   0.662 -0.3009 -1.2641 -0.3320
18489TIP3   OH276957   4.413   2.804  16.168  0.1379  1.0026  0.3387
18489TIP3    H176958   4.378   2.723  16.206 -0.6011  1.7205  1.2453
18489TIP3    H276959   4.498   2.815  16.210  0.5276  0.3806 -0.2611
18490TIP3   OH276960   6.606   4.348  15.034 -0.8068  0.3009  0.3841
18490TIP3    H176961   6.685   4.313  15.075 -1.7752 -1.1277  1.0909
18490TIP3    H276962   6.634   4.373  14.946  0.5362  0.3168  0.7889
18491TIP3   OH276963   4.440   1.241  12.554  0.6692  0.1031  0.0254
18491TIP3    H176964   4.375   1.310  12.568  1.1822  0.9389 -1.4902
18491TIP3    H276965   4.420   1.206  12.468  1.3666 -0.6047  0.1350
18492TIP3   OH276966   6.482   6.338  13.776 -0.0794  0.2134  0.8065
18492TIP3    H176967   6.520   6.343  13.864  0.0869 -0.0551  0.7537
18492TIP3    H276968   6.469   6.244  13.762 -2.1522  0.3563  1.4071
18493TIP3   OH276969   2.303   5.581   0.041 -0.5320 -0.1242  0.3953
18493TIP3    H176970   2.240   5.589   0.113 -0.8954  0.9948 -0.0294
18493TIP3    H276971   2.291   5.661  -0.011  0.4039 -0.4573 -0.3666
18494TIP3   OH276972   3.756   4.792   1.363  0.4778 -0.1517  0.4786
18494TIP3    H176973   3.812   4.788   1.441  0.4464  1.7207  0.6372
18494TIP3    H276974   3.791   4.725   1.305  1.4026 -0.6054  1.5191
18495TIP3   OH276975   5.448   5.959  14.788  0.1046  0.2076 -0.3105
18495TIP3    H176976   5.414   5.970  14.699  0.2893  2.3125 -0.1754
18495TIP3    H276977   5.524   5.901  14.778 -2.2225 -2.9914 -0.8784
18496TIP3   OH276978   5.646   6.426  10.589 -0.1025  0.3098 -0.5521
18496TIP3    H176979   5.692   6.348  10.558  0.4468  1.1808 -2.0133
18496TIP3    H276980   5.706   6.464  10.653 -1.0400 -1.2410  1.3786
18497TIP3   OH276981   0.703   4.875  16.939  0.0835  0.3193 -0.5723
18497TIP3    H176982   0.753   4.851  16.861  0.1659 -0.7659 -0.2052
18497TIP3    H276983   0.616   4.899  16.906  0.2243  0.2097 -1.0248
18498TIP3   OH276984   2.658   4.822  14.157 -0.0432  0.4037  0.3511
18498TIP3    H176985   2.618   4.883  14.095 -0.7092  1.3581  1.6616
18498TIP3    H276986   2.736   4.791  14.113 -1.6655 -0.7505 -1.9017
18499TIP3   OH276987   3.616   2.928  13.716 -0.0411  0.1079 -0.3824
18499TIP3    H176988   3.521   2.915  13.718 -0.2949  1.8627  0.8541
18499TIP3    H276989   3.627   3.022  13.728  1.8357  0.1205 -1.8114
18500TIP3   OH276990   2.775   4.706  15.212 -0.3597  0.2669 -0.2424
18500TIP3    H176991   2.836   4.676  15.279  0.7106 -0.1964 -1.3839
18500TIP3    H276992   2.711   4.636  15.203 -0.8183  0.5605  0.6466
18501TIP3   OH276993   1.293   5.940   4.958  0.1725  0.1784  0.5044
18501TIP3    H176994   1.234   5.963   4.886 -2.3261  0.3572  2.4676
18501TIP3    H276995   1.318   6.025   4.995  0.5779  0.0481  0.5335
18502TIP3   OH276996   3.302   0.023   6.598 -0.3224  0.1660  0.3679
18502TIP3    H176997   3.235   0.076   6.642 -1.0364 -0.8591  0.5560
18502TIP3    H276998   3.335   0.079   6.528 -0.6595  1.0589  0.9040
18503TIP3   OH276999   1.887   0.702   1.651  0.6776 -0.0487 -0.3664
18503TIP3    H177000   1.973   0.741   1.669  1.4068 -2.1812  1.3146
18503TIP3    H277001   1.899   0.656   1.568  1.0386  0.0632 -0.3793
18504TIP3   OH277002   3.228   6.335  14.414 -0.2407 -0.8170  0.6267
18504TIP3    H177003   3.141   6.329  14.375  0.5137 -2.7020 -0.9159
18504TIP3    H277004   3.260   6.245  14.417  1.0128 -0.3831  2.7972
18505TIP3   OH277005   5.703   1.868  13.543 -0.1016  0.3145 -0.1453
18505TIP3    H177006   5.664   1.894  13.460 -1.4242 -0.3550  0.2385
18505TIP3    H277007   5.672   1.933  13.606  2.9040  2.3271 -0.5429
18506TIP3   OH277008   0.783   4.344  11.770  0.4111  0.0613 -0.1558
18506TIP3    H177009   0.835   4.271  11.736  2.5610 -0.4107  3.5870
18506TIP3    H277010   0.701   4.303  11.800  0.9422 -0.5822  0.4682
18507TIP3   OH277011   3.734   0.984   2.562 -0.5215  0.3912 -0.2612
18507TIP3    H177012   3.745   0.914   2.626 -0.3869  0.6749  0.0336
18507TIP3    H277013   3.644   1.014   2.573 -0.7059  0.0001 -0.6669
18508TIP3   OH277014   0.916   5.122  12.542  0.0585  0.1319  0.1266
18508TIP3    H177015   0.995   5.101  12.593  0.5589 -0.0381 -0.7047
18508TIP3    H277016   0.948   5.136  12.453 -0.5747  2.0534  0.1507
18509TIP3   OH277017   1.041   2.862  13.686  0.1845 -0.5557  0.0322
18509TIP3    H177018   1.135   2.845  13.693  0.4522  0.2333 -1.3102
18509TIP3    H277019   1.032   2.920  13.610 -1.2786  0.2934  0.7918
18510TIP3   OH277020   5.457   0.446   2.505  0.3490 -0.2178  0.0594
18510TIP3    H177021   5.402   0.394   2.446 -1.4995  2.0904 -0.4113
18510TIP3    H277022   5.546   0.428   2.476 -0.3854 -0.5962 -2.2377
18511TIP3   OH277023   6.248   2.494  13.838  0.1739  0.5039 -0.2254
18511TIP3    H177024   6.185   2.497  13.910 -0.0401 -1.7248 -0.2595
18511TIP3    H277025   6.194   2.484  13.760  0.4608 -2.7933 -0.1534
18512TIP3   OH277026   1.650   4.322   6.339 -0.4914 -0.2878  0.4391
18512TIP3    H177027   1.596   4.246   6.315 -0.5239  0.4820 -2.1212
18512TIP3    H277028   1.586   4.391   6.359 -0.4722 -0.0193 -0.4049
18513TIP3   OH277029   1.129   6.151   2.024  0.3793  0.2256 -0.0299
18513TIP3    H177030   1.075   6.073   2.012  1.0760 -0.5713  1.6516
18513TIP3    H277031   1.067   6.218   2.052 -0.0095 -0.1759  0.0950
18514TIP3   OH277032   1.290   0.000  14.867 -1.0136 -0.1750 -0.2330
18514TIP3    H177033   1.272   0.072  14.928 -2.4585  0.6849 -1.5940
18514TIP3    H277034   1.205  -0.043  14.855 -0.4171 -1.3396 -0.4068
18515TIP3   OH277035   6.696   3.120  11.414 -0.7379  0.1523 -0.0434
18515TIP3    H177036   6.643   3.101  11.337 -0.4616  1.5891 -0.6204
18515TIP3    H277037   6.700   3.036  11.461 -2.0681 -0.4135 -0.8526
18516TIP3   OH277038   4.432   2.340  12.014 -0.5071  0.0981  0.7300
18516TIP3    H177039   4.452   2.257  11.971 -2.9035 -0.4660  0.5692
18516TIP3    H277040   4.412   2.400  11.942  2.1473  1.2023  0.7746
18517TIP3   OH277041   3.537   0.631   0.823 -0.2169 -0.5129  0.2140
18517TIP3    H177042   3.507   0.710   0.778  0.7191 -0.0373  0.4011
18517TIP3    H277043   3.614   0.603   0.774  1.2488  0.4160  1.8760
18518TIP3   OH277044   4.011   5.555   0.171 -0.2105 -0.3578 -0.0478
18518TIP3    H177045   4.009   5.636   0.221 -1.5532 -0.4327  0.0605
18518TIP3    H277046   4.101   5.550   0.137  0.2218  0.5701  0.8903
18519TIP3   OH277047   2.078   0.914  14.512 -0.6481  0.0566  0.0037
18519TIP3    H177048   2.013   0.851  14.543  1.3013 -0.9488  2.4112
18519TIP3    H277049   2.160   0.865  14.509  0.4736  1.8589 -0.5567
18520TIP3   OH277050   6.524   6.389  17.086  0.0190  0.3301 -0.1965
18520TIP3    H177051   6.562   6.327  17.149 -1.7795 -0.7209 -0.0546
18520TIP3    H277052   6.440   6.349  17.062  0.5479  0.7718 -3.1709
18521TIP3   OH277053   2.958   6.255  11.486 -0.5435  0.3395  0.0478
18521TIP3    H177054   3.047   6.291  11.488  0.0949 -1.0682 -1.0263
18521TIP3    H277055   2.901   6.332  11.483  0.7038  1.2688 -1.0564
18522TIP3   OH277056   3.335   6.073  14.432 -0.1394  0.1134  0.1815
18522TIP3    H177057   3.298   6.067  14.520  0.9613  1.6067  0.8028
18522TIP3    H277058   3.378   5.988  14.419 -1.9725 -0.8628  0.2540
18523TIP3   OH277059   2.946   0.577  14.106 -0.4559  0.2996 -0.0553
18523TIP3    H177060   2.982   0.660  14.074 -1.9210  1.3778  0.9785
18523TIP3    H277061   2.852   0.591  14.109 -1.1647 -2.5688 -3.0453
18524TIP3   OH277062   5.506   3.119   4.919  0.2768 -0.5006 -0.6369
18524TIP3    H177063   5.464   3.138   4.835 -1.8984 -1.8800  0.0550
18524TIP3    H277064   5.494   3.025   4.931  1.1368 -0.4499  0.9366
18525TIP3   OH277065   2.378   3.863  11.109  0.1073  0.1972  0.4980
18525TIP3    H177066   2.336   3.803  11.048  2.1738  1.0150 -1.9355
18525TIP3    H277067   2.422   3.806  11.172 -1.5124 -0.6978  0.8595
18526TIP3   OH277068   0.163   0.462   4.709 -0.6588  0.4885 -0.2031
18526TIP3    H177069   0.179   0.382   4.760  0.1424  1.9053  1.9061
18526TIP3    H277070   0.068   0.473   4.711 -0.7471 -0.2451 -0.2280
18527TIP3   OH277071   6.777   1.626   2.927 -0.0706 -0.3150 -0.6316
18527TIP3    H177072   6.774   1.709   2.879  2.8477  0.6634  0.6081
18527TIP3    H277073   6.691   1.617   2.967 -0.7897  1.6089 -1.6399
18528TIP3   OH277074   2.187   2.619  13.342  0.0189 -0.0464 -0.2965
18528TIP3    H177075   2.219   2.558  13.276 -0.1813 -0.5150  0.0362
18528TIP3    H277076   2.127   2.567  13.396  2.0335 -0.3788  1.7963
18529TIP3   OH277077   2.465   2.757   1.398 -0.2468 -0.1912 -0.1568
18529TIP3    H177078   2.443   2.695   1.468  0.4167 -1.0132 -0.6599
18529TIP3    H277079   2.382   2.801   1.378 -0.2091  0.9917  2.0171
18530TIP3   OH277080   6.480   5.087   2.772 -0.6722  0.7568 -0.4851
18530TIP3    H177081   6.411   5.030   2.738 -0.7224  0.5146  0.0144
18530TIP3    H277082   6.502   5.145   2.698 -0.0674 -0.4180 -1.2675
18531TIP3   OH277083   6.386   3.090   1.946 -0.0553 -0.0523  0.4003
18531TIP3    H177084   6.459   3.041   1.909 -0.8715  0.0428 -1.4273
18531TIP3    H277085   6.328   3.023   1.983  0.2785 -0.2247  0.6185
18532TIP3   OH277086   0.060   4.177  12.415  0.0618 -1.1394  0.1936
18532TIP3    H177087   0.148   4.187  12.378  0.5438 -1.2051  1.2871
18532TIP3    H277088   0.054   4.247  12.481  0.2330 -2.6192  1.8573
18533TIP3   OH277089   3.601   5.099   3.126 -0.1670 -0.8439 -0.1041
18533TIP3    H177090   3.611   5.004   3.117  1.8922 -0.9461  2.1497
18533TIP3    H277091   3.655   5.136   3.056 -1.4627 -1.2773 -1.3772
18534TIP3   OH277092   5.554   3.263   1.754  0.2675  0.1161  0.2559
18534TIP3    H177093   5.585   3.198   1.818 -0.9784  0.2556  1.0448
18534TIP3    H277094   5.568   3.347   1.796  1.8416  0.3875 -0.7516
18535TIP3   OH277095   1.174   0.661   4.354 -0.3853 -0.1938 -0.3624
18535TIP3    H177096   1.135   0.735   4.402 -0.4795 -0.3085 -0.2629
18535TIP3    H277097   1.245   0.631   4.410 -3.4788 -3.5540  2.2485
18536TIP3   OH277098   1.283   1.083   2.410 -0.5671 -0.1106  0.3448
18536TIP3    H177099   1.324   1.142   2.346 -0.5310  0.5410  0.9601
18536TIP3    H277100   1.230   1.140   2.465  0.3586 -0.4823  1.6747
18537TIP3   OH277101   3.326   1.976   0.197  0.0979 -0.2009  0.3574
18537TIP3    H177102   3.295   1.885   0.208  0.0663 -0.2774 -0.2805
18537TIP3    H277103   3.419   1.967   0.179 -0.0060 -0.1490 -0.2297
18538TIP3   OH277104   0.633   1.568  15.981  0.6189  0.2187  0.2379
18538TIP3    H177105   0.708   1.513  15.957 -0.3716 -0.4106 -1.6437
18538TIP3    H277106   0.608   1.611  15.899 -1.7873 -0.5181  0.5073
18539TIP3   OH277107   5.478   0.416  13.251 -0.3302  0.4261 -0.9000
18539TIP3    H177108   5.527   0.384  13.175  0.9782  1.8449 -0.7114
18539TIP3    H277109   5.496   0.510  13.252  2.6274  0.0737  3.0935
18540TIP3   OH277110   0.466   4.727   6.268 -0.1579  0.4179  0.3672
18540TIP3    H177111   0.406   4.800   6.284 -0.7688 -0.3247  1.5981
18540TIP3    H277112   0.541   4.744   6.326  0.3185  0.7662 -0.3456
18541TIP3   OH277113   5.328   2.608   2.736  0.2129  0.0450  0.8370
18541TIP3    H177114   5.309   2.639   2.824  0.3630 -0.8334  1.1890
18541TIP3    H277115   5.314   2.684   2.680  0.5982  0.7492  1.6760
18542TIP3   OH277116   4.849   2.111   4.744  0.6546  0.1053 -0.3520
18542TIP3    H177117   4.799   2.086   4.666  0.4554  0.1358 -0.2355
18542TIP3    H277118   4.934   2.067   4.733 -0.2190 -1.9699  0.5963
18543TIP3   OH277119   4.972   4.214  15.781 -0.2160 -0.2991  0.1421
18543TIP3    H177120   4.924   4.200  15.699  1.1028 -1.0377 -0.5350
18543TIP3    H277121   4.978   4.126  15.820 -0.7068  0.0231  0.9808
18544TIP3   OH277122   5.910   5.846  14.303  0.1213  0.1849  0.4283
18544TIP3    H177123   5.947   5.902  14.235 -0.6044 -0.1052 -0.2205
18544TIP3    H277124   5.927   5.757  14.273  0.8838  0.0446  1.2415
18545TIP3   OH277125   5.191   4.063   0.234  0.1883 -0.2934 -0.2200
18545TIP3    H177126   5.132   4.092   0.165 -0.6584  1.0705  1.0072
18545TIP3    H277127   5.267   4.029   0.188 -0.4857  0.2571 -1.8176
18546TIP3   OH277128   6.399   2.266  13.965  0.4442  0.0637 -0.5636
18546TIP3    H177129   6.401   2.328  13.892 -1.1680 -1.5656 -2.0981
18546TIP3    H277130   6.485   2.225  13.964  0.5696  0.3149 -1.3228
18547TIP3   OH277131   3.366   2.097   3.367 -0.0701  0.0416  0.1547
18547TIP3    H177132   3.329   2.184   3.351  0.6819  0.1132 -1.4472
18547TIP3    H277133   3.295   2.047   3.407 -0.8272  1.1059  0.1703
18548TIP3   OH277134   4.386   4.876  16.333 -0.4698 -0.0876 -0.5732
18548TIP3    H177135   4.421   4.910  16.250 -1.4916  0.6334 -0.7312
18548TIP3    H277136   4.450   4.904  16.399 -0.5042  0.8098 -0.9039
18549TIP3   OH277137   2.404   4.161   3.547 -0.0520  0.2622 -0.3882
18549TIP3    H177138   2.454   4.227   3.500 -0.4649  1.8385  1.2747
18549TIP3    H277139   2.401   4.192   3.637 -1.1606 -1.5073  0.2513
18550TIP3   OH277140   5.015   0.448  11.984  0.2339 -0.2648  0.0194
18550TIP3    H177141   4.966   0.369  11.961 -2.6916  1.5541 -0.4283
18550TIP3    H277142   5.050   0.480  11.901 -1.9709  0.9743 -0.5003
18551TIP3   OH277143   3.235   5.448   0.307 -0.0947 -0.3590 -0.6650
18551TIP3    H177144   3.154   5.427   0.353  0.2729 -0.3783 -0.0097
18551TIP3    H277145   3.217   5.532   0.264 -0.8877 -0.9963 -1.6116
18552TIP3   OH277146   2.620   3.794   4.104  0.2561 -0.3683 -0.2836
18552TIP3    H177147   2.606   3.880   4.144  0.5701 -0.9017  1.0167
18552TIP3    H277148   2.713   3.777   4.117  0.1540 -0.9920 -0.3622
18553TIP3   OH277149   5.277   0.720  11.827  0.4688  0.3782 -0.1616
18553TIP3    H177150   5.197   0.708  11.776  1.0629 -0.6824 -0.8812
18553TIP3    H277151   5.328   0.785  11.778  1.1829 -0.8776 -1.1435
18554TIP3   OH277152   0.395   4.135  15.110  0.4515 -0.4308 -0.3654
18554TIP3    H177153   0.410   4.228  15.126 -0.5953 -0.4215  0.7914
18554TIP3    H277154   0.333   4.133  15.038  0.8209 -0.2477 -0.6906
18555TIP3   OH277155   3.636   1.221   2.711 -0.0529  0.5040  0.1207
18555TIP3    H177156   3.709   1.161   2.696 -0.6594 -0.5548  1.2765
18555TIP3    H277157   3.652   1.257   2.799  0.3913  2.2071 -0.6095
18556TIP3   OH277158   1.847   3.813  13.189  0.5932 -0.1930 -0.2667
18556TIP3    H177159   1.760   3.779  13.209  0.7613  0.2040  1.2173
18556TIP3    H277160   1.872   3.768  13.108  0.1241 -2.3495  0.7208
18557TIP3   OH277161   5.801   0.171  16.319 -0.1787 -0.1689 -0.3483
18557TIP3    H177162   5.744   0.097  16.294 -1.4684  0.1897  1.3408
18557TIP3    H277163   5.742   0.246  16.322  1.0178  0.8598 -1.5071
18558TIP3   OH277164   3.225   2.940   4.209 -0.5450  0.3594  0.5907
18558TIP3    H177165   3.299   2.913   4.262 -0.2579  1.1861  0.6342
18558TIP3    H277166   3.259   2.941   4.119 -0.2305  1.5511  0.6970
18559TIP3   OH277167   2.013   2.838  13.376 -0.2071 -0.5258  0.2794
18559TIP3    H177168   2.031   2.872  13.464 -0.0258 -1.6912  0.7122
18559TIP3    H277169   2.051   2.750  13.376  0.0933 -0.4200 -1.0808
18560TIP3   OH277170   5.019   3.965  14.888  0.0263  0.3240  0.2767
18560TIP3    H177171   5.112   3.966  14.867  0.1011 -1.3981  0.3668
18560TIP3    H277172   5.007   3.884  14.938 -1.2129  1.3603  1.7654
18561TIP3   OH277173   5.494   2.829   1.712 -0.2519  0.3538  0.3007
18561TIP3    H177174   5.425   2.895   1.715 -0.8271 -0.2540  1.3580
18561TIP3    H277175   5.446   2.746   1.702  0.4622  0.0974 -1.2083
18562TIP3   OH277176   3.643   6.079   0.770  0.2632  0.2817 -0.0319
18562TIP3    H177177   3.662   6.085   0.677 -0.9121  1.2542 -0.2284
18562TIP3    H277178   3.557   6.037   0.775  0.4815 -0.1154  0.6469
18563TIP3   OH277179   0.149   6.164  12.802  0.2815  0.4598 -0.6529
18563TIP3    H177180   0.124   6.122  12.720  0.9637 -0.9011 -0.1894
18563TIP3    H277181   0.075   6.220  12.824 -1.2221 -1.4404 -0.6655
18564TIP3   OH277182   3.645   5.552  15.417  0.0187  0.0292  0.2424
18564TIP3    H177183   3.731   5.514  15.435  0.6223  0.7021 -1.0948
18564TIP3    H277184   3.617   5.510  15.336 -0.0296  1.2227 -0.3797
18565TIP3   OH277185   4.396   2.941  12.923  0.1187  0.1990  0.0345
18565TIP3    H177186   4.396   3.033  12.896 -0.7190  0.0817 -0.3930
18565TIP3    H277187   4.337   2.897  12.861  0.3976 -0.6002  0.3207
18566TIP3   OH277188   4.253   0.916  12.933  0.2458 -0.0527  0.3138
18566TIP3    H177189   4.340   0.950  12.912 -0.0476 -0.4803 -1.9140
18566TIP3    H277190   4.195   0.964  12.873 -0.7753 -1.1638  0.3936
18567TIP3   OH277191   3.000   0.046  13.894  0.8891 -0.2970 -1.1406
18567TIP3    H177192   3.095   0.052  13.894  0.8156  1.7954 -1.9584
18567TIP3    H277193   2.978   0.015  13.982  2.2795  1.2231 -0.1879
18568TIP3   OH277194   5.168   4.725   4.105  0.5882 -0.4635 -0.0859
18568TIP3    H177195   5.117   4.778   4.044 -1.7627 -2.4601  0.0229
18568TIP3    H277196   5.224   4.671   4.049  0.0803 -0.6886 -0.3825
18569TIP3   OH277197   4.987   6.051  12.993  0.1140  0.0032 -0.6669
18569TIP3    H177198   4.956   6.119  12.933  0.4512  1.3954  0.6729
18569TIP3    H277199   4.948   6.074  13.078  2.6077  0.2888  0.4892
18570TIP3   OH277200   2.759   2.306  14.754 -0.0865 -0.3085 -0.2748
18570TIP3    H177201   2.809   2.343  14.681 -1.5721 -0.9200 -1.6470
18570TIP3    H277202   2.670   2.298  14.721 -0.7897 -0.6919  1.5933
18571TIP3   OH277203   3.856   1.997  12.302  0.3849  0.2635  0.1555
18571TIP3    H177204   3.882   1.910  12.333 -0.2660  0.7946  2.2890
18571TIP3    H277205   3.924   2.056  12.336  0.0122  0.7890  0.0070
18572TIP3   OH277206   3.787   4.902  11.477 -0.1102  0.0612 -0.1152
18572TIP3    H177207   3.789   4.934  11.387 -1.0094  0.5322  0.0191
18572TIP3    H277208   3.833   4.819  11.475 -0.8743 -0.3501 -1.1775
18573TIP3   OH277209   0.515   5.012  13.858  0.2730 -0.6520 -0.5291
18573TIP3    H177210   0.497   5.089  13.804  2.1858 -0.1524 -0.5029
18573TIP3    H277211   0.439   4.955  13.844 -2.6687  2.3641  1.6806
18574TIP3   OH277212   1.841   5.875  12.681 -0.2222  0.4045  0.0899
18574TIP3    H177213   1.865   5.894  12.772 -0.1480  1.1945 -0.0927
18574TIP3    H277214   1.754   5.836  12.687  0.4145 -1.0376  0.6264
18575TIP3   OH277215   3.100   0.482  15.506  0.0171 -0.5570  0.0889
18575TIP3    H177216   3.070   0.394  15.483 -2.8400  0.5503 -0.7793
18575TIP3    H277217   3.096   0.484  15.601 -0.5018 -1.1616  0.0899
18576TIP3   OH277218   5.871   5.646  15.364  1.0107 -0.1613  0.0049
18576TIP3    H177219   5.934   5.576  15.348  1.5262  0.7276 -2.2564
18576TIP3    H277220   5.805   5.635  15.295 -1.0532 -0.6673  1.9142
18577TIP3   OH277221   1.552   1.089   3.029  0.5299 -0.0206 -0.0685
18577TIP3    H177222   1.555   1.100   3.124  0.1941  0.2073 -0.0824
18577TIP3    H277223   1.575   1.175   2.994  1.4208 -0.3032 -0.2022
18578TIP3   OH277224   0.620   1.294   5.454  0.2316 -0.4510  0.2919
18578TIP3    H177225   0.598   1.228   5.389 -1.7467 -0.8574  1.2913
18578TIP3    H277226   0.536   1.324   5.488  1.1742 -0.3420  2.7344
18579TIP3   OH277227   2.545   5.317  14.838 -0.5182 -0.4748 -0.1056
18579TIP3    H177228   2.590   5.236  14.862 -0.5466 -0.5262 -0.2236
18579TIP3    H277229   2.525   5.307  14.744  0.4545  0.1284 -0.3948
18580TIP3   OH277230   0.094   4.658   4.148  0.1443  0.0376 -0.2142
18580TIP3    H177231   0.027   4.646   4.216 -0.5004  0.3379 -0.7835
18580TIP3    H277232   0.143   4.735   4.176 -0.9899  0.9902 -0.7618
18581TIP3   OH277233   2.032   2.663   2.755  0.0835  0.4575 -0.0004
18581TIP3    H177234   2.021   2.742   2.702  2.6396 -0.0768 -1.5186
18581TIP3    H277235   2.006   2.592   2.696 -1.7633  0.0667  1.2049
18582TIP3   OH277236   5.645   3.992  12.732 -0.3266 -0.1279  0.1046
18582TIP3    H177237   5.633   3.933  12.657 -0.6699  0.6138 -0.4378
18582TIP3    H277238   5.589   3.956  12.800 -0.5623 -0.4079 -0.2353
18583TIP3   OH277239   6.709   3.821   3.188 -0.2085 -0.1502 -0.0810
18583TIP3    H177240   6.731   3.873   3.110 -1.3339 -0.0553 -0.3588
18583TIP3    H277241   6.656   3.880   3.241  3.2002  0.9799  2.4165
18584TIP3   OH277242   2.020   1.179   4.276 -0.5020  0.6084  0.1046
18584TIP3    H177243   2.040   1.215   4.190 -0.2431 -0.8633 -0.4800
18584TIP3    H277244   1.951   1.115   4.260 -0.4867  0.3491  1.0093
18585TIP3   OH277245   4.873   6.445   3.436 -0.5773 -0.8220 -0.0852
18585TIP3    H177246   4.813   6.450   3.362 -0.7203 -2.3754 -0.1080
18585TIP3    H277247   4.899   6.536   3.452 -3.3217 -0.0269  0.2759
18586TIP3   OH277248   3.332   3.650  15.786  0.1734  0.8275  0.5016
18586TIP3    H177249   3.308   3.651  15.694  1.6708  1.6356  0.0888
18586TIP3    H277250   3.260   3.696  15.830 -0.4013  0.7129 -0.2972
18587TIP3   OH277251   0.231   4.273  14.923  0.2832  0.0483  0.4296
18587TIP3    H177252   0.267   4.271  14.835 -1.0084 -1.3570 -0.0992
18587TIP3    H277253   0.195   4.362  14.932 -0.3435 -0.0537 -0.8017
18588TIP3   OH277254   2.730   4.009  17.103 -0.1314 -0.5414 -0.5445
18588TIP3    H177255   2.678   4.004  17.183  0.8073  0.9539  0.1873
18588TIP3    H277256   2.706   4.093  17.064  1.0636 -0.2425 -0.6687
18589TIP3   OH277257   4.937   4.112  16.964 -0.0041 -0.5439 -0.6988
18589TIP3    H177258   4.907   4.027  16.932  1.1448 -1.1528 -0.2330
18589TIP3    H277259   4.859   4.153  17.000 -0.7616 -1.0066 -1.7560
18590TIP3   OH277260   2.084   6.298   4.636  0.0538  0.2083  0.5121
18590TIP3    H177261   2.125   6.344   4.563 -1.0490  0.1940 -0.1298
18590TIP3    H277262   2.083   6.206   4.609  1.1384 -0.0524  1.2687
18591TIP3   OH277263   1.607   5.190   4.396 -0.3625  0.5166  0.4726
18591TIP3    H177264   1.683   5.236   4.432 -0.8145  1.2907  0.4645
18591TIP3    H277265   1.532   5.234   4.436 -0.8016 -0.7109  1.0367
18592TIP3   OH277266   1.962   2.424   1.172  0.6723  0.2288  0.4401
18592TIP3    H177267   1.978   2.359   1.240 -2.6402  0.5499  1.7119
18592TIP3    H277268   1.893   2.387   1.118  0.5179  1.6121 -0.3677
18593TIP3   OH277269   4.590   4.326  13.341  0.1153  0.3101 -0.2526
18593TIP3    H177270   4.678   4.341  13.374 -0.2697  1.5120  0.3025
18593TIP3    H277271   4.533   4.366  13.407 -0.9294 -1.6656  0.1155
18594TIP3   OH277272   4.013   1.060  14.619  0.3732  0.2213  0.4394
18594TIP3    H177273   3.924   1.036  14.645  0.6800 -1.2916  0.2222
18594TIP3    H277274   4.002   1.130  14.555 -0.6258  0.4718  0.8675
18595TIP3   OH277275   1.463   0.792   4.317  1.0940  0.3978 -0.1394
18595TIP3    H177276   1.480   0.806   4.410  2.0339  1.8476 -0.4920
18595TIP3    H277277   1.549   0.774   4.279  1.0079  1.6020 -0.9774
18596TIP3   OH277278   2.582   4.942   5.791  0.2158 -0.2676 -0.1668
18596TIP3    H177279   2.617   4.898   5.714 -0.3945 -0.1428 -0.5208
18596TIP3    H277280   2.487   4.935   5.782  0.1292  0.1579  0.3326
18597TIP3   OH277281   6.123   1.478  15.568 -0.6834 -0.4843  0.0922
18597TIP3    H177282   6.047   1.526  15.601 -0.3423  0.7391 -0.7791
18597TIP3    H277283   6.098   1.386  15.573 -2.4048 -0.0978 -0.5726
18598TIP3   OH277284   2.727   2.633  16.106 -0.0474  0.3217  0.0430
18598TIP3    H177285   2.656   2.671  16.158 -0.9198 -1.0711 -0.0815
18598TIP3    H277286   2.783   2.588  16.169 -0.6047 -0.5925 -0.0932
18599TIP3   OH277287   3.906   1.630  14.665  0.0113 -0.4604 -0.2394
18599TIP3    H177288   3.976   1.614  14.601  1.9340 -0.6941  1.7928
18599TIP3    H277289   3.910   1.554  14.724 -2.0820 -0.5341 -0.1299
18600TIP3   OH277290   6.146   1.510  11.848 -0.0222 -0.0123  0.0785
18600TIP3    H177291   6.186   1.465  11.922 -1.1292  0.1652  0.8117
18600TIP3    H277292   6.188   1.471  11.771  1.6308  0.2781  0.7914
18601TIP3   OH277293   5.257   0.175  11.247 -0.2647 -0.3803 -0.2917
18601TIP3    H177294   5.212   0.129  11.176  0.3978  1.2359 -1.8249
18601TIP3    H277295   5.322   0.112  11.279 -2.4010 -2.1646  0.8612
18602TIP3   OH277296   3.619   2.440   0.092  0.1942  0.2168  0.5129
18602TIP3    H177297   3.680   2.481   0.154  0.5049 -0.6554  0.7915
18602TIP3    H277298   3.533   2.474   0.117  0.6237  2.1324 -0.4262
18603TIP3   OH277299   3.686   0.108  10.615  0.1323 -0.4119 -0.6859
18603TIP3    H177300   3.768   0.098  10.664  0.1271  2.0861 -0.0063
18603TIP3    H277301   3.677   0.027  10.566  2.7213 -0.9969 -0.3478
18604TIP3   OH277302   4.397   4.648  11.985  0.4768 -0.3805  0.0085
18604TIP3    H177303   4.437   4.609  11.907  1.6838  0.3225  0.2492
18604TIP3    H277304   4.471   4.683  12.035 -0.5028  2.2829 -0.2197
18605TIP3   OH277305   6.249   1.344  10.819  0.7770 -0.7051 -0.1631
18605TIP3    H177306   6.288   1.377  10.738 -2.3299 -1.0304 -1.9198
18605TIP3    H277307   6.180   1.285  10.791  0.0802 -1.4572  2.7746
18606TIP3   OH277308   2.939   2.641  11.606  0.7385 -0.0449 -0.1687
18606TIP3    H177309   2.848   2.617  11.622  0.5881  0.2605 -0.5510
18606TIP3    H277310   2.968   2.680  11.688  0.3505  0.3734 -0.2251
18607TIP3   OH277311   3.341   6.791   2.439 -0.1462 -0.3665 -0.1806
18607TIP3    H177312   3.422   6.812   2.393  0.0666  0.4787  0.5495
18607TIP3    H277313   3.275   6.788   2.370  0.4491 -0.7795 -0.7501
18608TIP3   OH277314   0.795   4.600  13.035  0.0850 -0.5759  0.1299
18608TIP3    H177315   0.770   4.565  12.949  0.7110  0.7234 -0.6059
18608TIP3    H277316   0.880   4.560  13.053  1.0323  0.8648 -0.9387
18609TIP3   OH277317   5.719   5.363  12.706 -0.1301 -0.6234 -0.3029
18609TIP3    H177318   5.806   5.336  12.675  0.7568  0.0352  1.4748
18609TIP3    H277319   5.668   5.282  12.709  0.3441 -0.9896 -1.5460
18610TIP3   OH277320   4.168   3.802  14.111  0.0390 -0.1662  0.1333
18610TIP3    H177321   4.077   3.824  14.131 -0.9879 -0.8708 -3.0190
18610TIP3    H277322   4.209   3.886  14.089 -0.0297  0.0754  0.9103
18611TIP3   OH277323   1.188   5.461   4.111 -0.2953  0.2243  0.1315
18611TIP3    H177324   1.258   5.431   4.054  1.7816  1.5985  1.8107
18611TIP3    H277325   1.142   5.529   4.060  0.4924  0.2955 -0.4957
18612TIP3   OH277326   1.686   3.990   5.974  0.4896  0.2213 -0.4417
18612TIP3    H177327   1.661   4.073   6.014 -0.2340 -0.1311 -0.1461
18612TIP3    H277328   1.782   3.993   5.969  0.4919  0.8911 -0.0494
18613TIP3   OH277329   6.798   2.004   1.543  0.0790 -0.3143  1.1483
18613TIP3    H177330   6.798   2.007   1.639 -0.8741 -0.9844  1.1867
18613TIP3    H277331   6.706   1.992   1.520  0.2805  0.0238  0.1363
18614TIP3   OH277332   0.972   6.681   5.793 -0.5036 -0.3317 -0.5864
18614TIP3    H177333   0.878   6.669   5.781 -0.1638 -3.0394 -0.9668
18614TIP3    H277334   1.012   6.643   5.715  1.0051 -2.2255  1.0045
18615TIP3   OH277335   6.020   4.865   1.372 -0.0498 -0.3200 -0.3113
18615TIP3    H177336   6.093   4.909   1.328  0.4007 -1.2794 -0.5510
18615TIP3    H277337   6.057   4.784   1.405 -0.3793  0.3620  1.8809
18616TIP3   OH277338   2.035   1.000   5.532 -0.7944 -0.2145  0.3406
18616TIP3    H177339   2.073   1.048   5.459 -1.6943 -1.2297 -0.8276
18616TIP3    H277340   2.067   1.046   5.610  1.4409 -0.0120 -0.6075
18617TIP3   OH277341   4.105   0.355  14.602  0.3882 -0.0120 -1.0908
18617TIP3    H177342   4.113   0.424  14.536 -1.6338  0.8751 -0.4681
18617TIP3    H277343   4.101   0.401  14.685 -1.5547 -0.8005 -0.7042
18618TIP3   OH277344   4.522   2.201  15.292 -0.1518 -0.4685 -0.2429
18618TIP3    H177345   4.541   2.252  15.213 -1.0925 -1.6434 -1.2905
18618TIP3    H277346   4.605   2.159  15.315  0.7116  1.6638  0.8077
18619TIP3   OH277347   2.102   1.257  13.245 -0.1089 -0.1574 -0.1522
18619TIP3    H177348   2.029   1.247  13.306  0.7021 -1.6624  0.6220
18619TIP3    H277349   2.083   1.339  13.199 -2.9119 -1.0766 -0.8684
18620TIP3   OH277350   6.470   3.977   2.894  0.3683 -0.0822 -0.2186
18620TIP3    H177351   6.485   4.055   2.840 -0.0788  0.6414  0.6749
18620TIP3    H277352   6.557   3.937   2.903  0.7187  0.6704 -0.1732
18621TIP3   OH277353   3.331   0.691  12.083 -0.2127  0.4474 -0.0339
18621TIP3    H177354   3.368   0.733  12.007 -1.6594  1.4992 -0.1955
18621TIP3    H277355   3.242   0.726  12.090 -0.7318 -0.9480  1.1003
18622TIP3   OH277356   0.535   5.088  16.243  0.2227  0.5455  0.0711
18622TIP3    H177357   0.501   5.135  16.318  1.7088  1.9618 -0.1000
18622TIP3    H277358   0.505   4.998  16.255 -1.2177  1.1604  1.3006
18623TIP3   OH277359   4.308   0.308   5.356  0.4182 -0.6210 -0.4861
18623TIP3    H177360   4.227   0.306   5.408  0.3631  1.6612 -0.3460
18623TIP3    H277361   4.284   0.359   5.278  1.3847 -1.0903 -1.1088
18624TIP3   OH277362   2.345   5.197   0.796  0.3465 -0.0071  0.1872
18624TIP3    H177363   2.297   5.273   0.763  0.7649  0.4989  0.7444
18624TIP3    H277364   2.280   5.150   0.849  0.1994  0.1668  0.1636
18625TIP3   OH277365   0.767   2.857  17.264  0.8503 -0.2572 -0.2527
18625TIP3    H177366   0.845   2.837  17.214  1.5037 -1.1939  1.0768
18625TIP3    H277367   0.707   2.784  17.247  0.6128  0.0020 -0.5527
18626TIP3   OH277368   4.572   1.410   1.811 -0.4954 -0.5557  0.0345
18626TIP3    H177369   4.628   1.361   1.751  0.0285 -1.9081  1.5524
18626TIP3    H277370   4.631   1.469   1.857 -0.7915  0.0267 -0.3252
18627TIP3   OH277371   3.233   0.074  15.477 -0.0856  0.4090  0.1609
18627TIP3    H177372   3.326   0.051  15.477 -0.2428 -0.2541  0.3468
18627TIP3    H277373   3.199   0.035  15.558 -0.3635  1.3412  0.5140
18628TIP3   OH277374   3.779   5.613   2.982 -0.3488  0.4216  0.8611
18628TIP3    H177375   3.713   5.545   2.974  0.7653 -0.5670 -0.3400
18628TIP3    H277376   3.861   5.565   2.995  0.0650  1.6247  3.2765
18629TIP3   OH277377   0.077   2.224   4.836  0.5671  0.2141  0.4218
18629TIP3    H177378   0.066   2.133   4.865  0.4902  0.4025  0.9882
18629TIP3    H277379   0.159   2.252   4.874  0.6087  0.3744  0.2147
18630TIP3   OH277380   1.096   6.235   3.387 -0.1099  0.1088 -0.5832
18630TIP3    H177381   1.141   6.259   3.467 -1.2072 -0.4510  0.2251
18630TIP3    H277382   1.107   6.311   3.330  0.9038  0.4069 -0.0113
18631TIP3   OH277383   0.557   2.049   0.358 -0.1079  0.1360  0.2116
18631TIP3    H177384   0.612   2.018   0.430 -1.1096 -0.5961  0.6988
18631TIP3    H277385   0.475   2.000   0.369 -1.5597  2.4972  0.6464
18632TIP3   OH277386   5.205   2.635  13.830  0.2302 -0.1767 -0.3181
18632TIP3    H177387   5.147   2.649  13.755  1.1983  0.6068 -0.9513
18632TIP3    H277388   5.155   2.667  13.905 -0.3895 -0.0865 -0.7640
18633TIP3   OH277389   6.039   5.915  13.554 -0.1818 -0.1932  0.1911
18633TIP3    H177390   6.071   5.929  13.643  0.3331 -1.8724  0.3120
18633TIP3    H277391   6.057   5.998  13.509 -0.8736  0.8440  1.7452
18634TIP3   OH277392   2.575   6.581  14.497  0.1549 -0.2471 -0.1579
18634TIP3    H177393   2.554   6.674  14.493 -0.0537 -0.3261 -1.1903
18634TIP3    H277394   2.670   6.578  14.496  0.1799 -0.0314  0.5867
18635TIP3   OH277395   3.697   4.734  12.942 -0.4680 -0.0440  0.4130
18635TIP3    H177396   3.661   4.740  13.031 -1.9736  0.3555 -0.1929
18635TIP3    H277397   3.625   4.700  12.890 -0.6425  2.5770 -1.2312
18636TIP3   OH277398   3.627   1.545   2.170 -0.0441 -0.5533  0.2432
18636TIP3    H177399   3.615   1.531   2.076 -0.9859  1.7449 -0.0515
18636TIP3    H277400   3.616   1.459   2.209  2.2688 -1.9480 -1.8781
18637TIP3   OH277401   4.135   5.302   1.323  0.8766 -0.0842 -0.7059
18637TIP3    H177402   4.098   5.382   1.286 -1.8574 -1.5503 -1.4360
18637TIP3    H277403   4.179   5.259   1.249 -0.3487 -0.6884 -1.1058
18638TIP3   OH277404   6.207   1.865   5.242 -0.0782 -0.0393  0.9775
18638TIP3    H177405   6.168   1.853   5.329 -1.0766  1.5368  0.7953
18638TIP3    H277406   6.137   1.905   5.190  0.8071 -0.0835 -0.2908
18639TIP3   OH277407   4.175   3.001  17.232  0.0868  0.7744  0.2560
18639TIP3    H177408   4.136   2.999  17.144  3.3527  1.0022 -1.3359
18639TIP3    H277409   4.147   2.918  17.271 -3.0360  1.4924 -0.1193
18640TIP3   OH277410   4.984   0.231   4.973  0.6425  0.4872  0.2717
18640TIP3    H177411   4.900   0.216   5.015 -0.3190  2.5497 -0.7927
18640TIP3    H277412   5.033   0.286   5.034 -0.1418  2.1384 -0.5186
18641TIP3   OH277413   4.829   2.725  16.620  0.3223  0.5813 -0.1876
18641TIP3    H177414   4.859   2.735  16.711 -1.3314 -0.2149  0.4781
18641TIP3    H277415   4.735   2.713  16.627  0.1104  0.8708 -2.0631
18642TIP3   OH277416   0.862   1.516  15.651  0.3661  0.7655  0.7538
18642TIP3    H177417   0.861   1.592  15.709  0.8547  1.4462 -0.1027
18642TIP3    H277418   0.954   1.499  15.634  0.2650 -0.1149  1.0481
18643TIP3   OH277419   0.874   2.177  14.046 -0.4834  0.0015 -0.2383
18643TIP3    H177420   0.850   2.270  14.045 -0.8748 -0.1009 -0.8190
18643TIP3    H277421   0.862   2.148  13.955 -2.3626 -1.1210  0.2990
18644TIP3   OH277422   0.478   4.080   3.414  0.8414 -0.0471 -0.8109
18644TIP3    H177423   0.464   4.128   3.333 -0.0967 -2.1030 -1.9335
18644TIP3    H277424   0.476   4.147   3.482 -2.4578  1.3482 -2.0617
18645TIP3   OH277425   1.233   4.590   4.545 -0.2997 -0.2018 -0.0282
18645TIP3    H177426   1.179   4.541   4.607  2.2509 -2.1437  0.8135
18645TIP3    H277427   1.312   4.536   4.533  1.1013  2.0537 -1.8418
18646TIP3   OH277428   6.130   0.546  17.063  0.1589  0.2017  0.2498
18646TIP3    H177429   6.121   0.472  17.123  0.2911  2.0213  2.6196
18646TIP3    H277430   6.054   0.539  17.005 -0.1062 -1.4764  0.7336
18647TIP3   OH277431   5.301   4.143   4.633  0.1210  0.3808 -0.5167
18647TIP3    H177432   5.333   4.084   4.565 -0.7082 -0.6569 -0.0268
18647TIP3    H277433   5.305   4.092   4.713 -2.5803  0.2330 -0.3944
18648TIP3   OH277434   0.655   0.541  12.881 -0.6428 -1.1145 -0.0148
18648TIP3    H177435   0.737   0.568  12.923  0.1120 -1.5705 -1.1289
18648TIP3    H277436   0.628   0.463  12.929 -0.2906 -1.0998  0.2122
18649TIP3   OH277437   6.171   1.715   4.685  0.3104  0.0174 -0.1746
18649TIP3    H177438   6.093   1.662   4.699  0.0567  0.4390  0.0463
18649TIP3    H277439   6.137   1.803   4.665  0.7262  0.2667  0.1916
18650TIP3   OH277440   1.874   0.284  12.548 -0.2947  0.3439 -0.0091
18650TIP3    H177441   1.898   0.194  12.527  0.2906  0.5794 -0.3806
18650TIP3    H277442   1.957   0.331  12.553 -0.4726  0.5370  1.8510
18651TIP3   OH277443   6.807   6.651  14.614 -0.0603  0.6842  0.0954
18651TIP3    H177444   6.818   6.732  14.564 -0.5108 -0.7959 -2.6316
18651TIP3    H277445   6.720   6.620  14.590  0.1858 -0.7185  0.9031
18652TIP3   OH277446   4.082   3.292  15.058  0.1128 -0.1445  0.3290
18652TIP3    H177447   4.172   3.265  15.076 -0.5838 -3.2393 -0.1558
18652TIP3    H277448   4.062   3.252  14.973 -1.4683  1.2168  0.0029
18653TIP3   OH277449   4.086   5.059   0.948  0.4775 -0.0547 -0.6319
18653TIP3    H177450   4.112   4.968   0.935  0.5768  0.2671 -3.2853
18653TIP3    H277451   4.155   5.096   1.003  0.8620 -1.3570 -0.1832
18654TIP3   OH277452   2.029   3.973   0.851  0.1449 -0.0546  0.7451
18654TIP3    H177453   1.940   3.954   0.879 -0.2370  1.2386  0.4758
18654TIP3    H277454   2.071   3.887   0.846 -1.2305 -0.7371  0.3438
18655TIP3   OH277455   6.272   0.632   4.621  0.3841 -0.1200  0.1489
18655TIP3    H177456   6.283   0.660   4.712 -0.4637  0.4152  0.1046
18655TIP3    H277457   6.257   0.714   4.573  0.9337 -0.3881 -0.4916
18656TIP3   OH277458   1.824   3.035  12.256 -0.0012 -0.2857 -0.4590
18656TIP3    H177459   1.886   3.075  12.317 -0.8122 -0.5875  0.5833
18656TIP3    H277460   1.758   3.102  12.241 -0.5462 -0.6908  0.0953
18657TIP3   OH277461   0.228   5.506  14.346 -0.3968 -0.2844 -0.0798
18657TIP3    H177462   0.182   5.532  14.266  1.8497 -0.2796 -1.4344
18657TIP3    H277463   0.291   5.576  14.362 -0.5310 -0.4739  1.5078
18658TIP3   OH277464   1.288   2.752  13.291  0.0211  0.1086  0.0836
18658TIP3    H177465   1.301   2.689  13.362  1.6469  0.6528  0.3147
18658TIP3    H277466   1.294   2.838  13.334  1.1284  0.4433 -0.7186
18659TIP3   OH277467   4.053   6.172  14.897  0.4983 -0.1003  0.2459
18659TIP3    H177468   3.992   6.216  14.956  1.1057 -1.7221  2.1745
18659TIP3    H277469   3.999   6.109  14.849  0.3244 -0.1615  0.5218
18660TIP3   OH277470   0.998   2.584  13.254 -0.4826  0.0047 -0.4066
18660TIP3    H177471   1.087   2.615  13.268  0.0713 -1.1684 -1.1844
18660TIP3    H277472   0.962   2.644  13.189 -0.4690  0.8219  0.3226
18661TIP3   OH277473   3.926   5.292  12.830 -0.0131  0.2009  0.0228
18661TIP3    H177474   3.859   5.260  12.889  0.4800  0.0663  0.5150
18661TIP3    H277475   3.959   5.214  12.785  1.0244  0.0246  1.0532
18662TIP3   OH277476   3.218   3.105  13.907 -0.3637 -0.0904  0.2725
18662TIP3    H177477   3.170   3.128  13.986  0.8101  0.4004  0.8629
18662TIP3    H277478   3.270   3.182  13.887  0.9527 -0.9439  0.2429
18663TIP3   OH277479   5.281   0.202  14.249  0.2991  0.2549  0.4841
18663TIP3    H177480   5.250   0.132  14.192 -0.3499  0.9102  0.0245
18663TIP3    H277481   5.321   0.266  14.190 -1.6610  1.6390  0.5530
18664TIP3   OH277482   0.830   5.975   2.103  0.5187 -0.3847 -0.2989
18664TIP3    H177483   0.883   6.011   2.174  1.2579 -2.0005  0.0048
18664TIP3    H277484   0.889   5.975   2.027  0.5086 -0.8818 -0.3093
18665TIP3   OH277485   0.171   1.102   4.934 -0.2175 -0.2021 -0.1235
18665TIP3    H177486   0.088   1.132   4.971 -0.2538 -0.0064 -0.3637
18665TIP3    H277487   0.168   1.007   4.942  0.1182 -0.1298  1.1182
18666TIP3   OH277488   6.076   2.702  15.568  0.1845  0.4719  0.1683
18666TIP3    H177489   5.993   2.664  15.598 -0.2162  0.1895 -1.2437
18666TIP3    H277490   6.126   2.715  15.649 -0.6985 -0.6036  0.9271
18667TIP3   OH277491   1.122   5.975   4.721 -0.1892  0.3080 -0.1965
18667TIP3    H177492   1.052   5.941   4.666 -0.1282 -1.9879  1.0237
18667TIP3    H277493   1.116   6.070   4.711 -3.8488  0.2966  0.2511
18668TIP3   OH277494   3.188   1.795   3.210 -0.4917 -0.4881 -0.6526
18668TIP3    H177495   3.148   1.716   3.173 -0.4799 -1.3885  1.1646
18668TIP3    H277496   3.282   1.777   3.209 -0.3657  0.1317 -1.5645
18669TIP3   OH277497   4.954   4.241  12.036  0.0090  0.5334  0.4172
18669TIP3    H177498   4.929   4.193  12.115 -0.8456 -3.1649 -1.8671
18669TIP3    H277499   4.882   4.226  11.975  1.8491  0.8382 -1.9789
18670TIP3   OH277500   6.571   6.697  12.473 -0.4707  0.1780  0.1128
18670TIP3    H177501   6.614   6.626  12.425  1.3200  0.5381  1.0786
18670TIP3    H277502   6.642   6.742  12.517 -1.6402  2.2374  0.0058
18671TIP3   OH277503   0.964   0.539  15.529  0.1616  0.1549 -0.0693
18671TIP3    H177504   0.890   0.495  15.487 -1.5060  3.1962 -0.6851
18671TIP3    H277505   0.928   0.574  15.611  0.8836  1.6620 -0.3519
18672TIP3   OH277506   6.713   4.876   0.687 -0.2082 -0.2150 -0.2137
18672TIP3    H177507   6.675   4.822   0.618  1.0253  0.1158 -1.2038
18672TIP3    H277508   6.776   4.819   0.730 -0.3492 -0.1622  0.0623
18673TIP3   OH277509   4.264   1.384  11.487 -0.0345  0.3486 -0.0478
18673TIP3    H177510   4.273   1.355  11.397 -1.6095  2.2037 -0.8822
18673TIP3    H277511   4.219   1.312  11.531 -1.5330  0.3891 -1.4053
18674TIP3   OH277512   5.265   5.729  13.227 -0.1431 -0.0831 -0.0746
18674TIP3    H177513   5.185   5.677  13.218 -0.1537 -0.1901  0.5725
18674TIP3    H277514   5.279   5.734  13.322  1.1881 -0.9427 -0.1996
18675TIP3   OH277515   3.791   0.487  13.575  0.4537 -0.2895  0.4189
18675TIP3    H177516   3.771   0.406  13.622  0.8704 -1.1571 -0.8503
18675TIP3    H277517   3.714   0.501  13.520  1.1788 -0.9030 -0.7890
18676TIP3   OH277518   4.086   3.644  13.541  0.2927 -0.2815 -0.4657
18676TIP3    H177519   4.056   3.567  13.492 -0.4051  0.4396 -1.1935
18676TIP3    H277520   4.029   3.646  13.618 -0.7466  0.3712 -1.2221
18677TIP3   OH277521   5.386   5.676   1.862  0.3960 -0.4179  0.8796
18677TIP3    H177522   5.454   5.659   1.928  0.5080 -1.3750  0.5239
18677TIP3    H277523   5.338   5.594   1.854 -0.2524 -0.0106  0.4812
18678TIP3   OH277524   1.583   6.570   5.680  0.0897  0.5002 -0.1678
18678TIP3    H177525   1.619   6.555   5.767  1.5931 -0.6536 -0.9322
18678TIP3    H277526   1.659   6.585   5.624 -0.5720 -1.3887 -1.7393
18679TIP3   OH277527   0.012   6.576   4.632  0.1926  0.4522  0.1480
18679TIP3    H177528   0.048   6.659   4.664  0.9491  0.2652 -0.1725
18679TIP3    H277529  -0.021   6.532   4.710 -1.0307  1.4296  0.2051
18680TIP3   OH277530   4.099   5.022  12.215 -0.4344 -0.0501 -0.0219
18680TIP3    H177531   4.153   5.054  12.143  1.0148  0.0328  1.0632
18680TIP3    H277532   4.070   4.935  12.188  3.1892 -1.6781  0.7499
18681TIP3   OH277533   0.051   4.878  13.513 -0.4921 -0.2524 -0.2729
18681TIP3    H177534   0.012   4.948  13.460  0.4636  1.7471  1.5202
18681TIP3    H277535   0.145   4.892  13.505 -0.1965 -2.2466 -0.9512
18682TIP3   OH277536   0.939   4.051  14.572 -0.0123 -0.2057  0.8105
18682TIP3    H177537   1.017   3.995  14.576  1.1176  1.1466 -0.7852
18682TIP3    H277538   0.886   4.014  14.502 -0.7200 -0.9807  1.7331
18683TIP3   OH277539   2.148   3.063   4.744  0.0096  0.2063  0.3164
18683TIP3    H177540   2.059   3.098   4.730  0.2872  0.7834 -0.0703
18683TIP3    H277541   2.141   3.011   4.824 -0.3260  1.5640  1.2059
18684TIP3   OH277542   3.254   5.490   5.084 -0.3167  0.3270  0.6454
18684TIP3    H177543   3.253   5.565   5.144  0.0747  0.7009  0.1905
18684TIP3    H277544   3.336   5.499   5.035 -1.4695  1.1171 -1.2784
18685TIP3   OH277545   1.063   2.898   1.544 -0.4684 -0.2997 -0.4205
18685TIP3    H177546   1.053   2.965   1.476 -0.4437 -1.1707 -1.2897
18685TIP3    H277547   0.978   2.896   1.589 -0.5471  0.1383 -0.5471
18686TIP3   OH277548   3.569   3.048  17.143  0.5792 -0.1894  0.0647
18686TIP3    H177549   3.593   2.976  17.085  1.8964  0.3480 -0.1028
18686TIP3    H277550   3.645   3.106  17.141 -0.3032  1.0250  0.4790
18687TIP3   OH277551   5.463   1.286   1.426 -0.0627  0.5504  0.4155
18687TIP3    H177552   5.453   1.374   1.463  0.7554  1.7133 -1.9004
18687TIP3    H277553   5.374   1.258   1.406 -0.2756  1.3265  0.2290
18688TIP3   OH277554   4.244   2.682   5.637 -0.4534  0.4788  0.4402
18688TIP3    H177555   4.196   2.765   5.634 -0.9178  0.2484  1.2656
18688TIP3    H277556   4.193   2.622   5.582  0.6685  1.1043 -1.3989
18689TIP3   OH277557   1.591   0.468  12.436 -0.3315  0.1493 -0.7026
18689TIP3    H177558   1.656   0.530  12.468  0.6633 -0.4460 -1.5221
18689TIP3    H277559   1.628   0.382  12.454 -1.7656 -0.2472  0.5671
18690TIP3   OH277560   5.344   6.466  13.998 -0.3229  0.0559  0.3865
18690TIP3    H177561   5.317   6.497  13.912 -1.0260  2.0388  1.2669
18690TIP3    H277562   5.263   6.439  14.041 -0.0504 -0.3621  0.6570
18691TIP3   OH277563   2.652   6.763   5.792 -0.0463 -0.5333 -0.5387
18691TIP3    H177564   2.674   6.680   5.751  0.1915 -1.2060  0.8822
18691TIP3    H277565   2.606   6.739   5.873 -2.0929  0.7654 -1.2172
18692TIP3   OH277566   0.929   2.301   2.168  0.1456 -0.6344  0.1162
18692TIP3    H177567   0.926   2.397   2.158  0.5821 -0.4222  1.8267
18692TIP3    H277568   0.999   2.273   2.109  0.7134  0.2100  0.3752
18693TIP3   OH277569   2.509   0.270   4.832 -0.0052  0.1730 -0.2223
18693TIP3    H177570   2.514   0.256   4.738  1.2298  1.2180 -0.3380
18693TIP3    H277571   2.555   0.194   4.870 -0.3545 -0.1584 -0.4535
18694TIP3   OH277572   3.549   6.432   4.046  0.4493 -0.2308  0.0249
18694TIP3    H177573   3.531   6.405   4.136  1.8933 -0.9509  0.1325
18694TIP3    H277574   3.621   6.374   4.018 -1.3107 -1.4659 -2.2933
18695TIP3   OH277575   5.441   4.028   3.854  0.0459  0.0855 -0.1898
18695TIP3    H177576   5.492   4.064   3.781  0.8816 -1.1884 -0.2508
18695TIP3    H277577   5.377   3.971   3.812 -0.1543  0.1601  0.0142
18696TIP3   OH277578   0.147   3.097   0.112  0.0346  0.1848 -0.3142
18696TIP3    H177579   0.119   3.068   0.199  0.9035 -1.0327 -0.4050
18696TIP3    H277580   0.241   3.076   0.109 -0.2353 -0.9419 -1.9783
18697TIP3   OH277581   6.097   6.207   0.797  0.2076  0.1508 -0.1807
18697TIP3    H177582   6.162   6.226   0.865  0.2353  1.7362 -0.6176
18697TIP3    H277583   6.148   6.182   0.720  0.2845  0.9713 -0.3969
18698TIP3   OH277584   0.379   4.618  12.190  0.6757  0.3142  0.2455
18698TIP3    H177585   0.448   4.648  12.130  0.3331 -0.7518 -0.7121
18698TIP3    H277586   0.324   4.695  12.203  1.8118  1.0760  0.7130
18699TIP3   OH277587   2.099   5.547   0.208  0.0636  0.4270  0.2789
18699TIP3    H177588   2.068   5.539   0.117  1.0092  0.9011 -0.1012
18699TIP3    H277589   2.020   5.569   0.258 -0.7573 -1.2938 -0.1744
18700TIP3   OH277590   1.714   2.898  14.175  0.0866  0.2160 -0.1497
18700TIP3    H177591   1.670   2.908  14.259 -0.4949 -0.7030 -0.3302
18700TIP3    H277592   1.767   2.978  14.165 -0.7282  0.8526  0.5488
18701TIP3   OH277593   5.583   4.872   0.553  0.5770  0.2375  0.0129
18701TIP3    H177594   5.581   4.920   0.636  0.0941  1.0202 -0.4373
18701TIP3    H277595   5.674   4.877   0.525  0.5426  0.8294  0.0055
18702TIP3   OH277596   3.814   1.832  11.539 -0.4689  0.6429  0.5474
18702TIP3    H177597   3.779   1.768  11.476 -1.0873 -0.0088  1.5248
18702TIP3    H277598   3.739   1.887  11.562  0.2098  2.2312 -0.8248
18703TIP3   OH277599   1.892   0.949  16.668 -0.2349 -0.3460  0.0115
18703TIP3    H177600   1.898   0.958  16.763  1.6890 -1.7284  0.0753
18703TIP3    H277601   1.903   0.855  16.652  1.7582  0.1168 -1.6705
18704TIP3   OH277602   4.749   1.282  16.651 -0.4732 -0.4922 -0.5524
18704TIP3    H177603   4.836   1.244  16.639 -0.9439 -1.5216 -0.8959
18704TIP3    H277604   4.764   1.376  16.657  0.8242 -0.7532  1.0530
18705TIP3   OH277605   3.283   0.204   1.047  0.1836 -0.0745  0.0290
18705TIP3    H177606   3.357   0.143   1.047  0.8575  0.6882 -1.0677
18705TIP3    H277607   3.324   0.291   1.040 -0.6658  0.6812  3.0823
18706TIP3   OH277608   1.122   3.348   3.230  0.1261 -0.8170  0.4998
18706TIP3    H177609   1.155   3.337   3.320 -0.0840 -2.4901  0.4021
18706TIP3    H277610   1.150   3.269   3.184 -0.6339 -0.4450 -0.6530
18707TIP3   OH277611   6.568   0.771  12.112 -0.5755  0.0822  0.0687
18707TIP3    H177612   6.576   0.729  12.026 -0.7998  0.3218 -0.0755
18707TIP3    H277613   6.596   0.705  12.174  2.5196  0.8634 -0.3552
18708TIP3   OH277614   5.190   2.525   1.139  0.1089 -0.3916 -0.3978
18708TIP3    H177615   5.276   2.543   1.177  0.8214 -0.4093 -1.9182
18708TIP3    H277616   5.130   2.525   1.213  1.2282  0.8592  0.5521
18709TIP3   OH277617   0.977   2.850   0.607 -0.9472 -0.0993  0.8216
18709TIP3    H177618   1.028   2.835   0.687 -1.3325  0.0874  1.1047
18709TIP3    H277619   0.890   2.817   0.628 -1.2680  0.6930  0.7552
18710TIP3   OH277620   5.485   4.713   2.164 -0.1986 -0.1004  0.4366
18710TIP3    H177621   5.449   4.627   2.144 -1.7469  0.0888  2.1806
18710TIP3    H277622   5.488   4.717   2.260  1.9237  0.9750  0.3983
18711TIP3   OH277623   4.365   0.863   5.395  0.7120 -0.0777 -0.6331
18711TIP3    H177624   4.370   0.788   5.454 -1.9565 -1.1691 -1.6561
18711TIP3    H277625   4.348   0.937   5.452 -0.9894 -0.9768  0.0846
18712TIP3   OH277626   4.616   1.070  16.883 -0.3633  0.3948 -0.1283
18712TIP3    H177627   4.691   1.110  16.929  0.6385 -0.4383 -0.9842
18712TIP3    H277628   4.541   1.092  16.938  0.8224 -1.1147  2.3215
18713TIP3   OH277629   2.013   5.987  11.160  0.1444 -0.2792 -0.1321
18713TIP3    H177630   2.006   6.083  11.166  2.8455 -0.0459  1.5081
18713TIP3    H277631   1.931   5.954  11.196 -0.5292  1.4334 -0.0072
18714TIP3   OH277632   4.569   0.213   0.597  0.4117 -0.0995 -0.3142
18714TIP3    H177633   4.576   0.156   0.674 -0.1836  0.9482  0.5468
18714TIP3    H277634   4.518   0.288   0.627  1.2582  0.9523 -1.3940
18715TIP3   OH277635   4.388   2.719  16.880 -0.7175  0.1964  0.2551
18715TIP3    H177636   4.433   2.734  16.963  0.8084  2.3104 -0.8586
18715TIP3    H277637   4.319   2.786  16.879 -0.8941  0.0067 -0.0605
18716TIP3   OH277638   4.308   1.018   2.365  0.3037  0.5391  0.5843
18716TIP3    H177639   4.356   0.991   2.443  0.8470  0.1462  0.1251
18716TIP3    H277640   4.364   1.085   2.324 -0.7337  1.9447  1.3757
18717TIP3   OH277641   3.215   2.024   4.784 -0.3436 -0.2942  0.3054
18717TIP3    H177642   3.174   2.003   4.867 -0.4711 -3.4300 -0.4468
18717TIP3    H277643   3.263   1.945   4.759  0.1350  0.7147 -2.3383
18718TIP3   OH277644   1.918   3.786   0.588  0.1959 -0.1663 -0.0290
18718TIP3    H177645   1.932   3.775   0.494  0.3206 -0.1421 -0.0128
18718TIP3    H277646   1.946   3.876   0.606  1.5072 -0.6145  0.2871
18719TIP3   OH277647   5.705   4.950   1.828 -0.4704 -0.7029  0.1392
18719TIP3    H177648   5.739   4.995   1.751 -1.9097 -1.1586 -0.8055
18719TIP3    H277649   5.610   4.952   1.817 -0.7011 -0.9075  1.8447
18720TIP3   OH277650   2.046   3.769   1.402  0.0333 -0.1067 -0.0480
18720TIP3    H177651   1.958   3.806   1.390 -0.4581  0.0055  3.1209
18720TIP3    H277652   2.073   3.743   1.313 -4.0421 -2.1593 -0.9537
18721TIP3   OH277653   5.235   5.749   4.383 -0.2600 -0.2288  0.0349
18721TIP3    H177654   5.298   5.685   4.350 -0.0740 -0.2536  0.4308
18721TIP3    H277655   5.284   5.831   4.388 -0.0811 -0.3902  0.9481
18722TIP3   OH277656   5.172   2.001  16.432 -0.1841 -0.1774  0.3852
18722TIP3    H177657   5.152   2.024  16.523 -0.3310 -0.7526  0.5035
18722TIP3    H277658   5.155   2.081  16.382 -1.2421 -0.1853  0.7058
18723TIP3   OH277659   2.936   1.430  16.240  0.5583 -0.1355  0.2007
18723TIP3    H177660   2.884   1.381  16.305 -0.9950  1.0826 -0.0799
18723TIP3    H277661   2.881   1.503  16.215  2.4405  1.2598 -0.1116
18724TIP3   OH277662   4.398   1.293   5.416  0.0566  0.2088  0.7608
18724TIP3    H177663   4.371   1.323   5.329 -1.2097  2.2622  1.7836
18724TIP3    H277664   4.457   1.220   5.399 -0.4552  0.3039 -1.8021
18725TIP3   OH277665   0.896   2.426  15.667 -0.0590 -0.2150  0.1655
18725TIP3    H177666   0.901   2.405  15.574  0.1101 -0.6150  0.2646
18725TIP3    H277667   0.901   2.521  15.671  0.1084 -0.2090 -0.2239
18726TIP3   OH277668   5.320   4.030  15.687  0.0099 -0.3327 -0.1667
18726TIP3    H177669   5.254   3.961  15.680 -0.6837  0.1151  1.4891
18726TIP3    H277670   5.384   3.996  15.750  0.1137  0.1889  0.0153
18727TIP3   OH277671   5.418   1.944  13.975 -0.2952 -0.0738  0.3651
18727TIP3    H177672   5.478   2.013  13.947 -1.8648  1.2849  0.1341
18727TIP3    H277673   5.333   1.989  13.984 -1.1842 -1.8017  1.1024
18728TIP3   OH277674   5.861   3.348  14.456 -0.1574 -0.5360 -0.2913
18728TIP3    H177675   5.781   3.296  14.454 -0.6427  0.2080 -0.6754
18728TIP3    H277676   5.835   3.432  14.494  0.8967 -0.9893  1.5457
18729TIP3   OH277677   1.807   2.597   0.984 -0.3237  0.0412 -0.0086
18729TIP3    H177678   1.877   2.590   1.048  1.7593 -0.1402 -2.1902
18729TIP3    H277679   1.727   2.581   1.034  1.2375 -0.6841  2.4001
18730TIP3   OH277680   5.225   5.453  14.105 -0.9099  0.3360  0.0189
18730TIP3    H177681   5.215   5.476  14.012 -2.3795  1.2128  0.3606
18730TIP3    H277682   5.254   5.534  14.147 -0.1190 -0.0937  0.3225
18731TIP3   OH277683   5.540   5.897   2.559 -0.2931  0.0055  0.8408
18731TIP3    H177684   5.572   5.957   2.492 -1.4098  1.3242  1.4019
18731TIP3    H277685   5.451   5.928   2.577 -0.3903 -0.9518  2.1752
18732TIP3   OH277686   2.119   4.367   4.646 -0.6103 -0.4090 -0.4044
18732TIP3    H177687   2.195   4.424   4.631 -0.3759 -0.5924  0.0653
18732TIP3    H277688   2.100   4.329   4.560  1.5584 -2.5022 -0.0825
18733TIP3   OH277689   3.069   4.451  12.329  0.3694  0.1596 -0.6143
18733TIP3    H177690   2.986   4.498  12.335  0.9514  1.5426 -2.5017
18733TIP3    H277691   3.121   4.502  12.267  1.9364 -1.7052 -0.9256
18734TIP3   OH277692   2.106   4.903  13.653  0.0656 -0.8393  0.2138
18734TIP3    H177693   2.186   4.883  13.604  0.5902  0.1994  0.6209
18734TIP3    H277694   2.109   4.997  13.667 -1.6380 -0.6664 -0.4440
18735TIP3   OH277695   0.238   1.305   5.209  0.4867  0.2682 -0.2687
18735TIP3    H177696   0.286   1.384   5.185 -0.5609  0.7571 -0.8277
18735TIP3    H277697   0.208   1.269   5.125  1.7609 -1.2815 -0.1182
18736TIP3   OH277698   6.552   3.930  15.521  0.0750 -0.1130  0.1560
18736TIP3    H177699   6.457   3.938  15.526  0.0747 -0.5329  0.9844
18736TIP3    H277700   6.572   3.939  15.427 -0.7500  0.2195  0.0022
18737TIP3   OH277701   0.830   5.176   5.618  0.2105 -0.1999  0.3420
18737TIP3    H177702   0.830   5.128   5.701  1.4657 -0.8243  0.0025
18737TIP3    H277703   0.743   5.162   5.582  0.5414 -2.3024  0.2349
18738TIP3   OH277704   0.297   1.406   0.649 -0.0176  0.4244 -0.1614
18738TIP3    H177705   0.238   1.339   0.683 -0.1361  0.8682  0.5510
18738TIP3    H277706   0.255   1.437   0.569 -0.4061  0.2647 -0.0233
18739TIP3   OH277707   3.312   6.358   1.796  0.1525 -0.2895 -0.3384
18739TIP3    H177708   3.362   6.430   1.758 -0.1257 -0.3910 -0.9097
18739TIP3    H277709   3.225   6.395   1.812 -0.0990 -0.5964 -0.9735
18740TIP3   OH277710   1.295   1.596   3.165  0.0822 -0.1759  0.1151
18740TIP3    H177711   1.274   1.528   3.229 -1.7927  0.2875  0.0456
18740TIP3    H277712   1.380   1.630   3.193 -0.6672 -0.0144  2.3420
18741TIP3   OH277713   3.432   0.158   2.886  0.3661 -0.2668 -0.5172
18741TIP3    H177714   3.384   0.092   2.936  0.9180  1.0220  1.8565
18741TIP3    H277715   3.384   0.166   2.803 -1.2209 -1.7262  0.2128
18742TIP3   OH277716   5.045   5.641  14.930  0.6569 -0.0799 -0.0197
18742TIP3    H177717   4.976   5.704  14.952  1.9504  2.1517 -1.8614
18742TIP3    H277718   5.081   5.615  15.015  1.2163  3.1055  0.8669
18743TIP3   OH277719   4.126   1.524   5.416 -0.2748 -0.4087 -0.1293
18743TIP3    H177720   4.035   1.506   5.439 -0.3481  0.6329  0.4901
18743TIP3    H277721   4.177   1.465   5.471 -0.5516 -0.4131  0.1246
18744TIP3   OH277722   1.371   0.585  10.638  0.1258 -0.0372 -0.0003
18744TIP3    H177723   1.322   0.503  10.634  0.8037 -0.4090 -1.1003
18744TIP3    H277724   1.320   0.641  10.696 -0.6467 -1.0373  0.3048
18745TIP3   OH277725   0.967   1.932   3.606  0.1595  0.0596  0.5124
18745TIP3    H177726   0.919   1.871   3.661 -0.9019  0.3350 -0.0830
18745TIP3    H277727   1.044   1.883   3.577 -1.1073 -1.3498 -0.6910
18746TIP3   OH277728   2.631   1.747  13.013  0.2760  0.3666  0.5728
18746TIP3    H177729   2.702   1.712  12.960 -0.2336 -0.9512  0.7075
18746TIP3    H277730   2.555   1.747  12.954 -0.5612 -2.1537  1.5196
18747TIP3   OH277731   1.100   1.103  17.023 -0.0656 -0.1286  0.5884
18747TIP3    H177732   1.162   1.046  16.977 -0.3819 -0.4865  0.5975
18747TIP3    H277733   1.155   1.164  17.073  0.2775 -0.5390  0.7138
18748TIP3   OH277734   4.812   1.982   3.164  0.7029 -0.0884 -0.0330
18748TIP3    H177735   4.794   1.998   3.256  0.8199  1.0898 -0.1935
18748TIP3    H277736   4.791   1.890   3.150  1.3505 -0.4664  1.3267
18749TIP3   OH277737   2.515   3.553  13.693 -0.3197 -0.1478 -0.1108
18749TIP3    H177738   2.507   3.649  13.698 -2.0403 -0.3082  0.9682
18749TIP3    H277739   2.605   3.539  13.665  0.5015  1.7830  1.2632
18750TIP3   OH277740   2.164   3.333  15.363  0.2716 -0.1782 -0.0473
18750TIP3    H177741   2.079   3.312  15.402 -0.3829 -0.2455 -1.4600
18750TIP3    H277742   2.185   3.421  15.394 -0.0240 -0.3964  0.7837
18751TIP3   OH277743   2.120   0.762  16.472 -0.1479 -0.4991  0.0939
18751TIP3    H177744   2.136   0.673  16.440  3.8586 -0.0552  0.3425
18751TIP3    H277745   2.068   0.803  16.403 -0.3152 -2.4157 -0.9986
18752TIP3   OH277746   5.043   4.703  12.768 -0.0786  0.2768  0.0343
18752TIP3    H177747   4.975   4.733  12.828 -0.2416  1.8417 -0.8707
18752TIP3    H277748   4.995   4.653  12.701 -0.1294  0.0912  0.2073
18753TIP3   OH277749   5.711   3.050   3.288  0.5407 -0.4499 -0.3808
18753TIP3    H177750   5.741   3.139   3.271  1.4111 -0.5389  0.5767
18753TIP3    H277751   5.710   3.008   3.201  1.7040  0.0310 -0.6457
18754TIP3   OH277752   0.126   1.037   5.492 -0.2034  0.0744  0.3438
18754TIP3    H177753   0.112   0.999   5.406  1.5482  1.2534 -0.5323
18754TIP3    H277754   0.222   1.036   5.503 -0.3459  0.6511  1.9481
18755TIP3   OH277755   6.240   3.740  15.886  0.2226  0.0261  0.1370
18755TIP3    H177756   6.174   3.806  15.904  3.3799  3.2751  0.9948
18755TIP3    H277757   6.248   3.739  15.791  0.8466  1.7806  0.1361
18756TIP3   OH277758   3.152   6.791   3.921 -0.2416 -0.1404  0.2338
18756TIP3    H177759   3.167   6.698   3.905 -2.5104 -1.0081  2.6077
18756TIP3    H277760   3.164   6.802   4.015 -1.1096  1.7594  0.1722
18757TIP3   OH277761   6.161   2.584   2.417 -0.6976 -0.0268  0.7780
18757TIP3    H177762   6.124   2.587   2.329 -0.0670 -0.7791  0.4761
18757TIP3    H277763   6.087   2.568   2.474 -0.8796 -1.3949  0.1968
18758TIP3   OH277764   0.798   2.991  14.919  0.7635 -0.3744 -0.0336
18758TIP3    H177765   0.845   2.917  14.955 -0.0960 -0.6636  0.5086
18758TIP3    H277766   0.714   2.992  14.966 -0.1141 -0.3681 -1.5398
18759TIP3   OH277767   1.955   0.297   5.239  0.2340  0.5628  0.8681
18759TIP3    H177768   1.988   0.359   5.174 -1.7273 -0.8805 -1.6633
18759TIP3    H277769   2.031   0.280   5.296  2.2288  1.5236 -1.3196
18760TIP3   OH277770   4.938   2.733  14.784  0.2083  0.3158  0.5353
18760TIP3    H177771   4.887   2.656  14.760 -0.0805 -0.3780  3.0529
18760TIP3    H277772   4.895   2.805  14.739  0.1707 -0.8944 -1.4726
18761TIP3   OH277773   3.932   1.536  16.339  0.1732  0.2129 -0.6346
18761TIP3    H177774   3.987   1.609  16.367  2.0934  0.3517 -4.2438
18761TIP3    H277775   3.845   1.575  16.325  0.6904  1.3886 -0.7019
18762TIP3   OH277776   6.255   6.212  12.715 -0.0746 -0.3703  0.3387
18762TIP3    H177777   6.195   6.164  12.658  0.5154 -1.5363  0.6816
18762TIP3    H277778   6.198   6.261  12.774 -0.6854 -0.5181 -0.1179
18763TIP3   OH277779   4.001   4.443  11.867  0.1865 -0.1852  0.0582
18763TIP3    H177780   3.942   4.515  11.885  1.0489  0.1895  1.5642
18763TIP3    H277781   3.953   4.365  11.897  0.5818  0.1598  1.6768
18764TIP3   OH277782   2.061   5.469   5.029  0.1195 -0.4910 -0.0853
18764TIP3    H177783   2.058   5.426   5.115  1.6368 -0.6481 -0.0834
18764TIP3    H277784   2.038   5.400   4.967 -2.8837  0.0588  0.2570
18765TIP3   OH277785   5.717   0.055  13.803  0.2186  0.3121 -0.5654
18765TIP3    H177786   5.625   0.078  13.791  0.0576 -0.6451 -1.3324
18765TIP3    H277787   5.714  -0.026  13.854  0.6578  0.4593 -0.3029
18766TIP3   OH277788   3.861   1.092   4.800 -0.0877  0.0371  0.4542
18766TIP3    H177789   3.787   1.135   4.842 -0.7581 -0.8193  0.1835
18766TIP3    H277790   3.899   1.159   4.743  0.1715  0.8801  1.5716
18767TIP3   OH277791   2.248   0.093  15.893 -0.4412 -0.1223 -0.7771
18767TIP3    H177792   2.327   0.071  15.843 -1.5468 -0.4784 -2.4558
18767TIP3    H277793   2.254   0.188  15.907  0.6586 -0.2683 -0.1599
18768TIP3   OH277794   1.751   4.647   1.945  0.5649  0.1480 -0.2072
18768TIP3    H177795   1.724   4.715   2.007  3.2075  0.9443  0.1777
18768TIP3    H277796   1.756   4.567   1.997  1.4262  0.5310  0.3196
18769TIP3   OH277797   0.131   1.711   4.859  0.8824 -0.2132 -0.5076
18769TIP3    H177798   0.038   1.730   4.876  1.1742  2.0047 -1.1403
18769TIP3    H277799   0.130   1.661   4.777  0.3290  2.0256 -1.9610
18770TIP3   OH277800   5.250   4.424   6.623  0.2552 -0.2854 -0.7214
18770TIP3    H177801   5.255   4.507   6.576  1.1203  0.5657  0.7851
18770TIP3    H277802   5.211   4.447   6.708  1.2653 -1.2389  0.0379
18771TIP3   OH277803   1.994   6.297  12.538 -0.3190  0.0932  0.6812
18771TIP3    H177804   1.903   6.286  12.565 -0.8378  2.1324 -0.0522
18771TIP3    H277805   1.999   6.387  12.506  2.2353  0.4299  1.7437
18772TIP3   OH277806   1.350   6.535  16.763  0.0519  0.2394 -0.5875
18772TIP3    H177807   1.396   6.506  16.841  1.1918  0.4792 -1.1465
18772TIP3    H277808   1.283   6.468  16.748 -0.4588  0.4182  0.8167
18773TIP3   OH277809   0.427   2.069  14.901  0.2391  0.1476  1.0727
18773TIP3    H177810   0.364   2.059  14.972 -0.2044 -1.0934  0.5407
18773TIP3    H277811   0.436   1.981  14.865 -2.0179  1.1418 -2.4717
18774TIP3   OH277812   1.439   5.122   2.509  1.0261 -0.2578 -0.4837
18774TIP3    H177813   1.488   5.195   2.472  2.4362 -1.6745 -1.5455
18774TIP3    H277814   1.498   5.085   2.576  0.1754 -0.2189  0.3097
18775TIP3   OH277815   0.571   3.076  13.737  0.3222 -0.1250  0.3040
18775TIP3    H177816   0.479   3.084  13.712  0.2976  1.5062  0.7725
18775TIP3    H277817   0.620   3.096  13.657  0.2478  1.0935  0.5460
18776TIP3   OH277818   6.640   6.411   3.298 -0.3770  0.2427 -0.1603
18776TIP3    H177819   6.693   6.351   3.351  0.6497  1.5387  0.3533
18776TIP3    H277820   6.695   6.430   3.221 -0.6798  0.5039 -0.3137
18777TIP3   OH277821   5.180   3.978  14.449  0.3058 -0.2170 -0.1368
18777TIP3    H177822   5.194   3.999  14.541 -2.6868  0.8075  0.2023
18777TIP3    H277823   5.088   3.952  14.444  0.2496  0.1887 -2.8965
18778TIP3   OH277824   0.200   2.803  16.266 -0.2110  0.0348 -0.1000
18778TIP3    H177825   0.202   2.814  16.361  0.0695  1.3133 -0.2336
18778TIP3    H277826   0.223   2.889  16.232 -0.3212 -0.4090 -1.3316
18779TIP3   OH277827   1.939   5.845  11.861 -0.2574 -0.3131 -0.0342
18779TIP3    H177828   2.005   5.835  11.930 -1.1018 -0.9902  0.7194
18779TIP3    H277829   1.961   5.926  11.817  0.8293 -0.3233  0.4714
18780TIP3   OH277830   1.215   1.298   1.200 -0.0532 -0.1227  0.7596
18780TIP3    H177831   1.304   1.331   1.196 -0.5033  1.0962  0.4345
18780TIP3    H277832   1.165   1.366   1.245 -0.7391 -1.0026  1.3861
18781TIP3   OH277833   5.678   3.994  14.294 -0.4680  0.2635 -0.0593
18781TIP3    H177834   5.632   4.040  14.225 -0.7804 -0.9787 -0.6989
18781TIP3    H277835   5.631   4.017  14.374 -2.4201 -1.2016 -0.7256
18782TIP3   OH277836   4.879   3.382  13.431  0.0761 -0.1551  0.5965
18782TIP3    H177837   4.849   3.472  13.444 -0.3366 -0.6259  3.4303
18782TIP3    H277838   4.802   3.335  13.398  0.6469  0.7059 -2.2501
18783TIP3   OH277839   6.806   5.548   4.854 -0.3434 -0.0344  0.2797
18783TIP3    H177840   6.869   5.516   4.919  0.1469 -2.5122 -1.2945
18783TIP3    H277841   6.859   5.600   4.793 -0.2711 -0.0884  0.2957
18784TIP3   OH277842   3.530   0.444  14.840 -0.1635 -0.1775 -0.2706
18784TIP3    H177843   3.522   0.420  14.748  1.2689 -0.4369 -0.3563
18784TIP3    H277844   3.621   0.473  14.849  0.4053 -2.2877  1.5333
18785TIP3   OH277845   1.298   2.500   5.218  0.7466  0.1806 -0.9958
18785TIP3    H177846   1.302   2.580   5.166  1.5244  0.2427 -0.8542
18785TIP3    H277847   1.271   2.433   5.156  0.3950  0.4945 -1.1851
18786TIP3   OH277848   5.590   2.662   5.393  0.1918  0.1439 -0.4306
18786TIP3    H177849   5.603   2.749   5.355  0.6738  1.0866  1.7056
18786TIP3    H277850   5.552   2.679   5.479 -0.8929 -1.8548 -0.4424
18787TIP3   OH277851   2.715   1.647   3.333  0.4998  0.3210  0.1954
18787TIP3    H177852   2.647   1.585   3.360  0.9979 -0.9946 -1.4471
18787TIP3    H277853   2.797   1.608   3.362  0.7203  0.9318  0.4148
18788TIP3   OH277854   6.679   0.483  10.906  0.1916 -0.8110  0.1905
18788TIP3    H177855   6.652   0.527  10.987  1.7030 -0.8163  0.7417
18788TIP3    H277856   6.751   0.536  10.873  0.6873 -1.7320 -0.2453
18789TIP3   OH277857   0.937   1.236   0.724 -0.2357 -0.5248  0.0305
18789TIP3    H177858   0.995   1.220   0.798  0.9749 -0.7927 -0.9503
18789TIP3    H277859   0.871   1.297   0.758  0.0545 -0.9566  1.4271
18790TIP3   OH277860   5.331   5.580  12.868 -0.1658 -0.2159 -0.0268
18790TIP3    H177861   5.375   5.556  12.950  0.1472  1.7496  0.4461
18790TIP3    H277862   5.303   5.497  12.830  4.4184 -1.7455 -0.6508
18791TIP3   OH277863   0.946   6.502   2.469  0.8483 -0.3410 -0.2558
18791TIP3    H177864   1.003   6.523   2.395  1.5881  1.6332  0.7920
18791TIP3    H277865   0.974   6.415   2.498  0.0733 -1.4692 -2.6636
18792TIP3   OH277866   3.860   6.030   5.719  0.2718  0.2803  0.2220
18792TIP3    H177867   3.805   5.966   5.674  0.0149  0.2263  0.6051
18792TIP3    H277868   3.949   5.995   5.711  0.2202  0.2395 -0.1819
18793TIP3   OH277869   0.092   3.846  16.569  0.3729  0.2566 -0.2598
18793TIP3    H177870   0.047   3.894  16.499 -0.7413  0.2730  0.4385
18793TIP3    H277871   0.170   3.809  16.527 -1.1022 -1.1262 -1.9485
18794TIP3   OH277872   4.787   0.225   0.193 -0.4065 -0.0051  0.3403
18794TIP3    H177873   4.834   0.163   0.138 -1.8824 -1.8603  1.0654
18794TIP3    H277874   4.772   0.178   0.275 -1.4814  1.3521  0.9745
18795TIP3   OH277875   0.853   5.443  13.493  0.0280  0.2058  0.8526
18795TIP3    H177876   0.895   5.424  13.409 -0.0784  1.6889  0.4448
18795TIP3    H277877   0.777   5.384  13.495  0.3774 -0.2824  0.2032
18796TIP3   OH277878   1.277   5.321  12.803  0.2791 -0.9858 -0.2556
18796TIP3    H177879   1.280   5.386  12.734  0.7966  1.8021  2.2164
18796TIP3    H277880   1.360   5.274  12.796  1.3586  0.8453 -0.1167
18797TIP3   OH277881   2.996   0.340   1.897 -0.1715 -0.3137 -0.2219
18797TIP3    H177882   2.973   0.414   1.841 -2.3282  0.8096  1.9404
18797TIP3    H277883   3.087   0.357   1.922 -0.1641  0.8163 -0.9065
18798TIP3   OH277884   1.622   0.202   0.624  0.0291 -0.7394  0.2680
18798TIP3    H177885   1.640   0.108   0.627 -0.0847 -0.9046 -2.2047
18798TIP3    H277886   1.642   0.228   0.534 -1.2495  1.3333  0.5060
18799TIP3   OH277887   5.220   2.382  17.040 -0.7364 -0.3960  0.1370
18799TIP3    H177888   5.249   2.322  16.971  0.3366  1.6883 -1.3318
18799TIP3    H277889   5.289   2.448  17.045 -2.5354  1.5486  0.6175
18800TIP3   OH277890   3.267   2.080  13.457 -0.6228  0.1521  0.3124
18800TIP3    H177891   3.265   1.985  13.457  2.1179  0.0350  0.6419
18800TIP3    H277892   3.247   2.105  13.547 -0.4555 -0.1498  0.4328
18801TIP3   OH277893   2.598   5.786   2.121 -0.0611  0.1594  0.0515
18801TIP3    H177894   2.687   5.772   2.154  0.3494  0.3141 -0.9428
18801TIP3    H277895   2.560   5.851   2.180  0.4101 -0.0636  0.6100
18802TIP3   OH277896   4.261   5.571  11.447 -0.3032  0.0684 -0.1011
18802TIP3    H177897   4.212   5.519  11.384 -3.1667 -0.1293  2.0740
18802TIP3    H277898   4.335   5.516  11.471 -1.0270 -1.2680 -0.8206
18803TIP3   OH277899   1.710   0.037  12.296 -0.2970 -0.2772 -0.3620
18803TIP3    H177900   1.666  -0.041  12.263 -1.1425  0.0971 -0.1245
18803TIP3    H277901   1.648   0.078  12.356  0.7629 -0.3078  0.8087
18804TIP3   OH277902   0.857   0.079  16.810  0.1513 -0.0075  0.0544
18804TIP3    H177903   0.800   0.009  16.840 -0.5781  0.9326  0.9679
18804TIP3    H277904   0.870   0.062  16.717 -1.0463 -0.6515 -0.0134
18805TIP3   OH277905   5.684   3.870  12.027 -0.3445  0.3625 -0.0305
18805TIP3    H177906   5.716   3.814  12.098  0.2180  1.5527  0.7019
18805TIP3    H277907   5.664   3.810  11.956  1.7348 -0.6304  0.1466
18806TIP3   OH277908   0.333   2.629  13.503  0.0733 -0.4369  0.2454
18806TIP3    H177909   0.271   2.647  13.574  0.7586  0.3929  0.6482
18806TIP3    H277910   0.341   2.534  13.503 -0.2938 -0.4800  0.9729
18807TIP3   OH277911   5.766   6.786  17.274  0.5054 -0.0330  0.4692
18807TIP3    H177912   5.810   6.784  17.359  0.7996 -0.8503  0.3089
18807TIP3    H277913   5.693   6.724  17.283  0.4244  0.0173  0.1851
18808TIP3   OH277914   6.030   2.461  14.667 -0.4377 -0.2694 -0.4784
18808TIP3    H177915   6.092   2.509  14.613 -3.0585  1.5222 -2.1370
18808TIP3    H277916   5.990   2.397  14.608 -0.9956 -0.5720  0.2045
18809TIP3   OH277917   4.379   1.503   2.501 -0.8076  0.2296  0.1306
18809TIP3    H177918   4.345   1.592   2.510 -0.9617  0.2597 -0.6486
18809TIP3    H277919   4.356   1.460   2.583  1.7472  1.7039  1.7680
18810TIP3   OH277920   0.096   0.295  11.870  0.3206 -0.1186  0.5389
18810TIP3    H177921   0.186   0.298  11.903  1.2699  3.1726 -1.7816
18810TIP3    H277922   0.104   0.313  11.776 -2.7371 -0.5208  0.1003
18811TIP3   OH277923   0.019   2.554  15.540 -0.3987  0.0158  0.0039
18811TIP3    H177924   0.033   2.648  15.530 -1.0744  0.3791  1.9352
18811TIP3    H277925   0.099   2.514  15.507  0.7674  1.3977  1.0212
18812TIP3   OH277926   2.348   0.017   2.899  0.3015 -0.0623  0.0394
18812TIP3    H177927   2.431   0.039   2.942 -0.1943 -0.4655  1.2253
18812TIP3    H277928   2.351  -0.078   2.888 -0.1738 -0.1306  0.4601
18813TIP3   OH277929   5.607   2.074  14.587 -0.3096 -0.0312  0.0560
18813TIP3    H177930   5.620   2.122  14.505 -0.6181  1.0362  0.6170
18813TIP3    H277931   5.651   1.990  14.572 -0.5882  0.0371 -1.2959
18814TIP3   OH277932   6.347   1.923  13.650 -0.1991  0.2760 -0.0649
18814TIP3    H177933   6.419   1.881  13.697  0.3812 -0.3032 -1.4394
18814TIP3    H277934   6.370   1.916  13.558 -2.5495 -0.9638 -0.6395
18815TIP3   OH277935   6.507   4.277  14.710 -0.1486  0.1196  0.1387
18815TIP3    H177936   6.492   4.371  14.703 -0.6436 -0.0580 -1.4024
18815TIP3    H277937   6.602   4.269  14.717 -0.1058  0.7315  0.3457
18816TIP3   OH277938   5.093   3.811  13.815 -0.5527 -0.4251  0.3142
18816TIP3    H177939   5.079   3.812  13.720  0.4853  0.0555  0.1658
18816TIP3    H277940   5.016   3.856  13.850 -0.7472 -0.2509 -0.3125
18817TIP3   OH277941   3.255   3.383   3.065  0.0949  0.4940  0.3896
18817TIP3    H177942   3.289   3.467   3.033  0.3172  0.1940 -0.1685
18817TIP3    H277943   3.221   3.340   2.987 -1.6276  0.7975  0.9124
18818TIP3   OH277944   5.916   0.841   0.963 -0.5832 -0.1510  0.2153
18818TIP3    H177945   6.006   0.852   0.993 -0.7664  1.6189  0.1983
18818TIP3    H277946   5.917   0.869   0.871 -1.3757  1.0901  0.5629
18819TIP3   OH277947   3.951   5.730  12.167  0.0367 -0.4794 -0.1276
18819TIP3    H177948   3.962   5.760  12.257 -0.6638  2.0529 -0.8191
18819TIP3    H277949   4.031   5.679  12.149  1.4645  1.2240  1.0861
18820TIP3   OH277950   0.736   5.403   1.447  0.4692  0.3049  0.6712
18820TIP3    H177951   0.814   5.413   1.393  1.1577  1.3420  1.8039
18820TIP3    H277952   0.759   5.444   1.531 -0.2370 -2.0032  2.0776
18821TIP3   OH277953   5.486   0.513  12.405 -0.0435 -0.2233 -0.0041
18821TIP3    H177954   5.551   0.574  12.440  0.6168 -0.0400 -1.4723
18821TIP3    H277955   5.474   0.449  12.475 -1.0766  1.7669  1.7713
18822TIP3   OH277956   5.694   3.940   3.413  0.2678 -0.3675 -0.2247
18822TIP3    H177957   5.699   3.895   3.328 -0.1580 -0.2547 -0.3094
18822TIP3    H277958   5.785   3.942   3.444  0.5876  0.5195 -1.1542
18823TIP3   OH277959   1.484   5.955   6.102 -0.1913 -0.1978 -0.6003
18823TIP3    H177960   1.399   5.997   6.115  0.3053  1.7949 -3.0226
18823TIP3    H277961   1.506   5.917   6.187 -2.0773  1.9111  0.9273
18824TIP3   OH277962   0.489   6.575   0.015 -0.3714 -0.2834  0.0219
18824TIP3    H177963   0.400   6.607   0.004 -0.0727  0.5095 -0.1388
18824TIP3    H277964   0.507   6.586   0.109 -0.3633 -0.2487  0.0160
18825TIP3   OH277965   4.516   6.571  16.007  0.4115 -0.3532  0.5738
18825TIP3    H177966   4.585   6.506  15.989  1.0300  0.6292 -0.8124
18825TIP3    H277967   4.437   6.533  15.968  0.1316 -1.4928  2.1796
18826TIP3   OH277968   2.997   5.275  13.407 -0.6803  0.3666  0.0768
18826TIP3    H177969   3.039   5.208  13.354 -1.6915  1.2135 -1.8710
18826TIP3    H277970   2.969   5.342  13.345 -0.6939  2.0862  1.8354
18827TIP3   OH277971   2.792   0.565  15.009 -0.5351  0.1212 -0.1093
18827TIP3    H177972   2.761   0.482  14.972  0.9645 -0.3130 -0.4655
18827TIP3    H277973   2.835   0.540  15.090  0.4460  0.4651 -0.5096
18828TIP3   OH277974   5.044   5.927   4.318  0.0226 -0.3651 -0.3477
18828TIP3    H177975   5.095   5.847   4.323  1.2057  0.4283  1.1032
18828TIP3    H277976   5.080   5.974   4.242  1.0838 -0.0667  0.3285
18829TIP3   OH277977   1.408   1.204  17.182 -0.1520  0.1329  0.0618
18829TIP3    H177978   1.471   1.177  17.249  0.3273  1.0879  0.0122
18829TIP3    H277979   1.461   1.244  17.113 -0.7500  0.2825 -0.3235
18830TIP3   OH277980   6.473   3.530  12.552  0.1579 -0.4536 -0.7484
18830TIP3    H177981   6.568   3.537  12.561  0.0515 -1.7263  2.8834
18830TIP3    H277982   6.448   3.605  12.498  3.0069  1.2238  0.0518
18831TIP3   OH277983   0.382   3.923   0.332  0.1420 -0.2115 -0.5681
18831TIP3    H177984   0.404   4.011   0.301 -1.9013  0.4502 -0.3080
18831TIP3    H277985   0.358   3.875   0.253 -1.5635  0.3977 -0.4806
18832TIP3   OH277986   5.742   4.774   1.442 -0.7486 -0.3782 -0.0532
18832TIP3    H177987   5.784   4.849   1.485 -1.8833 -0.5443  1.4159
18832TIP3    H277988   5.808   4.705   1.446 -0.0094  0.2778 -0.6476
18833TIP3   OH277989   4.868   3.676   5.721  0.1946 -0.2066  0.1169
18833TIP3    H177990   4.816   3.662   5.800 -1.1394  1.2582 -0.4572
18833TIP3    H277991   4.812   3.649   5.649  0.8810 -0.2372 -0.4261
18834TIP3   OH277992   5.447   6.340  10.803 -0.0007  0.2491  0.3120
18834TIP3    H177993   5.370   6.285  10.816  0.9513 -1.0157  0.8590
18834TIP3    H277994   5.499   6.293  10.738  0.2879  1.1235 -0.1072
18835TIP3   OH277995   4.599   0.398   3.391  0.6149 -0.2499  0.0807
18835TIP3    H177996   4.537   0.469   3.374  0.3132 -0.5137  0.0495
18835TIP3    H277997   4.685   0.437   3.380  0.4892  0.4431  1.3542
18836TIP3   OH277998   1.515   2.549   3.782  0.2963 -0.1840  0.0311
18836TIP3    H177999   1.491   2.609   3.712 -0.7122 -1.7156 -1.0043
18836TIP3    H278000   1.575   2.599   3.837 -1.5265  2.1964 -0.0025
18837TIP3   OH278001   3.474   6.807   1.046  0.2232  0.7163  0.1721
18837TIP3    H178002   3.542   6.874   1.059  0.5500  0.7815 -1.6420
18837TIP3    H278003   3.522   6.730   1.016 -0.4878  0.7600 -1.1258
18838TIP3   OH278004   6.236   5.439  16.878  0.0792  0.2288 -0.5662
18838TIP3    H178005   6.276   5.354  16.901 -0.3492  0.4740  1.2225
18838TIP3    H278006   6.160   5.416  16.824 -1.2423 -0.7215  1.5843
18839TIP3   OH278007   1.927   0.700   2.477  0.1679  0.0500  0.1961
18839TIP3    H178008   1.934   0.613   2.439 -1.2037  0.2696 -0.6249
18839TIP3    H278009   1.982   0.755   2.421  0.9836 -0.2624  0.6778
18840TIP3   OH278010   3.035   4.328   2.181  0.2785 -0.0800 -0.6097
18840TIP3    H178011   3.113   4.277   2.158  0.5735  0.1053 -0.0376
18840TIP3    H278012   2.964   4.287   2.132  1.0336  0.8898 -2.5990
18841TIP3   OH278013   4.673   4.256  11.010  0.1033  0.4786 -0.0003
18841TIP3    H178014   4.578   4.247  10.996  0.0328 -0.1994  0.8202
18841TIP3    H278015   4.707   4.281  10.925 -0.6583 -0.5780 -0.6385
18842TIP3   OH278016   6.483   3.858   5.135  0.2442  0.0192  0.3371
18842TIP3    H178017   6.439   3.778   5.164 -0.8803 -0.2678 -1.9150
18842TIP3    H278018   6.577   3.839   5.145  0.0656 -2.0958 -1.1815
18843TIP3   OH278019   3.619   5.930  15.689  0.2013 -0.5587 -0.0589
18843TIP3    H178020   3.698   5.922  15.742  0.4066 -0.1436 -0.2987
18843TIP3    H278021   3.607   5.843  15.650  1.0531 -0.3852 -0.7341
18844TIP3   OH278022   1.192   5.289   3.228  0.1113 -0.2379 -0.4333
18844TIP3    H178023   1.153   5.317   3.145 -0.1786 -0.8901 -0.5273
18844TIP3    H278024   1.182   5.364   3.286 -1.0645 -0.3072 -0.5303
18845TIP3   OH278025   6.362   6.628   3.587 -0.0572  0.0684  0.4012
18845TIP3    H178026   6.283   6.575   3.578  1.1497 -1.7002 -0.3608
18845TIP3    H278027   6.422   6.591   3.523  0.6475  2.8251 -0.6464
18846TIP3   OH278028   5.232   4.840  16.230 -0.6355 -0.0301 -0.0444
18846TIP3    H178029   5.251   4.816  16.321 -1.4431 -2.2367 -0.3989
18846TIP3    H278030   5.247   4.760  16.180 -0.2150  1.1365 -1.8936
18847TIP3   OH278031   6.351   3.675   1.116 -0.1096  0.2191  0.4992
18847TIP3    H178032   6.303   3.660   1.197  0.4174  1.8947  1.1660
18847TIP3    H278033   6.427   3.727   1.143 -0.4385  1.6606 -1.1867
18848TIP3   OH278034   5.432   5.617  14.489 -0.0456 -0.5242 -0.6254
18848TIP3    H178035   5.408   5.531  14.454 -1.6831  0.2086 -1.4385
18848TIP3    H278036   5.481   5.659  14.418  0.5677 -0.7033 -0.3103
18849TIP3   OH278037   6.544   4.659  12.142  0.4241  0.6950 -0.0919
18849TIP3    H178038   6.485   4.690  12.212 -1.8650 -1.1892 -1.0595
18849TIP3    H278039   6.576   4.575  12.174 -2.0931 -1.1013 -1.8917
18850TIP3   OH278040   1.812   3.013  15.454 -0.0251 -0.3508  0.2003
18850TIP3    H178041   1.908   3.007  15.450 -0.0135 -1.2772  1.2395
18850TIP3    H278042   1.783   2.922  15.450 -0.8583 -0.0871  0.1038
18851TIP3   OH278043   4.442   4.722  15.209  0.4440  0.4134  0.0755
18851TIP3    H178044   4.505   4.677  15.153  0.1257  1.7875 -1.4412
18851TIP3    H278045   4.361   4.673  15.199  0.3325  0.7844 -0.8390
18852TIP3   OH278046   4.020   2.932   3.704 -0.2737 -0.0031 -0.2761
18852TIP3    H178047   4.021   3.007   3.763 -1.5090 -0.2807  0.1332
18852TIP3    H278048   3.939   2.943   3.653 -0.0157 -0.5943 -0.8231
18853TIP3   OH278049   2.379   5.547   1.355  0.2720 -0.0430  0.5172
18853TIP3    H178050   2.303   5.504   1.394 -0.7672  0.5671 -0.7576
18853TIP3    H278051   2.406   5.489   1.284 -1.2105  1.3383 -1.2894
18854TIP3   OH278052   5.498   0.751  14.775 -0.3092 -0.0449  0.1417
18854TIP3    H178053   5.526   0.775  14.687 -0.2677  0.6686  0.3371
18854TIP3    H278054   5.424   0.692  14.762  1.3633 -2.1584 -0.3888
18855TIP3   OH278055   4.562   1.912   2.824  0.2992 -0.0741 -0.2290
18855TIP3    H178056   4.551   1.940   2.733  0.1304 -0.9721 -0.4920
18855TIP3    H278057   4.478   1.933   2.865  1.2432  2.8955  0.4639
18856TIP3   OH278058   0.207   1.550   0.395 -0.0935  0.6941 -0.1020
18856TIP3    H178059   0.269   1.592   0.336  1.8913 -0.4109  1.1033
18856TIP3    H278060   0.189   1.466   0.354  0.9115  0.1253  0.5976
18857TIP3   OH278061   1.085   1.864  15.343 -0.1603 -0.3055  0.2565
18857TIP3    H178062   1.120   1.910  15.420  0.5664 -0.0979 -0.1939
18857TIP3    H278063   1.160   1.821  15.304 -0.8814 -2.1726  0.8439
18858TIP3   OH278064   4.568   1.634   2.076 -0.3064  0.3991 -0.8472
18858TIP3    H178065   4.514   1.679   2.142  1.1666 -0.4713  1.0790
18858TIP3    H278066   4.602   1.557   2.122  1.3647  0.1313 -2.4280
18859TIP3   OH278067   1.811   1.606  15.876 -0.3099 -0.1181 -0.1910
18859TIP3    H178068   1.797   1.519  15.915  0.4487 -0.3367 -0.3827
18859TIP3    H278069   1.741   1.615  15.812  0.9319 -1.5970 -1.8467
18860TIP3   OH278070   1.487   6.139  16.249  0.1498 -0.5496 -0.3828
18860TIP3    H178071   1.546   6.202  16.206 -1.7544  0.4377 -1.6855
18860TIP3    H278072   1.457   6.184  16.328 -0.1135 -0.3838 -0.5756
18861TIP3   OH278073   1.604   4.162   2.547 -0.0750 -0.7320  0.0861
18861TIP3    H178074   1.550   4.083   2.541  0.8772 -1.3346 -0.6770
18861TIP3    H278075   1.652   4.166   2.464 -0.8872  1.2377 -0.3612
18862TIP3   OH278076   1.256   2.938   4.606 -0.1607  0.3860 -0.3183
18862TIP3    H178077   1.321   2.974   4.666 -0.3811 -0.5697  0.5147
18862TIP3    H278078   1.298   2.860   4.570 -0.2103  0.6948 -1.0650
18863TIP3   OH278079   3.559   1.080  17.255 -0.2006  0.0375  0.4028
18863TIP3    H178080   3.530   1.166  17.224  0.1954  0.7258  1.8948
18863TIP3    H278081   3.543   1.022  17.180 -4.5445  0.5020  0.6902
18864TIP3   OH278082   3.080   6.728  14.680 -0.1216 -0.0439  0.3689
18864TIP3    H178083   2.984   6.728  14.680 -0.1403  0.6163  1.6467
18864TIP3    H278084   3.104   6.711  14.589 -1.4453 -1.1357  0.2004
18865TIP3   OH278085   2.248   5.045  11.204 -0.3915 -0.1993 -0.5109
18865TIP3    H178086   2.245   5.047  11.108 -1.5195 -2.2879 -0.5794
18865TIP3    H278087   2.341   5.044  11.225 -0.1263  0.1417 -1.5810
18866TIP3   OH278088   0.504   1.466   2.326 -0.4272 -0.0332  0.2428
18866TIP3    H178089   0.546   1.517   2.257  1.0066 -0.0975  1.0118
18866TIP3    H278090   0.411   1.481   2.315 -0.1197  1.3744 -0.5989
18867TIP3   OH278091   0.160   5.325   0.306 -0.2646  0.4922 -0.1993
18867TIP3    H178092   0.126   5.412   0.328  1.3121  0.9857  0.3848
18867TIP3    H278093   0.169   5.326   0.211  1.8313  1.8095 -0.0363
18868TIP3   OH278094   5.470   4.423   6.218 -0.7543  0.6806 -0.5914
18868TIP3    H178095   5.484   4.514   6.245  2.5113  0.1952 -0.2875
18868TIP3    H278096   5.450   4.376   6.299  1.9613  0.4624  0.0501
18869TIP3   OH278097   4.822   4.775   2.289  0.1195 -0.1971 -0.1610
18869TIP3    H178098   4.860   4.857   2.259  0.9844 -0.7956 -0.7473
18869TIP3    H278099   4.765   4.747   2.217  1.0399 -0.8811 -0.6459
18870TIP3   OH278100   1.025   2.045  13.106  0.2391  0.5028 -0.1744
18870TIP3    H178101   1.019   2.104  13.181  2.9226  1.4869 -0.6316
18870TIP3    H278102   1.083   1.974  13.136  1.2211  0.8294 -1.2275
18871TIP3   OH278103   5.081   0.879  14.869  0.2096 -0.0770 -0.1375
18871TIP3    H178104   5.020   0.950  14.852 -1.1444 -1.0647  0.4402
18871TIP3    H278105   5.097   0.840  14.782  1.0227  0.9394 -0.4675
18872TIP3   OH278106   0.945   6.766  11.353 -0.4049  0.6940 -0.6185
18872TIP3    H178107   0.875   6.718  11.396 -0.0413  0.0490 -0.7322
18872TIP3    H278108   1.003   6.698  11.318  1.4667  1.1454  1.3697
18873TIP3   OH278109   4.573   4.117   3.567 -0.1501 -0.8373  0.6236
18873TIP3    H178110   4.624   4.054   3.517 -3.9578 -2.3348 -1.8138
18873TIP3    H278111   4.561   4.076   3.653  0.1050 -1.9371  0.1529
18874TIP3   OH278112   3.726   3.333  14.832 -0.1287  0.7599 -0.4646
18874TIP3    H178113   3.701   3.421  14.805 -1.4980  0.8819  0.9878
18874TIP3    H278114   3.787   3.346  14.904 -0.9688  0.5713  0.3070
18875TIP3   OH278115   3.682   1.210  13.627  0.1573 -0.2486 -0.3389
18875TIP3    H178116   3.647   1.137  13.577 -2.1693  0.0213  0.7374
18875TIP3    H278117   3.744   1.170  13.688 -0.6047 -1.2501 -0.1961
18876TIP3   OH278118   2.874   1.864  12.104 -0.1257 -0.1518 -0.5553
18876TIP3    H178119   2.779   1.875  12.109 -0.2111 -1.1054  0.6157
18876TIP3    H278120   2.908   1.953  12.099 -1.0040  0.3477  1.3091
18877TIP3   OH278121   5.562   3.091  15.455  0.5525 -0.2363  0.1894
18877TIP3    H178122   5.507   3.041  15.515  0.9628 -1.7981 -0.6938
18877TIP3    H278123   5.576   3.033  15.380  0.2065  1.5704 -1.3741
18878TIP3   OH278124   4.930   3.376   0.944 -0.1365 -0.2623  0.1196
18878TIP3    H178125   4.980   3.417   0.873  0.4441  1.3747  1.4142
18878TIP3    H278126   4.841   3.368   0.909 -0.3993  2.5768 -0.0971
18879TIP3   OH278127   1.845   4.624  13.179 -0.6488 -0.3068  0.1525
18879TIP3    H178128   1.839   4.544  13.126  4.4647 -0.2550 -0.9994
18879TIP3    H278129   1.863   4.593  13.268  1.2311 -0.5573 -0.2747
18880TIP3   OH278130   6.487   0.154  13.879 -0.1215 -0.4166 -0.0623
18880TIP3    H178131   6.574   0.153  13.840  0.1626  0.4623  0.5296
18880TIP3    H278132   6.463   0.247  13.883 -0.9363 -0.6216  0.1174
18881TIP3   OH278133   2.345   2.574   2.324  0.3026  0.5198 -0.4072
18881TIP3    H178134   2.277   2.547   2.386  0.7921  3.0584  1.4269
18881TIP3    H278135   2.297   2.625   2.257  0.0206 -0.5797 -1.0657
18882TIP3   OH278136   3.731   4.128   3.590 -0.1159  0.5616  0.2593
18882TIP3    H178137   3.698   4.198   3.534  0.0984  0.9504  0.6141
18882TIP3    H278138   3.742   4.054   3.531  0.8952  1.1968 -0.3967
18883TIP3   OH278139   2.040   3.119   0.372  0.0495 -0.0347  0.3938
18883TIP3    H178140   1.977   3.091   0.306  0.0413 -2.2971  1.2874
18883TIP3    H278141   2.122   3.077   0.345  1.0998  2.2863 -0.3553
18884TIP3   OH278142   4.338   1.022   0.439 -0.4639 -0.0540  0.1212
18884TIP3    H178143   4.269   1.087   0.431  0.7918  1.1293 -1.9115
18884TIP3    H278144   4.416   1.072   0.465  0.2056 -0.9361 -0.1293
18885TIP3   OH278145   1.555   0.708  13.918 -0.1093 -0.2613  0.4540
18885TIP3    H178146   1.501   0.708  13.839  1.9874 -0.4502 -1.0854
18885TIP3    H278147   1.578   0.801  13.930 -0.2447 -0.2603  0.6880
18886TIP3   OH278148   4.278   3.095  15.065 -0.6383 -0.3915  0.4598
18886TIP3    H178149   4.264   3.041  14.987 -0.9210 -0.9148  0.8694
18886TIP3    H278150   4.372   3.089  15.082 -0.9625 -2.8438  1.9676
18887TIP3   OH278151   0.562   3.284  12.149 -0.2209  0.7517 -0.1724
18887TIP3    H178152   0.591   3.282  12.240  0.8445  3.0242 -0.3945
18887TIP3    H278153   0.631   3.238  12.101 -1.7093 -2.1907  0.2802
18888TIP3   OH278154   4.342   5.326  16.839  0.6744 -0.4814 -0.1667
18888TIP3    H178155   4.403   5.369  16.778 -0.4501 -1.2795 -1.9031
18888TIP3    H278156   4.311   5.249  16.792 -1.9664  0.0895  0.5074
18889TIP3   OH278157   4.400   1.805   1.441 -0.6595  0.1821  0.2912
18889TIP3    H178158   4.429   1.724   1.483 -0.3872  0.7561  1.2311
18889TIP3    H278159   4.307   1.789   1.422 -0.9009  0.0447  1.4851
18890TIP3   OH278160   1.914   2.494  13.160 -0.1656  0.2151  0.5374
18890TIP3    H178161   1.942   2.515  13.249  1.9608 -1.0471  0.2344
18890TIP3    H278162   1.912   2.579  13.115 -1.2333  0.8618  1.7504
18891TIP3   OH278163   1.677   2.095   2.456  0.0894 -0.4407 -0.0680
18891TIP3    H178164   1.727   2.023   2.417 -0.4675 -1.2102  0.5752
18891TIP3    H278165   1.743   2.157   2.486  0.5324  0.3569 -2.4864
18892TIP3   OH278166   3.110   0.301   4.280  0.3647  0.1857  0.2905
18892TIP3    H178167   3.100   0.209   4.305  1.1090  0.2731  0.9178
18892TIP3    H278168   3.099   0.301   4.184  0.2065 -0.5246  0.3033
18893TIP3   OH278169   6.231   4.542  16.539  0.3120 -0.6117 -0.3734
18893TIP3    H178170   6.291   4.568  16.470 -0.7651 -1.0536 -1.5166
18893TIP3    H278171   6.283   4.488  16.598  1.3277  0.0417 -0.6560
18894TIP3   OH278172   1.060   5.047  15.156  0.7113 -0.1307 -0.4879
18894TIP3    H178173   1.083   4.957  15.179  2.1389  0.2096 -0.5102
18894TIP3    H278174   1.015   5.040  15.072 -3.1453 -1.2350  1.4030
18895TIP3   OH278175   5.892   6.418  16.255 -0.4920 -0.1194  0.5057
18895TIP3    H178176   5.940   6.438  16.174  0.5004 -2.1678  0.5231
18895TIP3    H278177   5.800   6.420  16.229 -0.1869 -1.1045 -0.8066
18896TIP3   OH278178   5.919   3.677   4.802  0.3400  0.4423  0.3116
18896TIP3    H178179   5.939   3.586   4.820 -1.9799 -0.7615 -2.3909
18896TIP3    H278180   5.825   3.685   4.820  0.1883  1.8785 -0.8809
18897TIP3   OH278181   3.194   2.254  14.424  0.0441 -0.1244  0.1410
18897TIP3    H178182   3.233   2.341  14.424 -0.4687  0.1209 -1.1534
18897TIP3    H278183   3.265   2.195  14.400  0.5327 -0.1538  1.5739
18898TIP3   OH278184   2.860   4.653   3.815 -0.2534 -0.3370 -0.0998
18898TIP3    H178185   2.883   4.717   3.748 -0.9184  0.4840  0.4352
18898TIP3    H278186   2.938   4.598   3.825  0.0506 -0.0979 -1.1135
18899TIP3   OH278187   4.951   5.097  13.150 -0.1532  0.0042 -0.4214
18899TIP3    H178188   4.966   5.048  13.231 -3.0416  0.5451  0.5678
18899TIP3    H278189   5.022   5.161  13.146  0.2217 -0.2434  1.5032
18900TIP3   OH278190   5.800   5.938   1.569 -0.1487  0.2114 -0.2154
18900TIP3    H178191   5.798   5.844   1.581 -0.1637  0.4144  1.7245
18900TIP3    H278192   5.845   5.971   1.647  0.8115  1.7342 -1.3577
18901TIP3   OH278193   5.933   1.631   4.288  0.0920 -0.3536 -0.2126
18901TIP3    H178194   5.911   1.708   4.340  0.4281  0.2695 -0.9795
18901TIP3    H278195   6.027   1.619   4.299  0.0207 -0.7370  0.0087
18902TIP3   OH278196   3.458   0.295  12.976 -0.0445  0.3683  0.5677
18902TIP3    H178197   3.385   0.317  12.918 -0.5602 -1.2019  0.5942
18902TIP3    H278198   3.536   0.313  12.923 -0.5018 -2.6992 -1.3468
18903TIP3   OH278199   3.974   6.497   5.878  0.7768 -0.1383 -0.0173
18903TIP3    H178200   4.030   6.429   5.842  0.1708 -0.3325 -0.6250
18903TIP3    H278201   3.918   6.452   5.941 -1.1220 -0.7144 -1.9520
18904TIP3   OH278202   4.756   2.568  15.058  0.4032  0.1221  0.8690
18904TIP3    H178203   4.743   2.663  15.060  1.7203  0.5266 -2.4376
18904TIP3    H278204   4.845   2.557  15.024 -0.2658 -2.2856 -0.3076
18905TIP3   OH278205   2.674   0.511  15.326  0.3064  0.0489 -0.2078
18905TIP3    H178206   2.724   0.444  15.280  1.5982  1.1877 -0.5272
18905TIP3    H278207   2.736   0.583  15.338 -1.4971  1.9487 -1.5321
18906TIP3   OH278208   0.261   4.541   3.501  0.1878 -0.6794 -0.1351
18906TIP3    H178209   0.341   4.497   3.530  0.8144 -0.0457 -0.8798
18906TIP3    H278210   0.274   4.555   3.407 -0.4288  0.2100 -0.0937
18907TIP3   OH278211   0.263   6.780   1.587  0.4300  0.5092 -0.4869
18907TIP3    H178212   0.237   6.853   1.642  2.2143  0.8441 -0.0311
18907TIP3    H278213   0.311   6.820   1.514  1.6612 -0.1747 -0.0937
18908TIP3   OH278214   4.397   3.979   0.083  0.0265  0.0709 -0.0160
18908TIP3    H178215   4.347   4.021   0.154  1.8748  0.2759  1.2430
18908TIP3    H278216   4.417   3.892   0.116  0.8436  0.1371 -0.3193
18909TIP3   OH278217   1.147   5.524   1.193 -0.4089  0.5049 -0.0949
18909TIP3    H178218   1.157   5.495   1.102  0.0511 -1.0031  0.3992
18909TIP3    H278219   1.207   5.468   1.243 -1.5269  0.4728  1.2824
18910TIP3   OH278220   1.913   2.240   2.216  0.3149 -0.4237  0.8146
18910TIP3    H178221   1.886   2.264   2.305 -1.0218 -1.4536  0.7098
18910TIP3    H278222   1.933   2.324   2.174 -0.5288  0.2063  1.6233
18911TIP3   OH278223   1.858   4.928   1.855 -0.0514  0.0044 -0.9012
18911TIP3    H178224   1.909   4.882   1.922  0.6417 -0.7628 -1.9273
18911TIP3    H278225   1.774   4.882   1.852 -0.2580  0.3261 -0.2622
18912TIP3   OH278226   4.457   1.145   1.758  0.4063  0.2500 -0.4755
18912TIP3    H178227   4.479   1.235   1.782 -1.4815  1.1813 -1.8825
18912TIP3    H278228   4.427   1.105   1.839 -3.2016  2.4363 -0.5083
18913TIP3   OH278229   4.811   2.967   4.652 -0.6422 -0.1014 -0.1414
18913TIP3    H178230   4.871   2.901   4.687  1.2171 -0.2897 -3.2645
18913TIP3    H278231   4.750   2.916   4.598  0.6950  0.5800 -2.4254
18914TIP3   OH278232   1.088   5.875  15.744  0.8834 -0.0873 -0.3382
18914TIP3    H178233   1.180   5.898  15.733  1.5268 -2.2857 -0.0869
18914TIP3    H278234   1.063   5.911  15.829  1.5539  0.3722 -0.3327
18915TIP3   OH278235   5.214   1.117  16.026 -0.6866 -0.4964  0.3424
18915TIP3    H178236   5.191   1.185  15.962  0.9221  1.2024  1.4683
18915TIP3    H278237   5.133   1.102  16.075 -1.4007 -0.3587 -0.7504
18916TIP3   OH278238   2.221   5.857  13.992 -0.1114 -0.2265  0.2952
18916TIP3    H178239   2.224   5.830  13.900  0.7908 -0.6311  0.4405
18916TIP3    H278240   2.294   5.918  14.001  1.4991 -2.2137  1.3709
18917TIP3   OH278241   6.511   1.613   0.255  0.0366 -0.4216 -0.7088
18917TIP3    H178242   6.559   1.558   0.316  0.0072 -0.0805 -0.3781
18917TIP3    H278243   6.423   1.620   0.293  0.0154 -0.2166 -0.7949
18918TIP3   OH278244   3.548   0.400  15.921 -0.2972 -0.1396  0.6676
18918TIP3    H178245   3.585   0.338  15.983  1.6357  1.8138  1.6242
18918TIP3    H278246   3.467   0.430  15.961 -0.7634 -1.3266  0.6287
18919TIP3   OH278247   0.070   3.694  13.664  0.4372 -0.5610 -0.5425
18919TIP3    H178248   0.023   3.765  13.707 -0.5530 -1.6571  0.2251
18919TIP3    H278249   0.007   3.657  13.602  1.7493  0.8447 -2.9093
18920TIP3   OH278250   2.568   2.038  10.882  0.1767 -0.0990 -0.1393
18920TIP3    H178251   2.625   1.963  10.894 -0.6362 -0.4378  2.0149
18920TIP3    H278252   2.479   2.002  10.886 -0.2256  0.8211 -0.3516
18921TIP3   OH278253   0.133   0.601   1.303 -0.0058 -0.0060  0.6877
18921TIP3    H178254   0.067   0.591   1.234  0.4211  0.3255  0.2297
18921TIP3    H278255   0.181   0.518   1.302  1.2072  0.6686 -0.6875
18922TIP3   OH278256   6.062   2.072   1.475  0.1072 -0.0132 -0.2008
18922TIP3    H178257   5.968   2.074   1.458  0.0526  1.8642  0.1136
18922TIP3    H278258   6.101   2.062   1.388 -0.3556 -3.4246 -0.1485
18923TIP3   OH278259   5.616   1.167  16.421 -0.4191 -0.2503 -0.0608
18923TIP3    H178260   5.669   1.119  16.356  2.8296  1.5716  1.0277
18923TIP3    H278261   5.624   1.114  16.500 -0.2283  0.0412  0.1118
18924TIP3   OH278262   3.900   1.018   2.350 -0.1084 -0.0272 -0.4077
18924TIP3    H178263   3.838   1.016   2.276 -1.7950 -2.1641  0.9274
18924TIP3    H278264   3.844   1.015   2.427  1.5420  3.6504  1.1515
18925TIP3   OH278265   2.662   4.412   5.893 -0.4882  0.0318  0.1586
18925TIP3    H178266   2.612   4.492   5.876 -1.0379 -0.3676 -0.1904
18925TIP3    H278267   2.670   4.407   5.988 -0.7687  0.3155  0.1974
18926TIP3   OH278268   2.891   6.182   0.781 -0.0558  0.2632  0.1283
18926TIP3    H178269   2.973   6.137   0.759 -0.3645 -0.8582  1.1780
18926TIP3    H278270   2.823   6.116   0.770 -0.2295 -0.4999  4.3856
18927TIP3   OH278271   6.103   4.150   0.968  0.6125 -0.7570 -0.0596
18927TIP3    H178272   6.118   4.207   1.044  0.5020 -1.4332  0.4794
18927TIP3    H278273   6.181   4.094   0.965 -0.1104 -1.8253  0.5443
18928TIP3   OH278274   4.192   2.232   4.437 -0.0271 -0.0002 -0.3104
18928TIP3    H178275   4.274   2.278   4.419 -0.8896  1.2057 -1.2881
18928TIP3    H278276   4.193   2.156   4.379  0.0984  0.3730 -0.7930
18929TIP3   OH278277   5.559   5.154  12.153  0.5358 -0.0544  0.2446
18929TIP3    H178278   5.529   5.155  12.063 -1.1880 -2.2576  0.7122
18929TIP3    H278279   5.533   5.239  12.188  0.5713  0.5410 -1.1141
18930TIP3   OH278280   6.598   2.416   1.222  0.3281 -0.2610 -0.0329
18930TIP3    H178281   6.507   2.388   1.224  0.5799 -1.0645  1.2032
18930TIP3    H278282   6.649   2.336   1.231  1.1605  0.1778 -0.6909
18931TIP3   OH278283   2.395   0.329  11.476  0.4102  0.4753  0.3781
18931TIP3    H178284   2.456   0.310  11.548  0.9706 -0.7629 -0.3852
18931TIP3    H278285   2.451   0.345  11.400 -0.1902  0.9545  0.0253
18932TIP3   OH278286   3.181   6.090   0.503  0.4832  0.1563 -0.3007
18932TIP3    H178287   3.267   6.105   0.542  1.0091 -1.6161 -0.6756
18932TIP3    H278288   3.123   6.073   0.577  0.5951  0.6576 -0.0923
18933TIP3   OH278289   2.534   3.602   1.526 -0.1058  0.1453 -0.5610
18933TIP3    H178290   2.573   3.630   1.444  1.0481 -0.0795 -0.1148
18933TIP3    H278291   2.446   3.640   1.526 -0.0773  0.2344 -1.8354
18934TIP3   OH278292   0.295   6.808   3.304 -0.0001 -0.1941  0.3109
18934TIP3    H178293   0.260   6.728   3.264 -0.4267 -0.4695  1.2163
18934TIP3    H278294   0.222   6.843   3.356  0.6525 -0.0544  1.1542
18935TIP3   OH278295   6.329   2.025  16.281 -0.3631  0.1330  0.0062
18935TIP3    H178296   6.383   2.104  16.269  0.5197 -0.5435 -0.5873
18935TIP3    H278297   6.293   2.007  16.195 -0.1799 -0.3827  0.0364
18936TIP3   OH278298   6.644   3.803  15.845  0.4011  0.1347  0.2828
18936TIP3    H178299   6.577   3.871  15.856 -0.8685 -1.0952  0.3683
18936TIP3    H278300   6.602   3.736  15.792  2.1235  0.0264 -1.0471
18937TIP3   OH278301   0.924   5.077  16.681 -0.0550  0.0979  0.1514
18937TIP3    H178302   0.998   5.056  16.738  0.1245  0.4472  0.0468
18937TIP3    H278303   0.849   5.036  16.724 -0.2740  2.0129  1.7330
18938TIP3   OH278304   6.005   0.968   5.617  0.0245 -0.4460 -0.3441
18938TIP3    H178305   5.918   0.997   5.590  0.8885  2.0948 -0.6762
18938TIP3    H278306   6.061   1.045   5.603  2.1285 -1.6820  0.8284
18939TIP3   OH278307   5.447   5.553   5.229  0.0428 -0.1007  0.4313
18939TIP3    H178308   5.388   5.480   5.251  0.7061 -0.5626  0.7167
18939TIP3    H278309   5.470   5.539   5.138  0.2426 -0.3003  0.5125
18940TIP3   OH278310   3.272   0.029  13.922 -0.2547  0.2526 -0.1468
18940TIP3    H178311   3.340   0.084  13.961 -0.9189 -0.3362  2.0339
18940TIP3    H278312   3.313  -0.012  13.847  1.4511  0.7573  0.4644
18941TIP3   OH278313   2.806   0.225   2.322  0.3727 -0.0676 -0.2578
18941TIP3    H178314   2.754   0.296   2.361  3.1777  2.2215 -0.3451
18941TIP3    H278315   2.793   0.151   2.380 -0.7412  1.2581  1.2803
18942TIP3   OH278316   3.734   5.787   6.054  0.1674 -0.0935  0.1150
18942TIP3    H178317   3.819   5.751   6.078 -0.8261 -1.3183  2.0256
18942TIP3    H278318   3.682   5.783   6.135 -2.5795 -1.9910 -1.5626
18943TIP3   OH278319   6.784   2.896   5.295 -0.2888 -0.1876 -0.1826
18943TIP3    H178320   6.866   2.921   5.253  0.6163 -1.4882  0.7446
18943TIP3    H278321   6.719   2.954   5.256  1.2983  2.0148  0.2216
18944TIP3   OH278322   5.185   4.607  13.452 -0.0749 -0.1744 -0.3048
18944TIP3    H178323   5.094   4.633  13.463 -0.2804 -0.5144 -1.1058
18944TIP3    H278324   5.182   4.512  13.445  0.3157 -0.1710 -0.5582
18945TIP3   OH278325   1.245   4.733  11.343 -0.4055 -0.7659 -0.5038
18945TIP3    H178326   1.311   4.755  11.278 -1.1069  0.4719 -0.8365
18945TIP3    H278327   1.295   4.705  11.420  0.5628  1.0243 -0.4319
18946TIP3   OH278328   2.629   1.941  11.873 -0.2212 -0.0394 -0.2685
18946TIP3    H178329   2.608   1.874  11.937  0.8828  0.0222  0.1789
18946TIP3    H278330   2.547   1.987  11.858 -0.6513 -0.5308  0.5459
18947TIP3   OH278331   6.050   0.812  17.115 -0.4110  0.3177  0.0060
18947TIP3    H178332   6.078   0.727  17.083 -0.8865  0.8530 -1.9499
18947TIP3    H278333   6.118   0.873  17.087  0.0269  0.5881  1.5559
18948TIP3   OH278334   0.248   6.727  16.422  0.1867 -0.0338 -0.0771
18948TIP3    H178335   0.270   6.648  16.372  1.2738 -0.4653  1.0252
18948TIP3    H278336   0.161   6.752  16.391 -0.4827 -2.0578  0.0299
18949TIP3   OH278337   2.683   3.028   4.784  0.1709 -0.1847 -0.0409
18949TIP3    H178338   2.643   3.032   4.697 -0.2566 -0.8596  0.1172
18949TIP3    H278339   2.608   3.028   4.844  0.3662 -1.9582  0.2450
18950TIP3   OH278340   2.620   6.032   1.859  0.2458  0.1854 -0.3440
18950TIP3    H178341   2.707   6.013   1.894  0.0583 -0.1175 -0.0371
18950TIP3    H278342   2.567   6.055   1.935  0.7530  3.2631 -0.7932
18951TIP3   OH278343   1.303   0.277  11.365 -0.2099 -0.1791  0.1204
18951TIP3    H178344   1.324   0.255  11.274  0.3447 -1.2546  0.4966
18951TIP3    H278345   1.292   0.372  11.364  2.6714  0.2482 -0.5371
18952TIP3   OH278346   4.281   2.389   1.759 -0.0559  0.3732  0.2179
18952TIP3    H178347   4.274   2.375   1.665  0.8220 -0.2904  0.2390
18952TIP3    H278348   4.198   2.430   1.784 -0.0980  1.0073 -0.9174
18953TIP3   OH278349   5.410   3.416   2.516 -0.4685  0.5704 -0.0268
18953TIP3    H178350   5.378   3.356   2.583 -1.5729  1.1874  0.0070
18953TIP3    H278351   5.373   3.383   2.434  3.1968 -1.9594 -0.9322
18954TIP3   OH278352   2.137   5.005   5.267 -0.0712 -0.0312  0.1820
18954TIP3    H178353   2.076   4.934   5.285 -1.3330  0.4196 -1.9066
18954TIP3    H278354   2.094   5.083   5.302  0.0050  0.0832  0.0192
18955TIP3   OH278355   5.909   1.909  10.725  0.0042 -0.4074  0.2667
18955TIP3    H178356   5.915   1.874  10.636  1.0936  1.0660 -0.2685
18955TIP3    H278357   6.000   1.917  10.754 -0.2278  1.4650  0.5577
18956TIP3   OH278358   4.551   5.831  11.590  0.2895 -0.2687 -0.5491
18956TIP3    H178359   4.476   5.791  11.546 -0.4384  0.0492  0.3562
18956TIP3    H278360   4.620   5.833  11.524  0.7189 -3.8675 -0.4368
18957TIP3   OH278361   5.687   2.722  12.200 -0.1630  0.7329 -0.9114
18957TIP3    H178362   5.773   2.740  12.164 -0.2258 -1.1677 -2.1439
18957TIP3    H278363   5.626   2.769  12.143  0.0237  2.3717  0.1723
18958TIP3   OH278364   5.588   4.746  14.999 -0.5805 -0.3909 -0.3087
18958TIP3    H178365   5.589   4.738  14.904 -4.5800 -1.5764 -0.4527
18958TIP3    H278366   5.583   4.656  15.031  0.6777 -0.0114  1.0461
18959TIP3   OH278367   2.954   5.905   1.450 -0.2903 -0.2676  0.0671
18959TIP3    H178368   2.992   5.914   1.362 -1.2780 -2.2559 -0.6314
18959TIP3    H278369   2.869   5.947   1.444 -0.0392  0.2837  0.3184
18960TIP3   OH278370   4.447   0.025  14.741 -0.2909 -0.3481  0.5778
18960TIP3    H178371   4.426   0.117  14.752  2.0146  0.1316  1.6050
18960TIP3    H278372   4.541   0.024  14.723 -0.3018 -2.4868  0.3894
18961TIP3   OH278373   5.074   3.252   5.461  0.0518  0.1103  0.6356
18961TIP3    H178374   5.083   3.269   5.555 -1.0408  1.3296  0.5466
18961TIP3    H278375   5.000   3.191   5.455 -0.4201  0.6856  0.5266
18962TIP3   OH278376   4.233   0.643  13.091 -0.3470 -1.2163 -0.1252
18962TIP3    H178377   4.267   0.705  13.026 -0.2991 -1.2552 -0.1382
18962TIP3    H278378   4.140   0.637  13.072 -0.6864  0.1503  0.9605
18963TIP3   OH278379   4.057   1.922  11.625  0.4288  0.1851  0.1964
18963TIP3    H178380   3.972   1.899  11.588  0.3860 -0.4582  0.6822
18963TIP3    H278381   4.104   1.839  11.631  1.0268  0.5096  0.0989
18964TIP3   OH278382   5.168   6.067  16.777 -0.5506  0.3869 -0.1810
18964TIP3    H178383   5.193   6.008  16.705  1.8513 -0.8892  1.5257
18964TIP3    H278384   5.218   6.147  16.761 -1.6576  0.9335 -1.0125
18965TIP3   OH278385   3.558   6.632   4.649 -0.0889 -0.4003  0.0824
18965TIP3    H178386   3.496   6.604   4.716 -0.3512 -0.3448 -0.1344
18965TIP3    H278387   3.541   6.573   4.575 -1.2521  0.8651 -0.7139
18966TIP3   OH278388   3.269   4.187   5.929  0.2312 -0.6580  0.7763
18966TIP3    H178389   3.254   4.229   6.014  0.4176 -0.4997  0.7319
18966TIP3    H278390   3.347   4.134   5.943  0.7239 -0.0273  0.4928
18967TIP3   OH278391   6.304   2.263   3.258 -0.9504 -0.3531  0.1011
18967TIP3    H178392   6.227   2.319   3.261 -0.7411 -0.0733  0.2627
18967TIP3    H278393   6.323   2.243   3.350  0.3530  1.2140  0.2133
18968TIP3   OH278394   0.451   1.164  13.614 -0.5366 -0.1893 -0.1314
18968TIP3    H178395   0.442   1.130  13.703  0.5876 -1.0518 -0.3326
18968TIP3    H278396   0.471   1.257  13.626  0.4242 -0.4680  0.5496
18969TIP3   OH278397   0.142   5.315  16.748  0.2722 -0.0461 -0.4241
18969TIP3    H178398   0.118   5.311  16.655 -2.1087 -0.6058  0.1464
18969TIP3    H278399   0.075   5.371  16.787 -0.1800 -1.7072  1.3257
18970TIP3   OH278400   6.137   0.587  15.511 -0.5137  0.3054  0.4703
18970TIP3    H178401   6.167   0.622  15.595 -1.2090 -0.4870  1.0709
18970TIP3    H278402   6.162   0.495  15.514  2.1654  0.8568 -1.4929
18971TIP3   OH278403   5.751   4.582   5.548 -0.4375 -0.3863  0.3733
18971TIP3    H178404   5.686   4.512   5.544 -1.8715  0.7789  1.9360
18971TIP3    H278405   5.822   4.546   5.601 -0.5710 -1.0845  0.0846
18972TIP3   OH278406   5.888   2.022   1.823  0.4489  0.7539  0.2245
18972TIP3    H178407   5.843   1.940   1.842 -1.6905  1.1033 -2.7160
18972TIP3    H278408   5.970   1.996   1.781  0.0902  0.1105 -0.0860
18973TIP3   OH278409   4.721   6.442  12.764 -0.1199  0.3894 -0.4571
18973TIP3    H178410   4.675   6.483  12.690 -0.8645  1.3500  0.5025
18973TIP3    H278411   4.652   6.424  12.828  0.7131  1.1380  0.6908
18974TIP3   OH278412   3.078   0.044   0.569  0.1407  0.4017 -0.6036
18974TIP3    H178413   3.067  -0.050   0.584 -1.0707  0.7229  0.8354
18974TIP3    H278414   3.130   0.073   0.644 -0.7597  1.0971 -0.2367
18975TIP3   OH278415   6.055   0.821   2.924 -0.4878  0.0590  0.3882
18975TIP3    H178416   6.091   0.881   2.859  0.5651  0.1990  1.0839
18975TIP3    H278417   5.977   0.785   2.883  0.0238  0.3334 -0.8472
18976TIP3   OH278418   0.947   6.223  14.662  0.3205 -0.0905  0.4792
18976TIP3    H178419   0.939   6.292  14.729  2.7067  0.2171  0.5579
18976TIP3    H278420   1.038   6.230  14.632 -0.6088 -0.3411 -2.7084
18977TIP3   OH278421   4.152   6.023  14.525  0.3295  0.1211 -0.5215
18977TIP3    H178422   4.059   6.044  14.513 -0.3569 -0.8729  2.0972
18977TIP3    H278423   4.150   5.942  14.577  2.6609  0.2417 -0.1606
18978TIP3   OH278424   2.236   1.717   2.441  0.1137 -0.5452  0.4424
18978TIP3    H178425   2.331   1.726   2.453 -0.1464 -0.6704  3.3604
18978TIP3    H278426   2.204   1.688   2.526 -2.7541  1.0582  0.0298
18979TIP3   OH278427   2.594   4.842   2.721  0.0071  0.1555  0.2636
18979TIP3    H178428   2.527   4.814   2.783 -0.1196 -0.8812 -0.3182
18979TIP3    H278429   2.544   4.871   2.644  0.1560  1.5498  0.6671
18980TIP3   OH278430   0.476   6.465  16.972  0.0603  0.2365 -0.1208
18980TIP3    H178431   0.430   6.533  17.021 -1.4542  0.1362 -1.3150
18980TIP3    H278432   0.479   6.498  16.882  1.6789 -0.1229 -0.2305
18981TIP3   OH278433   4.635   1.570   4.748  0.1874 -0.2604  0.4579
18981TIP3    H178434   4.549   1.575   4.705  0.3359 -0.9414  0.0809
18981TIP3    H278435   4.630   1.492   4.802  1.1297 -1.2344 -0.8132
18982TIP3   OH278436   2.817   5.668   2.377 -0.0347 -0.3479  0.2231
18982TIP3    H178437   2.786   5.584   2.411  0.5413 -1.2686 -1.4336
18982TIP3    H278438   2.911   5.657   2.366  0.0288  0.4743 -0.1591
18983TIP3   OH278439   5.260   1.150   0.266 -0.1297  0.3929  0.3389
18983TIP3    H178440   5.178   1.169   0.312 -0.3444  0.9267 -0.2604
18983TIP3    H278441   5.300   1.080   0.317 -1.2711 -0.3260  0.2637
18984TIP3   OH278442   1.076   1.896   5.525 -0.0011  0.4308  0.0163
18984TIP3    H178443   1.053   1.851   5.606 -0.7186 -0.8980 -0.8873
18984TIP3    H278444   1.084   1.827   5.460  0.5407  1.4658 -1.0733
18985TIP3   OH278445   1.221   3.460   5.868 -0.0999 -0.4219  0.1307
18985TIP3    H178446   1.235   3.487   5.958  1.2161 -1.8275  0.3844
18985TIP3    H278447   1.171   3.378   5.875  0.1749 -0.6403 -0.4056
18986TIP3   OH278448   6.496   0.095   4.724  0.2090 -0.3350 -0.1300
18986TIP3    H178449   6.583   0.100   4.764  0.0092 -0.0246  0.2782
18986TIP3    H278450   6.445   0.042   4.786  0.4420 -1.6203 -0.9978
18987TIP3   OH278451   4.557   6.278  11.507 -0.3602  0.3591  0.1951
18987TIP3    H178452   4.525   6.313  11.424 -0.3899  0.6625  0.3362
18987TIP3    H278453   4.622   6.213  11.481  0.3244  1.1223 -0.0485
18988TIP3   OH278454   4.041   6.404   5.266  0.2307  0.4892 -0.4508
18988TIP3    H178455   4.070   6.385   5.177  1.6506  1.3166 -0.1929
18988TIP3    H278456   4.102   6.355   5.322  1.7543  2.9063  0.1214
18989TIP3   OH278457   1.036   5.982  12.815  0.3770 -1.0411  0.2896
18989TIP3    H178458   0.989   5.900  12.830 -0.6570 -0.6162 -0.4771
18989TIP3    H278459   1.077   5.971  12.729 -1.1385 -0.1864 -0.6001
18990TIP3   OH278460   1.364   2.766   1.691 -0.3197 -0.1748  0.3570
18990TIP3    H178461   1.377   2.801   1.780 -0.8731  0.5027  0.1816
18990TIP3    H278462   1.362   2.844   1.636 -1.6437 -0.4784 -0.0446
18991TIP3   OH278463   2.903   2.440   3.947 -0.0609  0.4525  0.3923
18991TIP3    H178464   2.979   2.430   3.889 -0.8803  0.0022 -0.6168
18991TIP3    H278465   2.850   2.362   3.931 -1.1707  1.1809  0.4596
18992TIP3   OH278466   2.072   1.082  16.375 -0.2252 -0.1599  0.1507
18992TIP3    H178467   2.120   1.117  16.300 -0.9977  0.3412 -0.1143
18992TIP3    H278468   2.054   1.158  16.430  0.5161 -0.5524  0.9660
18993TIP3   OH278469   5.359   1.898  11.925 -0.6707  0.3511  0.1452
18993TIP3    H178470   5.428   1.917  11.988  0.7195 -2.3117 -0.4212
18993TIP3    H278471   5.333   1.808  11.944 -3.1317  0.8530 -0.5016
18994TIP3   OH278472   1.519   0.643  15.991 -0.0604 -0.9694 -0.4241
18994TIP3    H178473   1.590   0.683  16.041 -1.0254 -0.2751  0.4407
18994TIP3    H278474   1.461   0.717  15.968 -1.1498 -1.6679 -0.0102
18995TIP3   OH278475   5.948   3.728  14.281  0.6417  0.0175  0.2717
18995TIP3    H178476   5.912   3.699  14.197 -1.0661 -0.8196  1.2265
18995TIP3    H278477   6.007   3.658  14.308 -2.2491 -2.0599  1.8067
18996TIP3   OH278478   2.183   1.698   3.667  0.0806 -0.5415  0.3488
18996TIP3    H178479   2.215   1.645   3.593 -0.7961  0.3912 -0.7428
18996TIP3    H278480   2.149   1.633   3.729  0.0067 -1.3343 -0.4801
18997TIP3   OH278481   2.191   0.568   2.141 -0.4286 -0.1562 -0.4122
18997TIP3    H178482   2.119   0.613   2.097  1.4484  3.6471  0.0059
18997TIP3    H278483   2.204   0.616   2.223  3.4453  0.4261 -1.1372
18998TIP3   OH278484   5.882   3.454  16.389 -0.4935 -0.3028 -0.1601
18998TIP3    H178485   5.966   3.498  16.404 -1.4100  1.6458 -0.3681
18998TIP3    H278486   5.828   3.482  16.463 -0.9660 -1.5576 -0.0192
18999TIP3   OH278487   5.592   3.739  14.905 -0.4038  0.4177  0.3838
18999TIP3    H178488   5.513   3.773  14.947 -0.1771  1.8919 -0.3364
18999TIP3    H278489   5.663   3.795  14.938  0.2016 -0.2640  0.2656
19000TIP3   OH278490   4.418   0.379  12.890  0.3821  0.1139 -0.2946
19000TIP3    H178491   4.349   0.428  12.936  1.0998  2.1645 -1.2886
19000TIP3    H278492   4.498   0.427  12.910  1.3247 -1.3582 -0.3913
19001TIP3   OH278493   3.200   1.467   1.671 -0.1286  0.3185 -0.2931
19001TIP3    H178494   3.260   1.521   1.722  0.7743 -2.3073  1.6174
19001TIP3    H278495   3.250   1.444   1.592  0.8423 -0.5418  0.5374
19002TIP3   OH278496   5.075   3.219  13.522 -0.0380 -0.4039  0.4414
19002TIP3    H178497   5.005   3.262  13.472 -1.0206 -2.1673  0.2225
19002TIP3    H278498   5.047   3.228  13.613  0.5985  0.8195  0.5328
19003TIP3   OH278499   2.780   6.270  16.164  0.3944  0.5953 -0.4883
19003TIP3    H178500   2.711   6.333  16.148 -0.1760  0.3136  0.7076
19003TIP3    H278501   2.780   6.213  16.087 -1.0735  0.2792 -0.2742
19004TIP3   OH278502   3.685   2.840   0.791 -0.8984 -0.7303  0.8490
19004TIP3    H178503   3.744   2.773   0.825 -1.1802 -1.2967  0.2320
19004TIP3    H278504   3.613   2.843   0.855 -0.4686 -0.3962  1.3312
19005TIP3   OH278505   3.336   0.614  10.484 -0.2774 -0.0593 -0.0326
19005TIP3    H178506   3.349   0.665  10.404  0.4779 -1.4469 -0.8263
19005TIP3    H278507   3.424   0.595  10.516 -0.4858 -1.7354 -0.3499
19006TIP3   OH278508   0.263   6.719  16.149  0.1813 -0.3234 -0.2716
19006TIP3    H178509   0.303   6.633  16.159  1.5929  0.0117 -2.4608
19006TIP3    H278510   0.212   6.714  16.069 -0.4645  0.6362  0.0495
19007TIP3   OH278511   5.786   1.059  13.599 -0.2891  0.2615  0.3207
19007TIP3    H178512   5.705   1.011  13.616 -0.9640  1.0609 -0.5918
19007TIP3    H278513   5.825   1.015  13.524 -0.2862  0.3728  0.2559
19008TIP3   OH278514   3.674   6.602   5.946  0.3735  0.3431  0.2250
19008TIP3    H178515   3.726   6.678   5.974  1.5434 -1.1867  2.5038
19008TIP3    H278516   3.721   6.526   5.980 -1.1962 -1.3957 -1.2440
19009TIP3   OH278517   0.733   6.697   0.036 -0.4173  0.5431  0.1219
19009TIP3    H178518   0.650   6.651   0.019 -0.5347  1.0390 -0.6707
19009TIP3    H278519   0.800   6.637   0.003 -0.4320  0.0541  0.9387
19010TIP3   OH278520   4.257   1.784  13.861  0.1694 -0.5841  0.1078
19010TIP3    H178521   4.190   1.851  13.844  1.0046 -0.0906 -1.4590
19010TIP3    H278522   4.226   1.707  13.814  0.5379 -0.4348 -0.3963
19011TIP3   OH278523   2.127   6.419  15.208  0.3224  0.2096  0.1270
19011TIP3    H178524   2.167   6.348  15.157 -0.7027  0.9675 -1.8589
19011TIP3    H278525   2.176   6.497  15.183 -0.0246  0.5520  0.5064
19012TIP3   OH278526   5.450   2.519  11.267  0.1367 -0.0945  0.3520
19012TIP3    H178527   5.536   2.511  11.308  0.0138  0.2815  0.6920
19012TIP3    H278528   5.469   2.540  11.176  0.4108  0.8920  0.6171
19013TIP3   OH278529   1.256   1.002   3.399  0.4794  0.5813  0.4771
19013TIP3    H178530   1.254   1.029   3.491 -0.8127  0.6164  0.4634
19013TIP3    H278531   1.292   1.077   3.352  0.0752  1.0047  0.8328
19014TIP3   OH278532   2.031   2.412   5.432  0.0352  0.2927  0.1033
19014TIP3    H178533   1.988   2.393   5.348  0.9420 -0.6505 -0.1686
19014TIP3    H278534   1.967   2.465   5.480 -0.9267 -0.0428 -0.7661
19015TIP3   OH278535   4.849   3.627   2.528  0.1846 -0.2807  0.7489
19015TIP3    H178536   4.819   3.584   2.608 -0.8477 -1.3229 -0.1649
19015TIP3    H278537   4.781   3.693   2.509  1.1997  1.0422  1.5383
19016TIP3   OH278538   1.218   2.300   2.087  0.4039  0.3222  0.5166
19016TIP3    H178539   1.207   2.296   1.992 -0.3510 -1.6189  0.6422
19016TIP3    H278540   1.206   2.393   2.109 -2.0241  0.4571 -1.0059
19017TIP3   OH278541   1.338   5.752   3.706  0.5833  0.5980  0.5583
19017TIP3    H178542   1.272   5.710   3.651 -0.2275  2.0738  0.3498
19017TIP3    H278543   1.340   5.700   3.786  0.5746 -0.5930 -0.2007
19018TIP3   OH278544   1.216   1.348   4.378  0.0119  0.0506  0.5142
19018TIP3    H178545   1.146   1.352   4.443 -0.4514  0.4413 -0.0011
19018TIP3    H278546   1.181   1.293   4.308  0.0611  0.5701  0.0750
19019TIP3   OH278547   3.774   2.675   2.266  0.0630 -0.0868  0.0848
19019TIP3    H178548   3.691   2.647   2.306 -0.6436  1.8448  0.0819
19019TIP3    H278549   3.809   2.740   2.328  0.9892 -0.0250 -0.4905
19020TIP3   OH278550   5.758   4.820  17.153 -0.1870 -0.4222  0.0213
19020TIP3    H178551   5.793   4.875  17.222  1.2761  0.3693 -1.2794
19020TIP3    H278552   5.785   4.731  17.177 -0.5637 -0.2929  0.9582
19021TIP3   OH278553   1.046   4.655  16.309  0.7053  0.5536 -0.0784
19021TIP3    H178554   0.979   4.722  16.319 -0.8181 -0.8606 -0.3922
19021TIP3    H278555   1.070   4.659  16.216  1.7260  1.6297  0.2068
19022TIP3   OH278556   6.342   4.918  16.125  0.1436 -0.4152 -0.0892
19022TIP3    H178557   6.414   4.974  16.097  0.2877 -1.0680 -1.0867
19022TIP3    H278558   6.375   4.872  16.203  0.4165  0.0630  0.0798
19023TIP3   OH278559   2.316   5.841  15.448 -0.1433  0.6468 -0.3311
19023TIP3    H178560   2.388   5.798  15.401 -1.2000 -0.8459 -0.6647
19023TIP3    H278561   2.237   5.811  15.403 -1.0603  1.0331  0.9654
19024TIP3   OH278562   4.974   4.459  10.981 -0.2591  0.4473  0.3383
19024TIP3    H178563   4.964   4.388  11.044  2.3866  0.1101  0.4894
19024TIP3    H278564   4.961   4.417  10.896  1.5564 -0.3357  0.4120
19025TIP3   OH278565   2.228   1.956   5.523  0.0402 -0.1185  0.2012
19025TIP3    H178566   2.259   2.044   5.504 -1.4044  0.3910  0.0682
19025TIP3    H278567   2.156   1.969   5.585 -0.0022 -1.2297  0.4018
19026TIP3   OH278568   6.194   2.842  10.719 -0.2908  0.2844  0.2090
19026TIP3    H178569   6.137   2.766  10.715  1.6244 -1.2287  0.0380
19026TIP3    H278570   6.282   2.805  10.732  1.1087  2.2486 -2.5393
19027TIP3   OH278571   2.029   5.779   4.428 -0.3474 -0.4296 -1.3850
19027TIP3    H178572   1.981   5.782   4.510  2.1809  1.6276  0.1667
19027TIP3    H278573   1.965   5.749   4.364 -2.8347 -0.6283  1.0277
19028TIP3   OH278574   5.534   1.424  15.416 -0.1258 -0.1872  0.5747
19028TIP3    H178575   5.475   1.482  15.464  0.9986  0.5950  1.0513
19028TIP3    H278576   5.613   1.476  15.402  0.5394 -1.2752  0.1265
19029TIP3   OH278577   0.367   2.482  16.261  0.0785 -0.1425 -0.4334
19029TIP3    H178578   0.385   2.508  16.171  0.9941 -0.3174 -0.3064
19029TIP3    H278579   0.274   2.503  16.274 -0.7592 -2.3793 -2.1932
19030TIP3   OH278580   4.005   2.246  12.390 -0.3521 -0.2464  0.5767
19030TIP3    H178581   4.032   2.267  12.300  0.3703  1.3340  1.1325
19030TIP3    H278582   4.080   2.270  12.444 -1.5356  0.8129  1.8133
19031TIP3   OH278583   4.710   0.846   5.426 -0.4684 -0.0153 -0.5346
19031TIP3    H178584   4.672   0.838   5.513 -0.7394  0.0983 -0.6418
19031TIP3    H278585   4.712   0.756   5.393  0.2287 -0.1438 -0.1656
19032TIP3   OH278586   2.924   2.354   6.250  0.2230  0.8286  0.1587
19032TIP3    H178587   2.855   2.415   6.223 -0.1823 -0.1164 -1.0381
19032TIP3    H278588   2.895   2.270   6.215  2.0779  0.4415 -0.5248
19033TIP3   OH278589   1.328   0.682  12.348 -0.2306 -0.1773 -0.3033
19033TIP3    H178590   1.412   0.712  12.314 -1.3258  0.8787 -2.2912
19033TIP3    H278591   1.276   0.664  12.270 -1.8459 -0.8102  0.8736
19034TIP3   OH278592   1.088   5.410  11.080 -0.0264  0.5636  0.1681
19034TIP3    H178593   1.107   5.317  11.093 -0.4951  0.5676  0.9403
19034TIP3    H278594   1.094   5.423  10.986  2.0450  0.1893  0.2059
19035TIP3   OH278595   3.368   4.521  12.519 -0.1677  0.5177  0.0238
19035TIP3    H178596   3.282   4.562  12.528 -1.4986 -1.9740 -0.4236
19035TIP3    H278597   3.369   4.453  12.586  1.7039  0.8093  0.3486
19036TIP3   OH278598   0.266   3.861   5.561 -0.2468 -0.2724  0.1699
19036TIP3    H178599   0.351   3.872   5.517 -0.1738  0.6114  0.5054
19036TIP3    H278600   0.225   3.787   5.516  0.0495  0.2815 -1.0568
19037TIP3   OH278601   0.036   4.661  13.880  0.0899 -0.1404 -0.3009
19037TIP3    H178602  -0.048   4.700  13.907  0.3683 -0.0843  0.5040
19037TIP3    H278603   0.014   4.611  13.801 -0.4602  0.8606 -0.8022
19038TIP3   OH278604   5.702   4.988  16.587 -0.1451 -0.4282 -0.9066
19038TIP3    H178605   5.763   4.919  16.561  0.5521 -0.1631 -0.0132
19038TIP3    H278606   5.656   5.010  16.506 -0.2729 -1.8215 -1.2490
19039TIP3   OH278607   2.250   0.552  16.353  0.1610 -0.3616  0.0542
19039TIP3    H178608   2.318   0.533  16.418  0.7534  1.4451  0.0052
19039TIP3    H278609   2.274   0.498  16.277  0.4116 -1.2160  0.7267
19040TIP3   OH278610   3.690   6.414  16.663 -0.3665  0.2822 -0.7495
19040TIP3    H178611   3.762   6.416  16.726 -0.5444  0.6551 -0.5567
19040TIP3    H278612   3.635   6.341  16.692 -1.0202  1.1217  0.1683
19041TIP3   OH278613   2.114   4.779  10.458 -0.0873 -0.3746 -0.3516
19041TIP3    H178614   2.123   4.695  10.503  2.2300 -0.3186 -0.5834
19041TIP3    H278615   2.027   4.776  10.418 -0.6011 -2.0690  0.7791
19042TIP3   OH278616   3.991   2.601  12.279 -0.7864 -0.1616 -0.8181
19042TIP3    H178617   3.958   2.674  12.331 -0.7065  0.0261 -1.0294
19042TIP3    H278618   4.075   2.578  12.320 -1.5803 -1.2295  0.2776
19043TIP3   OH278619   5.822   0.562  11.379  0.5794  0.0003 -0.3454
19043TIP3    H178620   5.756   0.546  11.312 -2.1076  0.2282  2.0601
19043TIP3    H278621   5.812   0.655  11.400  2.4658  0.3073 -0.6667
19044TIP3   OH278622   1.842   3.959   2.048 -0.6813  0.2010  0.5994
19044TIP3    H178623   1.826   4.018   1.974  0.0825  1.5614  1.4953
19044TIP3    H278624   1.929   3.922   2.031 -0.7143  0.1346  0.5739
19045TIP3   OH278625   3.682   0.316   5.185 -0.3026 -0.6931  0.1145
19045TIP3    H178626   3.617   0.337   5.252 -0.8176 -2.7845  0.3097
19045TIP3    H278627   3.762   0.357   5.217 -0.5495 -1.5741  2.0090
19046TIP3   OH278628   4.249   4.310   4.281 -0.4253 -0.2908 -0.3534
19046TIP3    H178629   4.258   4.405   4.273  0.2420 -0.3833 -0.7219
19046TIP3    H278630   4.231   4.296   4.374 -0.9991  0.2271 -0.3800
19047TIP3   OH278631   4.451   0.032   1.630 -0.2935  0.6175  0.0472
19047TIP3    H178632   4.472   0.042   1.723  0.5020  0.1301 -0.0706
19047TIP3    H278633   4.461  -0.062   1.613  0.0377  0.7730 -0.6443
19048TIP3   OH278634   3.306   3.759   4.639 -0.2888  0.2469  0.0684
19048TIP3    H178635   3.337   3.724   4.723 -2.2960  0.1305  0.8055
19048TIP3    H278636   3.385   3.766   4.586  1.0203  0.1831  1.9142
19049TIP3   OH278637   2.581   2.799   2.839 -0.0042  0.3159 -0.3937
19049TIP3    H178638   2.602   2.748   2.918 -0.9230 -1.2331 -1.0988
19049TIP3    H278639   2.508   2.854   2.865 -0.3801 -0.2714 -0.1791
19050TIP3   OH278640   0.554   6.288   5.899  0.2561  0.4931  0.1917
19050TIP3    H178641   0.483   6.235   5.937  0.2020  1.2610  1.1974
19050TIP3    H278642   0.624   6.225   5.881 -1.5109 -0.7333 -3.1672
19051TIP3   OH278643   4.166   6.515   3.489  0.4181 -0.1873 -0.1572
19051TIP3    H178644   4.160   6.476   3.402  1.2544 -0.4569 -0.1058
19051TIP3    H278645   4.218   6.594   3.476 -0.4723  0.4161 -0.0991
19052TIP3   OH278646   3.469   2.490   2.762  0.2710  0.0095 -0.6470
19052TIP3    H178647   3.386   2.512   2.803  0.5994  0.5033 -0.2319
19052TIP3    H278648   3.460   2.398   2.737 -0.3068 -0.0095 -0.3837
19053TIP3   OH278649   4.213   6.510  14.500 -0.4321 -0.0119 -0.5745
19053TIP3    H178650   4.161   6.566  14.558 -0.5850 -1.7855  1.0811
19053TIP3    H278651   4.151   6.444  14.469  0.3188 -0.8265 -0.3651
19054TIP3   OH278652   2.186   2.324   3.135 -0.2343  0.8441 -0.3515
19054TIP3    H178653   2.174   2.312   3.230 -0.9291  1.6407 -0.3247
19054TIP3    H278654   2.098   2.339   3.101 -0.0538 -0.0000 -1.2245
19055TIP3   OH278655   6.536   2.498  15.959  0.5946  0.2623 -0.4306
19055TIP3    H178656   6.543   2.451  15.876  0.6600  0.2600 -0.4235
19055TIP3    H278657   6.624   2.531  15.976  0.8545 -0.6975  0.1982
19056TIP3   OH278658   5.069   2.734   1.020 -0.5082 -0.0133  0.4377
19056TIP3    H178659   5.096   2.788   1.095 -2.2303 -1.1810  2.0042
19056TIP3    H278660   5.115   2.652   1.032 -0.0571  0.1202 -0.3470
19057TIP3   OH278661   2.699   3.239   4.163  0.0724 -0.3267  0.0217
19057TIP3    H178662   2.606   3.222   4.148  0.7594 -3.0423 -2.1020
19057TIP3    H278663   2.720   3.192   4.244 -0.1036 -1.1730 -0.4107
19058TIP3   OH278664   3.573   5.034  12.011 -0.3776  0.4824  0.5183
19058TIP3    H178665   3.521   4.979  12.069 -0.3307  0.2261  0.3192
19058TIP3    H278666   3.571   4.989  11.927 -0.7373  1.0302  0.2241
19059TIP3   OH278667   2.242   1.381   2.781  0.7574  0.3420 -0.1500
19059TIP3    H178668   2.312   1.421   2.834  2.6308 -0.2626 -2.0101
19059TIP3    H278669   2.190   1.331   2.843 -0.0180  3.3505  1.8245
19060TIP3   OH278670   2.132   2.497   2.477 -0.5050  0.4190 -1.0962
19060TIP3    H178671   2.051   2.452   2.455 -1.5529  1.8613 -0.2750
19060TIP3    H278672   2.152   2.469   2.567 -1.4372  1.9240 -0.3890
19061TIP3   OH278673   1.854   4.235   2.370 -0.3270  0.4414  0.2507
19061TIP3    H178674   1.834   4.260   2.280  1.9284 -0.5721 -0.5967
19061TIP3    H278675   1.848   4.316   2.420 -1.6938  1.0026 -0.7621
19062TIP3   OH278676   1.487   5.038  15.871 -0.3068 -0.1770 -0.3547
19062TIP3    H178677   1.395   5.012  15.873  0.1601 -1.9175  0.4107
19062TIP3    H278678   1.528   4.983  15.937  1.3637  0.2711 -0.9839
19063TIP3   OH278679   3.633   3.301   5.805  0.2068  0.3488 -0.2401
19063TIP3    H178680   3.551   3.345   5.825  0.7484  1.7868 -1.0267
19063TIP3    H278681   3.634   3.224   5.862 -1.3331  0.7044  0.3021
19064TIP3   OH278682   1.709   0.458   4.654 -0.5277  0.5082  0.0269
19064TIP3    H178683   1.775   0.475   4.587 -1.1407 -0.0878 -0.7506
19064TIP3    H278684   1.751   0.395   4.713 -0.6694 -0.5188 -0.9302
19065TIP3   OH278685   6.318   0.613  13.894  0.2457 -0.3971  0.1214
19065TIP3    H178686   6.321   0.536  13.837 -1.1990  0.6633 -1.5091
19065TIP3    H278687   6.225   0.633  13.902  0.4550 -0.0702  2.3415
19066TIP3   OH278688   2.746   5.413   2.527  0.1708  0.3277  0.4123
19066TIP3    H178689   2.786   5.428   2.613  0.9139 -1.8468  0.5007
19066TIP3    H278690   2.671   5.357   2.545  2.1470 -2.8866 -0.5633
19067TIP3   OH278691   0.383   5.422   1.534  0.4763  0.3872  0.3906
19067TIP3    H178692   0.467   5.396   1.494  0.0416 -1.1077  0.3763
19067TIP3    H278693   0.400   5.508   1.571  2.0295  0.1324  0.3621
19068TIP3   OH278694   3.234   6.210  14.046  0.3347  0.4065 -0.0417
19068TIP3    H178695   3.143   6.184  14.031  0.2108  0.3273  0.8124
19068TIP3    H278696   3.242   6.295  14.004  0.0054  0.1968 -0.5431
19069TIP3   OH278697   2.720   4.028   4.192 -0.5130 -0.0514 -0.1704
19069TIP3    H178698   2.797   4.011   4.139  1.9486  0.9415  2.8366
19069TIP3    H278699   2.752   4.032   4.282 -4.1741 -0.1175  1.3362
19070TIP3   OH278700   2.989   4.628   6.807  0.0199  0.9260  0.0453
19070TIP3    H178701   3.021   4.686   6.738  1.3511 -0.8235 -0.9082
19070TIP3    H278702   3.060   4.626   6.872 -0.0937  0.5167  0.1622
19071TIP3   OH278703   0.895   1.859  14.893  0.0193 -0.1989 -0.0055
19071TIP3    H178704   0.956   1.792  14.862  0.1659  0.8584 -2.1374
19071TIP3    H278705   0.813   1.813  14.908  0.2608 -0.9477 -0.9507
19072TIP3   OH278706   5.427   5.138  14.424  0.1779  0.0956 -0.4032
19072TIP3    H178707   5.365   5.199  14.384  0.7880  0.2026 -1.2338
19072TIP3    H278708   5.459   5.184  14.502 -0.8056  0.0187  0.0554
19073TIP3   OH278709   0.641   0.947  12.625 -0.0529 -0.0566  0.4848
19073TIP3    H178710   0.623   0.946  12.531 -0.5617  1.9177  0.5223
19073TIP3    H278711   0.734   0.926  12.632  0.1702  0.5370 -0.5196
19074TIP3   OH278712   6.549   5.551  13.986  0.2695  0.3165  0.0449
19074TIP3    H178713   6.638   5.536  14.015 -0.0471  0.8957  1.3607
19074TIP3    H278714   6.503   5.470  14.005  0.2088  0.4798  0.5995
19075TIP3   OH278715   3.162   3.759   3.613  0.1720 -0.2807 -0.2184
19075TIP3    H178716   3.134   3.844   3.647  2.3121  1.3945 -2.3713
19075TIP3    H278717   3.095   3.734   3.550 -0.1761  0.0563  0.0186
19076TIP3   OH278718   2.760   0.128   4.718  0.2146 -0.0109 -0.9194
19076TIP3    H178719   2.827   0.083   4.667  0.2586 -0.0708 -0.8101
19076TIP3    H278720   2.704   0.171   4.653 -0.6313 -1.3342 -1.1139
19077TIP3   OH278721   2.416   3.033  17.027 -0.7584 -0.1326 -0.4575
19077TIP3    H178722   2.512   3.033  17.017 -0.7228  1.9967 -0.7331
19077TIP3    H278723   2.402   3.039  17.121 -0.6980 -2.1267 -0.2806
19078TIP3   OH278724   5.587   3.961  15.163 -0.0147 -0.3907 -0.1513
19078TIP3    H178725   5.552   3.980  15.249  1.0309 -1.1253  0.4589
19078TIP3    H278726   5.527   4.005  15.102 -0.2174  0.9433  0.9740
19079TIP3   OH278727   5.824   6.171   2.473 -0.1190 -0.0626 -0.2557
19079TIP3    H178728   5.810   6.257   2.433  0.3385  0.4915  0.7390
19079TIP3    H278729   5.773   6.173   2.554 -0.6786 -1.0038 -0.5690
19080TIP3   OH278730   4.638   3.473   3.157 -0.2092  0.3458 -0.1670
19080TIP3    H178731   4.698   3.412   3.113  1.2622 -0.0839  2.2179
19080TIP3    H278732   4.551   3.436   3.143  0.4304 -1.0052 -0.7526
19081TIP3   OH278733   4.635   3.445   2.649  0.1167 -0.2938 -0.1518
19081TIP3    H178734   4.555   3.445   2.597  1.6136 -1.1628 -2.6146
19081TIP3    H278735   4.624   3.372   2.710 -0.8540 -0.5548 -0.6199
19082TIP3   OH278736   5.492   2.720   4.641 -0.1394  0.2868 -0.3759
19082TIP3    H178737   5.548   2.658   4.688 -2.2855 -1.6954 -0.2438
19082TIP3    H278738   5.543   2.800   4.637  1.6539 -0.6090  2.0244
19083TIP3   OH278739   3.452   0.773  14.969 -0.2145  0.0788 -0.3897
19083TIP3    H178740   3.438   0.702  15.032 -1.3367  0.8846  0.3133
19083TIP3    H278741   3.365   0.791  14.934 -0.2196  2.0825  0.5478
19084TIP3   OH278742   6.491   0.269   3.323 -0.9124  0.5060 -0.4771
19084TIP3    H178743   6.568   0.219   3.295 -2.1336 -2.0486  0.4006
19084TIP3    H278744   6.463   0.315   3.244  0.4360  0.0038 -1.2842
19085TIP3   OH278745   2.826   0.984  15.819  0.0853  0.6636  1.2554
19085TIP3    H178746   2.878   0.929  15.878  0.1916  1.9078  2.3738
19085TIP3    H278747   2.827   1.070  15.860 -1.4829  1.1138  0.4223
19086TIP3   OH278748   3.910   0.340   1.881  0.1180 -0.1614  0.3566
19086TIP3    H178749   3.980   0.277   1.898 -0.9487 -0.8653  2.4774
19086TIP3    H278750   3.833   0.302   1.923 -1.8056  0.1924 -2.5847
19087TIP3   OH278751   3.577   4.219  16.658  0.0043  0.3715 -0.0908
19087TIP3    H178752   3.654   4.169  16.686 -0.0545  1.7261  2.8664
19087TIP3    H278753   3.583   4.301  16.708 -3.0033  0.7925 -0.2786
19088TIP3   OH278754   5.585   1.860   5.176  0.3273  0.3236  0.1698
19088TIP3    H178755   5.520   1.797   5.207 -1.9835  1.9898 -1.0449
19088TIP3    H278756   5.624   1.818   5.100 -2.0206  0.6999 -1.3444
19089TIP3   OH278757   2.845   5.469   0.972 -0.2206  0.0101  0.0621
19089TIP3    H178758   2.886   5.434   1.051  0.2219 -0.0382 -0.1843
19089TIP3    H278759   2.886   5.420   0.900  0.1339  0.7738 -0.2652
19090TIP3   OH278760   6.345   4.168  13.953 -0.4419  0.2659  0.2338
19090TIP3    H178761   6.418   4.162  13.890 -0.2015  0.1373  0.5223
19090TIP3    H278762   6.360   4.250  13.999 -0.1673 -0.0272  0.6746
19091TIP3   OH278763   2.858   1.626   0.252  0.0062 -0.0438  0.1892
19091TIP3    H178764   2.882   1.534   0.258  0.2623  0.0126  0.0416
19091TIP3    H278765   2.785   1.628   0.190 -0.3311 -0.2050  0.5737
19092TIP3   OH278766   4.130   5.794  14.709  0.5186 -0.8986 -0.0069
19092TIP3    H178767   4.046   5.770  14.747  0.6604 -0.6022  0.5036
19092TIP3    H278768   4.187   5.807  14.784  0.6413  0.3138 -0.2969
19093TIP3   OH278769   0.901   4.737   1.396  0.0013 -0.4110  0.1413
19093TIP3    H178770   0.920   4.664   1.455 -0.0249 -0.1210  0.5210
19093TIP3    H278771   0.828   4.707   1.342 -0.7627 -0.2703  1.0547
19094TIP3   OH278772   2.246   2.845  13.147 -0.4668 -0.2609 -0.7695
19094TIP3    H178773   2.187   2.887  13.084 -0.6752 -3.2006 -2.7554
19094TIP3    H278774   2.192   2.780  13.191  0.2082  0.2976  0.9643
19095TIP3   OH278775   1.856   5.331   4.208 -0.3764 -0.4918  0.4422
19095TIP3    H178776   1.769   5.365   4.186 -0.4825 -0.7161  0.5115
19095TIP3    H278777   1.856   5.241   4.174 -1.3938 -1.7106  3.3284
19096TIP3   OH278778   5.563   5.386  11.636 -0.0666  0.3155 -0.3947
19096TIP3    H178779   5.518   5.432  11.707 -0.6173  0.2095 -0.6733
19096TIP3    H278780   5.494   5.341  11.588  0.0155  1.9924 -2.2237
19097TIP3   OH278781   6.687   0.732   5.564  0.1270  0.2580 -0.0944
19097TIP3    H178782   6.712   0.649   5.522 -0.4369  0.6527 -1.2292
19097TIP3    H278783   6.770   0.768   5.596  0.4808 -0.3518 -0.3028
19098TIP3   OH278784   3.038   6.427   3.359  0.3102  0.4577  0.0026
19098TIP3    H178785   3.097   6.370   3.309  0.9404  0.9723  0.1336
19098TIP3    H278786   3.066   6.516   3.336 -1.9616  0.8071 -1.7833
19099TIP3   OH278787   0.618   5.836   2.214 -0.0156 -0.5527 -0.3769
19099TIP3    H178788   0.681   5.880   2.157  0.0659 -1.7090 -1.2094
19099TIP3    H278789   0.645   5.860   2.303 -0.5082  1.7765 -0.7789
19100TIP3   OH278790   2.871   2.715  15.355  0.1378 -0.2875 -0.2407
19100TIP3    H178791   2.910   2.759  15.430 -0.0705 -1.0565  0.3314
19100TIP3    H278792   2.848   2.628  15.387  0.6444 -0.8590 -1.3725
19101TIP3   OH278793   0.800   5.476  14.914  0.3431  0.2675 -0.6199
19101TIP3    H178794   0.862   5.543  14.943  2.9662 -1.6643 -1.3574
19101TIP3    H278795   0.805   5.478  14.819  2.4049 -2.4875 -0.6835
19102TIP3   OH278796   1.134   3.103  13.154 -0.3734  0.0011  0.6386
19102TIP3    H178797   1.151   3.022  13.106 -0.0139  1.0590 -1.1005
19102TIP3    H278798   1.175   3.089  13.240  1.1445 -1.0242 -0.2030
19103TIP3   OH278799   5.961   4.371  13.214 -0.3447 -0.0448 -0.4264
19103TIP3    H178800   5.964   4.429  13.138  2.2102  0.0370 -0.3435
19103TIP3    H278801   5.884   4.316  13.199 -1.7974  2.1276 -1.3889
19104TIP3   OH278802   5.498   2.318  16.356 -0.4409  0.3897 -0.2317
19104TIP3    H178803   5.507   2.323  16.261  0.7144  1.8792 -0.0789
19104TIP3    H278804   5.562   2.380  16.390 -3.5156  2.9733  1.4180
19105TIP3   OH278805   5.457   3.322  17.080 -0.3882 -0.6685  0.5078
19105TIP3    H178806   5.439   3.380  17.006  0.0841 -0.4261  0.5818
19105TIP3    H278807   5.552   3.325  17.090 -0.5323  0.2519  1.8741
19106TIP3   OH278808   1.400   4.492  11.839  0.1407 -0.7449 -0.5565
19106TIP3    H178809   1.361   4.417  11.884 -1.5759  0.4369 -0.0178
19106TIP3    H278810   1.390   4.565  11.899  2.2214 -0.1199 -0.8793
19107TIP3   OH278811   2.954   1.363   0.288  0.1362  0.3474 -0.3355
19107TIP3    H178812   3.048   1.365   0.274 -0.0386  1.3126 -1.5164
19107TIP3    H278813   2.923   1.293   0.230 -0.1893  2.0687 -2.3586
19108TIP3   OH278814   3.590   0.047  15.821 -0.2789  0.1164 -0.1027
19108TIP3    H178815   3.578   0.098  15.901  2.7605  1.0896 -0.1646
19108TIP3    H278816   3.602  -0.043  15.852 -0.8885  0.1937  0.3756
19109TIP3   OH278817   1.788   1.313   1.078 -0.2153  0.1353  0.6941
19109TIP3    H178818   1.776   1.281   0.989 -0.1274  1.7352  0.0647
19109TIP3    H278819   1.816   1.237   1.128  1.3547 -0.4656 -0.9957
19110TIP3   OH278820   5.227   3.822  14.249  1.0030  0.0870  0.0009
19110TIP3    H178821   5.245   3.877  14.325  2.3448  0.1131 -0.3112
19110TIP3    H278822   5.280   3.860  14.178 -1.4574  1.0655 -1.4275
19111TIP3   OH278823   0.157   6.502   1.814  0.4407  0.4107 -0.5302
19111TIP3    H178824   0.093   6.568   1.786  0.3751  1.1721  1.2561
19111TIP3    H278825   0.242   6.543   1.798  0.5068 -0.2224 -2.0054
19112TIP3   OH278826   6.722   5.295  14.484 -0.5276 -0.2673 -0.4136
19112TIP3    H178827   6.673   5.220  14.450 -1.5202  0.5261 -0.8107
19112TIP3    H278828   6.654   5.358  14.509  0.2480  0.1126  0.8624
19113TIP3   OH278829   3.213   3.471   3.364  0.1760 -0.2991 -1.0067
19113TIP3    H178830   3.168   3.551   3.390  2.3121  1.0479 -1.2384
19113TIP3    H278831   3.173   3.447   3.281 -2.4895 -1.2046  0.4186
19114TIP3   OH278832   1.131   5.168  13.966  0.0878  0.0450 -0.5669
19114TIP3    H178833   1.074   5.114  13.912  0.4707  0.5307 -1.4853
19114TIP3    H278834   1.102   5.258  13.949 -0.6292  0.1469  1.0407
19115TIP3   OH278835   0.608   3.969  16.679  0.4949 -0.2907 -0.0879
19115TIP3    H178836   0.573   4.044  16.727  1.9354 -1.4914  3.1008
19115TIP3    H278837   0.542   3.900  16.689  0.6195 -0.4303 -0.2024
19116TIP3   OH278838   4.102   4.813  14.630 -0.4009  0.1300 -0.8123
19116TIP3    H178839   4.080   4.721  14.616 -0.1273 -0.0336 -0.2207
19116TIP3    H278840   4.197   4.817  14.624 -0.3964  0.3371 -0.6543
19117TIP3   OH278841   5.457   4.001  16.415 -0.1552  0.4914 -0.5166
19117TIP3    H178842   5.365   4.021  16.399  0.2700  2.3372 -0.9477
19117TIP3    H278843   5.497   4.086  16.434  1.5840 -0.1743 -0.9769
19118TIP3   OH278844   0.795   1.785  15.431 -0.5237 -0.2664 -0.4091
19118TIP3    H178845   0.789   1.719  15.501 -1.9828 -0.2925 -0.5396
19118TIP3    H278846   0.834   1.861  15.473 -1.7008 -0.1664  0.5465
19119TIP3   OH278847   1.285   3.967  12.344  0.1866 -0.2468 -0.3502
19119TIP3    H178848   1.236   3.924  12.414 -0.4862  2.8037  1.2344
19119TIP3    H278849   1.370   3.987  12.382 -0.1193  1.2814 -0.4193
19120TIP3   OH278850   6.499   0.498   2.562 -0.3182 -0.3214  0.3237
19120TIP3    H178851   6.541   0.418   2.531  1.6266  1.7738 -2.9567
19120TIP3    H278852   6.570   0.548   2.602 -0.1702  1.8721 -2.3767
19121TIP3   OH278853   6.175   1.825  15.803 -0.2106  0.0359  0.0984
19121TIP3    H178854   6.228   1.783  15.870 -3.2921 -2.8824  1.0024
19121TIP3    H278855   6.237   1.848  15.734  2.1591 -4.1302  0.5313
19122TIP3   OH278856   2.014   5.357   5.636  0.1741 -0.1053  0.2117
19122TIP3    H178857   1.952   5.408   5.689 -2.3054 -3.6819  1.1137
19122TIP3    H278858   2.059   5.301   5.700 -0.0029 -1.7198 -1.0251
19123TIP3   OH278859   5.594   3.816   2.846 -0.0699  0.2562 -0.0519
19123TIP3    H178860   5.563   3.904   2.825 -0.1014  0.3510  0.3868
19123TIP3    H278861   5.549   3.759   2.783  2.0491  0.8325 -2.2677
19124TIP3   OH278862   5.224   1.987  13.389  0.2873 -0.3182  0.0409
19124TIP3    H178863   5.193   1.901  13.362  2.2897 -1.3885  0.9200
19124TIP3    H278864   5.193   2.047  13.321 -1.4130 -1.6667 -0.4199
19125TIP3   OH278865   0.792   0.888  15.159 -0.2277 -0.4625  0.2784
19125TIP3    H178866   0.773   0.957  15.222 -1.9414 -0.5638 -0.0833
19125TIP3    H278867   0.882   0.861  15.178  0.6657  2.1773  0.1022
19126TIP3   OH278868   3.195   4.559   4.783  0.0572 -0.1153  0.1717
19126TIP3    H178869   3.125   4.503   4.750  0.8904  0.2107 -2.3593
19126TIP3    H278870   3.272   4.534   4.733  1.0208  1.6252  0.6951
19127TIP3   OH278871   6.541   0.749   5.022  0.8504  0.3139 -0.1390
19127TIP3    H178872   6.535   0.828   5.075 -0.6853 -0.0470  0.2720
19127TIP3    H278873   6.618   0.702   5.056  0.1249  0.2669  1.5409
19128TIP3   OH278874   5.898   4.006  15.526 -0.0887 -0.4224 -0.4307
19128TIP3    H178875   5.933   4.025  15.439 -0.2719 -1.6720 -0.7969
19128TIP3    H278876   5.817   4.057  15.531  0.5726  0.6506 -0.4863
19129TIP3   OH278877   3.904   6.715   2.309 -0.3496 -0.0893  0.0594
19129TIP3    H178878   3.837   6.646   2.309 -0.9736  0.5028 -0.5158
19129TIP3    H278879   3.959   6.695   2.233  0.6091 -1.0032  0.9503
19130TIP3   OH278880   0.483   6.120  11.917 -0.3183  0.1130  0.6188
19130TIP3    H178881   0.566   6.098  11.961 -0.9237 -1.4779  1.0056
19130TIP3    H278882   0.510   6.178  11.845  1.5216 -2.4953 -0.9823
19131TIP3   OH278883   2.640   2.046   2.999  0.3072  0.3342 -0.1069
19131TIP3    H178884   2.709   2.045   3.066  0.2434  0.0101 -0.0447
19131TIP3    H278885   2.561   2.070   3.048  0.1642 -0.3878  0.0341
19132TIP3   OH278886   1.247   6.303  13.325 -0.0019  0.4591 -0.1410
19132TIP3    H178887   1.244   6.293  13.230  0.0682 -0.0115 -0.0997
19132TIP3    H278888   1.337   6.279  13.348 -0.0939  0.3111  0.0696
19133TIP3   OH278889   2.089   5.340   1.945  0.4512 -0.2025  0.4436
19133TIP3    H178890   2.015   5.306   1.995  2.1901 -3.0567  1.2559
19133TIP3    H278891   2.117   5.267   1.890  3.5296  0.2667  1.2302
19134TIP3   OH278892   6.494   1.035  17.098  0.0755 -0.2248 -0.1359
19134TIP3    H178893   6.540   1.117  17.079  1.4193 -0.9324 -0.0539
19134TIP3    H278894   6.553   0.966  17.068 -1.2990 -1.1743 -0.7837
19135TIP3   OH278895   0.880   0.857   4.476  0.2016  0.2159 -0.4159
19135TIP3    H178896   0.882   0.770   4.436  1.0708 -0.0569  0.1935
19135TIP3    H278897   0.947   0.854   4.544  0.7322  1.5994 -0.8477
19136TIP3   OH278898   0.698   0.986   5.960 -0.1941 -0.4761 -0.0908
19136TIP3    H178899   0.791   0.964   5.951 -0.1145 -0.8835  1.4232
19136TIP3    H278900   0.682   0.984   6.054 -2.1318 -2.1009 -0.3859
19137TIP3   OH278901   5.562   1.380  14.234  0.0242  0.2827 -0.2790
19137TIP3    H178902   5.491   1.436  14.265  0.7633  1.8893 -1.3599
19137TIP3    H278903   5.521   1.324  14.167 -0.0054  2.0886 -1.8369
19138TIP3   OH278904   6.714   2.072   5.056 -0.1613  0.1644 -0.6008
19138TIP3    H178905   6.715   1.981   5.086 -0.5665  0.2446 -0.3397
19138TIP3    H278906   6.671   2.068   4.970  0.8730 -0.0456 -1.1206
19139TIP3   OH278907   4.551   0.653  16.009 -0.2695  0.3298 -0.0935
19139TIP3    H178908   4.457   0.669  16.011 -0.4659 -0.7425 -0.0271
19139TIP3    H278909   4.573   0.647  15.916 -0.1219  1.2945 -0.1329
19140TIP3   OH278910   4.867   6.267   5.410 -0.6096 -0.5938  0.4150
19140TIP3    H178911   4.829   6.254   5.324  1.1203 -1.4123 -0.2680
19140TIP3    H278912   4.851   6.360   5.430 -1.1879 -0.4484 -0.6950
19141TIP3   OH278913   5.330   0.732  12.552  0.5214  0.4611 -0.1516
19141TIP3    H178914   5.408   0.717  12.499  0.8240 -0.7664  0.6140
19141TIP3    H278915   5.310   0.647  12.591 -0.6432  0.9719  0.4252
19142TIP3   OH278916   0.496   4.258   0.820  0.3299  0.6600  0.0486
19142TIP3    H178917   0.464   4.205   0.747  1.2036  0.5380 -0.2601
19142TIP3    H278918   0.469   4.210   0.899  1.9532 -0.7886 -0.2316
19143TIP3   OH278919   3.415   0.835  16.077  0.0323 -0.7208  0.0010
19143TIP3    H178920   3.346   0.849  16.142 -0.7983 -2.4884 -0.4575
19143TIP3    H278921   3.386   0.885  16.001  0.5908  0.6625  0.6481
19144TIP3   OH278922   0.147   1.917   3.645  0.0950 -0.1480 -0.1930
19144TIP3    H178923   0.120   1.907   3.736  0.9025  3.5124  0.5869
19144TIP3    H278924   0.173   2.009   3.637  3.2060 -1.0673 -3.2742
19145TIP3   OH278925   5.887   4.090  12.025 -0.5187  0.2308  0.6000
19145TIP3    H178926   5.954   4.027  11.998 -1.0169  1.0168 -2.9939
19145TIP3    H278927   5.815   4.035  12.056 -0.4829 -0.9697 -1.2893
19146TIP3   OH278928   4.696   2.480   0.753 -0.2361 -0.3686  0.6843
19146TIP3    H178929   4.756   2.552   0.738  0.9527 -1.5549 -0.5359
19146TIP3    H278930   4.609   2.519   0.747  0.3804  1.1914  1.4580
19147TIP3   OH278931   0.776   6.037  17.117  0.3046 -0.1577  0.2371
19147TIP3    H178932   0.704   6.095  17.091 -1.1293 -1.9403 -0.0223
19147TIP3    H278933   0.774   6.037  17.213  1.7354  1.8357  0.3169
19148TIP3   OH278934   3.597   1.695  11.788 -0.2387 -0.0644 -0.4937
19148TIP3    H178935   3.587   1.765  11.724 -1.9990 -0.2679 -0.4903
19148TIP3    H278936   3.549   1.726  11.865  1.6840  0.0981  0.7054
19149TIP3   OH278937   3.134   1.777  16.626 -0.0678  0.1180 -0.3094
19149TIP3    H178938   3.225   1.770  16.598  0.4793 -0.4239  1.4326
19149TIP3    H278939   3.087   1.715  16.570  0.6808  0.2051 -1.0539
19150TIP3   OH278940   1.074   5.533   3.700  0.1164 -0.0966 -0.1230
19150TIP3    H178941   1.081   5.443   3.732  2.4723  0.5304  1.3854
19150TIP3    H278942   1.000   5.570   3.748  0.9173 -0.4421  1.4391
19151TIP3   OH278943   1.461   0.228   2.685 -0.8766  0.3843 -0.8244
19151TIP3    H178944   1.488   0.315   2.655  0.7114  0.1515 -0.1545
19151TIP3    H278945   1.478   0.229   2.779 -1.0972 -0.5734 -0.7661
19152TIP3   OH278946   3.320   4.374  11.445  0.4598  0.0849 -0.6128
19152TIP3    H178947   3.260   4.373  11.371 -1.2981 -0.4261  0.7501
19152TIP3    H278948   3.390   4.434  11.418 -0.7108  0.8182 -2.2112
19153TIP3   OH278949   5.288   0.008  16.278  0.0328 -0.2467 -0.2847
19153TIP3    H178950   5.285  -0.045  16.198 -0.3627  0.4804 -0.7695
19153TIP3    H278951   5.264   0.096  16.249 -0.4278 -0.0342  0.6924
19154TIP3   OH278952   4.888   0.449  11.457  0.0203 -0.0595  0.6024
19154TIP3    H178953   4.868   0.438  11.550 -0.6217  1.6814  0.7193
19154TIP3    H278954   4.964   0.393  11.441  0.7620  0.3607  2.4195
19155TIP3   OH278955   5.639   2.981   2.170  0.1701  0.1884  0.8536
19155TIP3    H178956   5.573   3.050   2.178 -0.2576 -0.1722  0.4753
19155TIP3    H278957   5.590   2.903   2.147  0.5612 -0.4484  2.0801
19156TIP3   OH278958   2.520   4.157   3.256 -0.5727 -0.4224  0.0223
19156TIP3    H178959   2.575   4.201   3.191  1.3225 -0.4562  1.5200
19156TIP3    H278960   2.465   4.098   3.205 -0.9856  1.3778 -1.7546
19157TIP3   OH278961   0.103   6.213   4.683  0.1761  0.0447  0.7362
19157TIP3    H178962   0.174   6.273   4.707 -0.5950  0.8452  1.0848
19157TIP3    H278963   0.045   6.213   4.760 -1.0551  0.7136 -0.1568
19158TIP3   OH278964   5.737   1.938  11.165 -0.2894  0.0259 -0.1797
19158TIP3    H178965   5.746   1.870  11.232 -0.3977  0.6752  0.5069
19158TIP3    H278966   5.820   1.934  11.117 -0.7647 -1.3805 -0.9153
19159TIP3   OH278967   3.541   0.033  16.924 -0.5956  0.2187  0.1435
19159TIP3    H178968   3.526   0.014  17.017 -0.2863  1.5103  0.4783
19159TIP3    H278969   3.482   0.106  16.905  0.0824  0.6397 -0.4015
19160TIP3   OH278970   6.198   1.535  16.888 -0.6140 -0.3917  0.4325
19160TIP3    H178971   6.281   1.500  16.920 -0.4764  0.2841  0.8339
19160TIP3    H278972   6.146   1.549  16.967  0.5910  3.5429  0.7274
19161TIP3   OH278973   4.134   4.758  12.062  0.0358 -0.1231  0.2450
19161TIP3    H178974   4.104   4.676  12.102  2.1118 -0.6607  0.8374
19161TIP3    H278975   4.224   4.739  12.034  0.3681  1.7920 -0.1151
19162TIP3   OH278976   1.764   0.957  13.652  0.0039 -0.6731 -0.6267
19162TIP3    H178977   1.784   1.042  13.693  1.1215 -0.3617 -1.7661
19162TIP3    H278978   1.694   0.977  13.590  0.4157 -0.5340 -1.0504
19163TIP3   OH278979   3.981   4.414  14.794 -0.7014 -0.0070 -0.1306
19163TIP3    H178980   3.886   4.427  14.805 -0.8095 -0.3183 -0.6468
19163TIP3    H278981   4.002   4.338  14.848 -1.1166 -1.1563 -1.5167
19164TIP3   OH278982   1.355   1.936   5.293  0.1140 -0.4190  0.0029
19164TIP3    H178983   1.300   1.859   5.310 -0.4130  0.0979  0.7529
19164TIP3    H278984   1.439   1.914   5.333  0.4282 -1.1589 -1.0228
19165TIP3   OH278985   6.357   0.348  14.057 -0.1377 -0.1193 -0.0900
19165TIP3    H178986   6.268   0.377  14.035  0.1137 -0.5436 -1.7639
19165TIP3    H278987   6.354   0.333  14.151 -1.5474  0.8800  0.0595
19166TIP3   OH278988   3.805   0.210  12.187  0.4793  0.0331 -0.2025
19166TIP3    H178989   3.898   0.188  12.200  0.4553 -0.3467 -0.6516
19166TIP3    H278990   3.774   0.234  12.275  0.7529 -0.8221  0.1454
19167TIP3   OH278991   2.183   4.636   2.122  0.4834 -0.3591  0.2312
19167TIP3    H178992   2.261   4.654   2.175 -0.2594  0.1376  1.1993
19167TIP3    H278993   2.165   4.543   2.136 -0.5246  0.0424  2.0834
19168TIP3   OH278994   5.458   2.376   2.810 -0.3341  0.0181 -0.3665
19168TIP3    H178995   5.387   2.439   2.798  0.0335  0.4321 -0.3690
19168TIP3    H278996   5.438   2.334   2.894 -1.0486 -0.4750 -0.7761
19169TIP3   OH278997   2.774   3.960   3.679 -0.0296  1.3237 -0.1379
19169TIP3    H178998   2.867   3.947   3.699  0.2871  0.0389 -2.1377
19169TIP3    H278999   2.769   4.050   3.646  0.8871  0.8442 -1.7088
19170TIP3   OH279000   3.197   2.125   1.160 -0.0665  0.4727 -0.5541
19170TIP3    H179001   3.107   2.106   1.134  0.3859 -0.4646 -1.4900
19170TIP3    H279002   3.189   2.198   1.221 -1.5998 -0.6295  0.6520
19171TIP3   OH279003   3.303   6.148  16.243 -0.1704  0.0766  0.2663
19171TIP3    H179004   3.222   6.199  16.239 -1.0942 -1.4073 -1.7939
19171TIP3    H279005   3.369   6.210  16.274 -1.7618  1.7428  0.5025
19172TIP3   OH279006   1.867   1.229  16.735 -0.0347 -0.3015  0.3698
19172TIP3    H179007   1.933   1.224  16.804  0.8279 -0.3496 -0.4374
19172TIP3    H279008   1.894   1.163  16.671  1.3835  2.2365 -1.8643
19173TIP3   OH279009   6.430   2.526   1.005  0.1330  0.9103 -0.5244
19173TIP3    H179010   6.454   2.520   0.912  0.2725  0.1753 -0.4479
19173TIP3    H279011   6.355   2.468   1.014  0.1144  0.9862 -0.1787
19174TIP3   OH279012   2.786   3.980  14.853  0.0336 -0.4065  0.3072
19174TIP3    H179013   2.811   3.910  14.913  0.2695  0.0255  0.7114
19174TIP3    H279014   2.834   3.960  14.772 -1.7016 -2.0490 -0.4163
19175TIP3   OH279015   6.020   0.624  15.182  0.5789 -0.6120 -0.5029
19175TIP3    H179016   6.101   0.650  15.138 -0.3603  0.5159 -1.6381
19175TIP3    H279017   6.037   0.640  15.275  0.7207  2.4350 -0.9520
19176TIP3   OH279018   0.149   0.923  14.330 -0.4520 -0.7034  0.2415
19176TIP3    H179019   0.230   0.958  14.293 -0.6192 -0.3573  0.2009
19176TIP3    H279020   0.116   0.993  14.387 -0.2931 -1.1622  0.9074
19177TIP3   OH279021   3.009   1.770   4.046  0.3536  0.4557  0.5600
19177TIP3    H179022   3.057   1.840   4.000  0.5895  1.0035  1.6181
19177TIP3    H279023   3.040   1.775   4.136 -3.4321  2.5287  1.9938
19178TIP3   OH279024   0.450   5.903   1.052 -0.9082  0.8549 -0.2848
19178TIP3    H179025   0.499   5.898   1.134  0.0241 -0.0928 -0.8805
19178TIP3    H279026   0.402   5.986   1.058 -0.2618  1.1638  0.8841
19179TIP3   OH279027   5.064   6.727  12.626 -0.2211  0.1775 -0.0091
19179TIP3    H179028   5.030   6.640  12.607  3.9346 -1.1996 -2.3579
19179TIP3    H279029   5.124   6.713  12.700 -0.4248  1.3302  0.3937
19180TIP3   OH279030   1.014   4.568  11.797  0.5465  0.0532  0.3215
19180TIP3    H179031   1.049   4.481  11.776  0.3264 -0.3493  1.5902
19180TIP3    H279032   1.090   4.626  11.788  0.4501 -0.0455 -1.6969
19181TIP3   OH279033   6.447   1.358   4.920  0.2029  0.1508  0.7839
19181TIP3    H179034   6.470   1.422   4.853  1.0423 -1.4200 -0.4947
19181TIP3    H279035   6.358   1.332   4.899  0.1526  0.3009  0.8121
19182TIP3   OH279036   5.531   2.764   2.552 -0.5439  0.3802 -0.3585
19182TIP3    H179037   5.580   2.723   2.624 -1.0167 -1.1204 -0.8494
19182TIP3    H279038   5.525   2.856   2.577  2.4079  0.6396 -0.2159
19183TIP3   OH279039   4.227   3.672  13.862  0.2674  0.2358  0.0804
19183TIP3    H179040   4.227   3.742  13.797 -0.0049  1.5225  1.3938
19183TIP3    H279041   4.175   3.708  13.935  1.1744 -0.8417  1.3029
19184TIP3   OH279042   3.748   5.755  15.236 -0.7813 -0.3078 -0.0788
19184TIP3    H179043   3.682   5.736  15.170 -0.6350 -0.3994 -0.1993
19184TIP3    H279044   3.748   5.678  15.292 -0.4908 -0.4826 -0.3165
19185TIP3   OH279045   3.775   6.769   6.408  0.5436 -0.1010  0.1348
19185TIP3    H179046   3.790   6.683   6.447  1.5015 -0.8417 -1.7124
19185TIP3    H279047   3.694   6.760   6.359 -0.3839  0.6656  1.4809
19186TIP3   OH279048   0.738   2.129   2.067 -0.0512 -0.6803 -0.4385
19186TIP3    H179049   0.718   2.152   2.158 -0.9975 -0.9308 -0.5744
19186TIP3    H279050   0.833   2.131   2.063 -0.0169  0.4879  0.2582
19187TIP3   OH279051   4.340   4.653  17.015 -0.1065  0.0412  0.7834
19187TIP3    H179052   4.435   4.649  17.018  0.2468  1.6680 -2.8950
19187TIP3    H279053   4.319   4.746  17.024 -1.2193 -0.1230  0.0881
19188TIP3   OH279054   6.407   2.913   3.078 -0.0752 -0.1371 -0.0227
19188TIP3    H179055   6.349   2.873   3.143 -0.5385  1.0180  0.2902
19188TIP3    H279056   6.380   3.005   3.075 -0.7013 -0.3365 -2.5263
19189TIP3   OH279057   4.371   0.176  10.566 -0.0337  0.3571  0.6609
19189TIP3    H179058   4.380   0.151  10.658 -1.2486  1.7943  1.2065
19189TIP3    H279059   4.461   0.179  10.534  0.3969 -0.4257  1.7136
19190TIP3   OH279060   0.245   5.938   0.252 -0.5618 -0.0127  0.4669
19190TIP3    H179061   0.257   5.897   0.338  0.2316 -0.4661  0.1533
19190TIP3    H279062   0.308   6.010   0.251  0.6548 -1.0435 -0.3556
19191TIP3   OH279063   0.707   2.046   0.026 -0.1551 -0.2221  0.0158
19191TIP3    H179064   0.625   2.060   0.073  0.9484 -1.4836  2.5190
19191TIP3    H279065   0.721   1.952   0.028  0.1874 -0.2981 -2.6093
19192TIP3   OH279066   0.269   0.024  16.857 -0.6425 -0.0203 -0.5002
19192TIP3    H179067   0.201   0.039  16.923 -0.5995  0.5664 -0.5835
19192TIP3    H279068   0.226  -0.031  16.791 -0.5903 -0.8843  0.1692
19193TIP3   OH279069   5.074   1.143   2.764  0.4856  0.0708  0.2541
19193TIP3    H179070   5.051   1.210   2.699  0.2473 -0.9184 -0.7088
19193TIP3    H279071   5.026   1.169   2.843  1.0864  1.5144  0.1834
19194TIP3   OH279072   5.248   6.369   0.050  0.2597 -0.1366  0.7617
19194TIP3    H179073   5.187   6.324  -0.009  0.4473  1.1250 -0.4498
19194TIP3    H279074   5.251   6.459   0.017  3.0842 -0.2372  0.5345
19195TIP3   OH279075   5.903   3.666   0.663  0.0860 -0.5120  0.0018
19195TIP3    H179076   5.825   3.633   0.619  0.4762 -0.0975 -1.0540
19195TIP3    H279077   5.871   3.734   0.722 -0.3150  0.0057 -0.7990
19196TIP3   OH279078   5.171   6.777  16.896 -0.6706  0.3734 -0.1780
19196TIP3    H179079   5.201   6.814  16.813 -1.1935  2.8407  0.6527
19196TIP3    H279080   5.108   6.709  16.870 -0.1454  0.4495 -1.7860
19197TIP3   OH279081   3.857   2.573  16.855 -0.3208  0.9453 -0.2012
19197TIP3    H179082   3.788   2.614  16.907  1.9994  3.9235  0.8133
19197TIP3    H279083   3.872   2.489  16.898 -2.7821  0.4932 -0.0580
19198TIP3   OH279084   0.521   5.746   3.580 -0.4764 -0.1986 -0.0073
19198TIP3    H179085   0.441   5.696   3.597 -0.6074 -0.1516 -0.4797
19198TIP3    H279086   0.571   5.692   3.519 -0.9344  0.5465 -1.0832
19199TIP3   OH279087   3.384   5.593   2.410 -0.0507 -0.1533 -0.2156
19199TIP3    H179088   3.334   5.667   2.445  0.1463  0.0019 -0.2566
19199TIP3    H279089   3.389   5.610   2.316 -3.1212 -2.0699 -0.8512
19200TIP3   OH279090   5.423   1.868  11.359 -0.2431 -0.0634  0.0511
19200TIP3    H179091   5.405   1.861  11.453  0.8306  0.0284  0.2691
19200TIP3    H279092   5.515   1.846  11.350 -0.0559  0.9832 -0.8409
19201TIP3   OH279093   1.028   1.239  13.131  0.5952  0.5025 -0.0795
19201TIP3    H179094   0.983   1.323  13.140  0.3180  0.2893  0.5146
19201TIP3    H279095   1.110   1.261  13.086  0.2118  0.9876 -0.5576
19202TIP3   OH279096   2.237   0.675  12.879 -0.2868  0.6487 -0.2910
19202TIP3    H179097   2.225   0.732  12.955  1.6310  0.3682  0.2805
19202TIP3    H279098   2.321   0.701  12.843 -0.1532 -0.7029 -1.0188
19203TIP3   OH279099   2.898   5.392   4.839 -0.1891 -0.6922 -0.0790
19203TIP3    H179100   2.825   5.368   4.896 -1.2156  0.8022 -0.7112
19203TIP3    H279101   2.862   5.459   4.781  1.9153  0.7611  0.1790
19204TIP3   OH279102   2.903   6.566  15.817  0.6038  0.1434  0.2230
19204TIP3    H179103   2.864   6.499  15.760  1.4532 -1.1709  1.1128
19204TIP3    H279104   2.835   6.632  15.826 -0.6598 -1.0781  0.0901
19205TIP3   OH279105   4.316   0.245   1.504 -0.2231 -0.2483 -0.5166
19205TIP3    H179106   4.383   0.193   1.548 -1.5311 -1.6520 -0.1341
19205TIP3    H279107   4.366   0.305   1.448  1.4499  0.6456  1.7716
19206TIP3   OH279108   3.124   0.143   5.105  0.0582 -0.4076  0.2854
19206TIP3    H179109   3.180   0.215   5.134  1.9416 -1.2984 -0.9978
19206TIP3    H279110   3.060   0.185   5.047  0.9886  0.2847 -0.2655
19207TIP3   OH279111   2.734   3.541   5.490  0.2037  0.1279  0.4922
19207TIP3    H179112   2.697   3.557   5.403 -0.6083  2.9087  1.2378
19207TIP3    H279113   2.821   3.580   5.486 -0.0652  0.8114  1.0710
19208TIP3   OH279114   2.891   3.984   1.312 -0.5364 -0.5622  0.1708
19208TIP3    H179115   2.948   3.994   1.388  1.9214  0.2540 -1.6241
19208TIP3    H279116   2.802   3.983   1.347  0.5362 -1.7592  3.1491
19209TIP3   OH279117   3.957   0.536  12.413  0.6445 -0.2566  0.1273
19209TIP3    H179118   4.044   0.548  12.375  0.2389 -0.1369 -0.7867
19209TIP3    H279119   3.915   0.621  12.403 -0.0261 -0.6648 -0.6070
19210TIP3   OH279120   3.326   5.899   1.833 -0.3407  0.4215 -0.1205
19210TIP3    H179121   3.399   5.852   1.873  0.9110  1.1451 -1.4560
19210TIP3    H279122   3.324   5.867   1.742 -1.1067  1.0789 -0.3473
19211TIP3   OH279123   4.835   5.904   0.780  0.4124 -0.4404 -0.3373
19211TIP3    H179124   4.745   5.906   0.813  1.1122 -0.5739  1.7365
19211TIP3    H279125   4.843   5.818   0.738 -0.4216 -0.4020 -0.5957
19212TIP3   OH279126   3.696   2.025  14.287  0.5303 -0.5528 -0.6601
19212TIP3    H179127   3.611   2.035  14.246 -0.7226 -0.5605  1.7415
19212TIP3    H279128   3.713   1.931  14.284 -0.1348 -0.7002 -0.1040
19213TIP3   OH279129   6.780   1.118   2.248 -0.0998 -0.1182  0.0206
19213TIP3    H179130   6.801   1.155   2.334 -0.5222  1.0618 -0.3557
19213TIP3    H279131   6.758   1.194   2.194 -2.7744 -1.0337 -0.3199
19214TIP3   OH279132   3.318   6.197   4.469  0.3680 -0.3528 -0.0647
19214TIP3    H179133   3.256   6.124   4.461  0.2690 -0.3542  0.6834
19214TIP3    H279134   3.303   6.231   4.557  0.5946  0.4089 -0.3167
19215TIP3   OH279135   1.391   6.679   0.234  0.3306 -0.0416  0.4897
19215TIP3    H179136   1.458   6.657   0.170 -0.3904 -1.2458  0.1238
19215TIP3    H279137   1.431   6.658   0.319  0.6391 -0.1419  0.3217
19216TIP3   OH279138   0.533   6.396  11.804  0.1863  0.3348  0.1489
19216TIP3    H179139   0.593   6.410  11.878 -0.7609 -0.4445  1.0920
19216TIP3    H279140   0.512   6.485  11.774  3.3554  0.6512 -1.5622
19217TIP3   OH279141   2.501   3.748   4.354 -0.5283  0.1048 -0.3949
19217TIP3    H179142   2.553   3.727   4.276  1.0859  0.5443  0.4961
19217TIP3    H279143   2.425   3.795   4.321  0.0337  0.1390 -1.7101
19218TIP3   OH279144   6.046   3.780   3.138 -0.2034  0.0409 -0.4359
19218TIP3    H179145   6.029   3.700   3.088 -2.6140 -1.0731  1.8883
19218TIP3    H279146   6.139   3.797   3.127 -0.1184 -1.6194 -3.0258
19219TIP3   OH279147   5.646   3.817   5.048  0.0847  0.7756 -0.3783
19219TIP3    H179148   5.612   3.751   4.988  1.2859  0.9400 -1.2924
19219TIP3    H279149   5.702   3.873   4.993  3.6427 -0.7740  1.3161
19220TIP3   OH279150   0.495   0.287   3.560  0.1031  0.4171 -0.1825
19220TIP3    H179151   0.501   0.329   3.475 -0.6084 -0.8156 -0.8739
19220TIP3    H279152   0.516   0.195   3.543  2.4691  0.5720  1.4207
19221TIP3   OH279153   6.676   5.219  11.985 -0.0085 -0.2285 -0.1676
19221TIP3    H179154   6.637   5.265  12.059  1.0614  1.4841 -0.6182
19221TIP3    H279155   6.770   5.238  11.991  0.5828 -2.7455 -0.1392
19222TIP3   OH279156   6.359   3.787   6.247  0.3189  0.0650  0.3157
19222TIP3    H179157   6.415   3.830   6.183 -0.0664 -2.5342 -1.9575
19222TIP3    H279158   6.271   3.792   6.208  0.2252 -2.3901  0.0671
19223TIP3   OH279159   1.722   2.860   1.842  0.3525  0.6236  0.4514
19223TIP3    H179160   1.781   2.831   1.912  1.2522 -1.1867 -0.9462
19223TIP3    H279161   1.639   2.877   1.885  0.8664 -0.4716  1.9528
19224TIP3   OH279162   5.477   3.343   5.241 -0.4507 -0.2434 -0.1670
19224TIP3    H179163   5.401   3.285   5.255  0.3965 -1.4761 -0.5148
19224TIP3    H279164   5.550   3.297   5.283 -0.1598  1.7157  1.6735
19225TIP3   OH279165   5.522   6.608   0.976  0.1893 -0.3157  0.0846
19225TIP3    H179166   5.432   6.608   1.009  0.2700  1.4809  0.3801
19225TIP3    H279167   5.576   6.585   1.051  0.2136  1.8384  0.7757
19226TIP3   OH279168   1.362   1.328   5.802 -0.3065  0.0768 -0.0597
19226TIP3    H179169   1.366   1.311   5.708 -0.6086  1.6024 -0.3885
19226TIP3    H279170   1.447   1.300   5.836  0.5797  1.3315 -1.1453
19227TIP3   OH279171   2.220   5.095   2.927  0.5666  0.0760  0.1237
19227TIP3    H179172   2.167   5.069   3.002  2.3741 -2.5409  0.6301
19227TIP3    H279173   2.310   5.093   2.959  1.2947  0.0874 -1.7904
19228TIP3   OH279174   1.761   0.412  10.763 -0.4239 -0.4098  0.7424
19228TIP3    H179175   1.779   0.354  10.689  0.7944  0.6656  0.1594
19228TIP3    H279176   1.845   0.421  10.807 -0.6180  0.8076  0.8885
19229TIP3   OH279177   5.080   6.768   4.720  0.0564  0.0100 -0.3178
19229TIP3    H179178   5.064   6.704   4.789  1.8805  1.7212  1.8439
19229TIP3    H279179   5.005   6.827   4.724  0.1963  0.1520  0.2870
19230TIP3   OH279180   0.354   4.090   0.618  0.0977  0.1015  0.3910
19230TIP3    H179181   0.401   4.007   0.609 -1.4029 -0.7825  0.2689
19230TIP3    H279182   0.324   4.091   0.709 -1.1720 -0.2487  0.0057
19231TIP3   OH279183   0.070   3.984   3.794  0.0570  0.3885 -0.1802
19231TIP3    H179184   0.165   3.972   3.801  0.1862  0.7804 -1.0888
19231TIP3    H279185   0.033   3.922   3.857  0.9847  2.8829  3.1372
19232TIP3   OH279186   3.731   4.829  13.870 -0.1762 -0.8496 -0.1314
19232TIP3    H179187   3.646   4.821  13.827 -0.7413 -0.4384  0.8793
19232TIP3    H279188   3.711   4.837  13.963  0.8026  1.7153 -0.0611
19233TIP3   OH279189   4.354   3.508   2.640 -0.2201 -0.6977  0.4565
19233TIP3    H179190   4.333   3.580   2.582  0.5565 -0.4277  0.4985
19233TIP3    H279191   4.269   3.473   2.668 -0.6213 -1.2723 -1.3698
19234TIP3   OH279192   4.030   5.210   4.190  0.2158  0.0689  0.1776
19234TIP3    H179193   3.969   5.264   4.141 -0.0174 -0.6102 -0.2826
19234TIP3    H279194   4.069   5.152   4.125  0.9719  0.1436  0.5522
19235TIP3   OH279195   2.409   4.502   6.770  0.1647  0.1468 -0.3082
19235TIP3    H179196   2.439   4.423   6.725 -1.8382 -0.0956 -1.3547
19235TIP3    H279197   2.322   4.480   6.802  0.4780  1.2127  1.4202
19236TIP3   OH279198   1.861   5.330  13.248 -0.2291  0.4848  0.1456
19236TIP3    H179199   1.831   5.262  13.188 -1.6618  3.0374 -2.2682
19236TIP3    H279200   1.955   5.313  13.260  0.0359 -0.3615 -2.5714
19237TIP3   OH279201   3.200   6.526  12.172 -0.6721  0.8335  0.2530
19237TIP3    H179202   3.263   6.462  12.138  0.7827 -0.2427  4.4110
19237TIP3    H279203   3.133   6.474  12.214 -1.4125  2.0513  0.6356
19238TIP3   OH279204   4.496   6.270   1.411  0.3672  0.3662 -0.3792
19238TIP3    H179205   4.584   6.236   1.429 -0.1073 -0.5069  0.3591
19238TIP3    H279206   4.507   6.323   1.331  1.5757  0.3611 -0.2368
19239TIP3   OH279207   3.894   0.603   2.366  0.1299  0.0075  0.3383
19239TIP3    H179208   3.832   0.534   2.341 -0.1094  0.5130 -0.5093
19239TIP3    H279209   3.887   0.668   2.296  2.1882 -0.2732 -0.1926
19240TIP3   OH279210   5.980   5.522   0.355 -0.0328 -0.1237 -0.3510
19240TIP3    H179211   5.960   5.559   0.442  1.0425  0.9208 -0.5120
19240TIP3    H279212   5.908   5.552   0.299 -0.0770  0.2813 -0.0880
19241TIP3   OH279213   3.046   1.635  16.394  0.1386 -0.0703 -0.7542
19241TIP3    H179214   3.033   1.552  16.347  0.0557  0.5441 -1.8340
19241TIP3    H279215   3.130   1.668  16.362 -0.8485  1.3381 -2.0072
19242TIP3   OH279216   1.752   1.694  13.909  0.3590 -0.1179 -0.0534
19242TIP3    H179217   1.721   1.715  13.997  1.8131  0.4374  0.3675
19242TIP3    H279218   1.702   1.752  13.852  0.3090  0.4574  0.5542
19243TIP3   OH279219   5.280   3.010  13.528 -0.0056 -0.4120 -1.0498
19243TIP3    H179220   5.355   3.022  13.470  1.1475 -1.7789  0.0821
19243TIP3    H279221   5.288   3.081  13.592 -0.3070  0.0884 -1.5630
19244TIP3   OH279222   2.344   4.227   2.380  0.7572  0.1227 -0.0595
19244TIP3    H179223   2.261   4.183   2.362  0.8564 -0.2592  0.4023
19244TIP3    H279224   2.410   4.159   2.373  1.0503  0.4527 -0.5573
19245TIP3   OH279225   0.178   4.338   5.412  0.1636  0.1196 -0.3644
19245TIP3    H179226   0.095   4.303   5.446  0.7963 -0.8035  0.2574
19245TIP3    H279227   0.152   4.418   5.365 -1.2523 -0.8824 -1.3811
19246TIP3   OH279228   3.006   4.209  11.405  0.0032 -0.1276  0.9409
19246TIP3    H179229   2.948   4.285  11.413 -0.3100 -0.2956  0.3628
19246TIP3    H279230   3.060   4.230  11.328 -0.0325 -0.4534  0.8290
19247TIP3   OH279231   6.174   1.687   5.481  0.2136 -0.5642  0.3717
19247TIP3    H179232   6.244   1.716   5.539 -0.8932  0.4861  1.2207
19247TIP3    H279233   6.103   1.661   5.540  0.3529 -2.9824 -0.4213
19248TIP3   OH279234   0.599   0.518  15.640 -0.1754 -0.7499  0.0828
19248TIP3    H179235   0.594   0.457  15.713  1.3845 -0.9244  0.0760
19248TIP3    H279236   0.686   0.558  15.648 -0.6659  0.5398 -0.6477
19249TIP3   OH279237   6.488   0.777  15.199 -0.0615  0.1645  0.0410
19249TIP3    H179238   6.512   0.869  15.208  3.2018 -0.5666  0.0414
19249TIP3    H279239   6.491   0.760  15.105  1.4936 -0.3643  0.1530
19250TIP3   OH279240   0.061   5.416   0.698  0.2829 -0.0562 -0.3306
19250TIP3    H179241  -0.012   5.476   0.686 -0.9781 -1.0107  1.8910
19250TIP3    H279242   0.139   5.472   0.694 -0.7211  1.3983 -0.3051
19251TIP3   OH279243   3.386   1.757   1.656  0.1074  0.0168 -0.3123
19251TIP3    H179244   3.453   1.693   1.631  1.3523  1.0203  0.3531
19251TIP3    H279245   3.386   1.755   1.752  0.6251  1.4618 -0.2676
19252TIP3   OH279246   4.519   3.866   4.796  0.7132 -0.1124 -0.2835
19252TIP3    H179247   4.425   3.886   4.790  0.9260  1.1495  0.2582
19252TIP3    H279248   4.562   3.948   4.772  1.7132 -0.9633 -1.5266
19253TIP3   OH279249   1.815   5.065   5.987 -0.0197  0.2322 -0.1460
19253TIP3    H179250   1.820   5.055   6.082 -2.5363  1.8836  0.2594
19253TIP3    H279251   1.756   4.995   5.959  0.6922 -0.2303 -0.5179
19254TIP3   OH279252   5.293   0.574   5.243 -0.3076 -0.8352  0.1955
19254TIP3    H179253   5.204   0.597   5.270  0.2777  1.3396  0.4334
19254TIP3    H279254   5.303   0.616   5.158  0.8356 -0.1542  0.6514
19255TIP3   OH279255   3.477   0.691  15.738 -0.1316  0.4595 -0.7490
19255TIP3    H179256   3.573   0.687  15.738 -0.0600  1.2529  0.9441
19255TIP3    H279257   3.450   0.619  15.682  1.4376 -1.0960  0.3885
19256TIP3   OH279258   4.599   3.024   0.449 -0.3834 -0.1661  0.2119
19256TIP3    H179259   4.508   3.046   0.434 -0.2298  1.6561  1.6633
19256TIP3    H279260   4.633   3.094   0.505  2.4494  0.3069 -1.8641
19257TIP3   OH279261   1.722   5.484   2.257 -0.4310 -0.6443 -0.1061
19257TIP3    H179262   1.723   5.520   2.169 -1.8193  1.3744  0.6370
19257TIP3    H279263   1.811   5.496   2.289 -0.7368  1.9144 -0.0259
19258TIP3   OH279264   0.714   5.441  10.606  0.3351  0.0296  0.0891
19258TIP3    H179265   0.701   5.488  10.524  0.7020  2.2731  1.2241
19258TIP3    H279266   0.739   5.509  10.669 -1.3131 -1.3669  2.4308
19259TIP3   OH279267   5.671   2.036  10.763 -0.6345  0.4465  0.1967
19259TIP3    H179268   5.590   1.984  10.764 -0.4712  0.1826  1.5357
19259TIP3    H279269   5.734   1.981  10.717 -0.6142 -0.3158  1.1225
19260TIP3   OH279270   1.825   3.502   1.386 -0.3952  0.3161  0.1284
19260TIP3    H179271   1.785   3.561   1.322 -0.9150  0.5418  0.6479
19260TIP3    H279272   1.891   3.556   1.430 -0.5676  0.3890  0.3018
19261TIP3   OH279273   0.387   6.501  16.225 -0.1773  0.5354 -0.3676
19261TIP3    H179274   0.481   6.518  16.234 -0.1008  0.1889 -0.4964
19261TIP3    H279275   0.382   6.408  16.204 -0.6392  0.1363  1.3717
19262TIP3   OH279276   2.011   0.056   5.052 -0.0452 -0.4249 -0.4280
19262TIP3    H179277   1.957   0.115   5.105 -2.0076 -0.0683 -2.6638
19262TIP3    H279278   2.086   0.109   5.024  0.1113 -0.1207  0.5364
19263TIP3   OH279279   6.357   4.458   2.382 -0.2574  0.1602  0.3394
19263TIP3    H179280   6.403   4.387   2.336  1.2750  1.5579 -0.3646
19263TIP3    H279281   6.271   4.421   2.403 -0.8614 -0.7477 -3.1918
19264TIP3   OH279282   4.719   2.661   4.993 -0.6707 -0.1507 -0.2819
19264TIP3    H179283   4.725   2.569   5.018 -1.9915 -0.2848 -0.4040
19264TIP3    H279284   4.635   2.690   5.028 -0.1797  1.0762 -0.0595
19265TIP3   OH279285   5.705   0.380  12.752  0.0537 -0.1085 -0.9512
19265TIP3    H179286   5.778   0.391  12.692  0.1112 -1.1872 -1.1054
19265TIP3    H279287   5.632   0.353  12.697  0.4340 -2.3990 -0.4556
19266TIP3   OH279288   0.295   5.910  16.842  0.6174 -0.0228  0.6457
19266TIP3    H179289   0.387   5.900  16.869  1.3191  0.6924 -1.3362
19266TIP3    H279290   0.278   6.004  16.850  1.0233  0.3161 -1.7387
19267TIP3   OH279291   4.771   5.841  11.420 -0.2317 -0.3002 -0.6822
19267TIP3    H179292   4.807   5.922  11.456  1.2845 -1.3824  0.3700
19267TIP3    H279293   4.747   5.863  11.330  0.2178  1.2767 -0.4508
19268TIP3   OH279294   2.919   3.018   0.963  0.7655 -0.5900  0.1515
19268TIP3    H179295   2.836   3.065   0.974  0.8339 -0.5705  0.5998
19268TIP3    H279296   2.893   2.926   0.953  0.7288 -0.6862  1.0827
19269TIP3   OH279297   1.730   2.181   4.304 -0.0786 -0.0171 -0.8187
19269TIP3    H179298   1.703   2.093   4.276 -0.6059 -0.1156 -0.0393
19269TIP3    H279299   1.769   2.167   4.390  2.1089  0.1869 -1.7027
19270TIP3   OH279300   2.084   0.407  15.097 -0.0850  0.3474  0.3800
19270TIP3    H179301   2.146   0.389  15.026  2.6442  2.4192  2.0513
19270TIP3    H279302   2.047   0.493  15.076 -0.4089  0.2896  0.6995
19271TIP3   OH279303   0.039   2.028  12.375  0.2392  0.4791 -0.2729
19271TIP3    H179304  -0.016   1.950  12.375  0.0418  0.6185 -0.4958
19271TIP3    H279305   0.025   2.068  12.289  1.6816 -0.1892 -0.8625
19272TIP3   OH279306   1.799   1.068   0.361 -0.4020  0.4940  0.4009
19272TIP3    H179307   1.765   1.156   0.379  1.7997  1.3776  0.5570
19272TIP3    H279308   1.748   1.011   0.417 -1.8253  1.6814  0.3765
19273TIP3   OH279309   6.736   0.893   3.698 -0.0414 -0.4042  0.2128
19273TIP3    H179310   6.642   0.902   3.683  0.0726  0.8322  0.1934
19273TIP3    H279311   6.757   0.806   3.664 -0.9900 -0.2616 -0.7852
19274TIP3   OH279312   0.633   5.148  11.465 -0.2391 -0.3327 -0.1045
19274TIP3    H179313   0.591   5.076  11.512 -1.0849 -0.5364 -1.1350
19274TIP3    H279314   0.562   5.207  11.441 -0.0545 -0.8964 -2.2459
19275TIP3   OH279315   2.356   2.337  12.630  0.5383 -0.2555  0.1833
19275TIP3    H179316   2.444   2.320  12.597  0.9368  0.9547  0.5547
19275TIP3    H279317   2.321   2.404  12.572  0.0264 -0.4067  0.3124
19276TIP3   OH279318   0.399   2.831   6.713  0.5276  0.4772  0.1235
19276TIP3    H179319   0.331   2.892   6.686  0.2356 -0.3334 -1.0650
19276TIP3    H279320   0.381   2.752   6.662  2.0016  0.0433  0.2497
19277TIP3   OH279321   4.082   5.862   4.102 -0.1145  0.4894 -0.4516
19277TIP3    H179322   4.128   5.943   4.079  1.1967 -0.0312  0.2058
19277TIP3    H279323   4.015   5.852   4.035 -0.2179  2.0433 -0.6216
19278TIP3   OH279324   4.897   1.187  12.868 -0.3250 -0.3502  0.6341
19278TIP3    H179325   4.837   1.181  12.793  0.2888  0.0289  0.1004
19278TIP3    H279326   4.976   1.142  12.839  0.4950  1.1490  0.4520
19279TIP3   OH279327   1.087   1.049   1.299 -0.0204 -0.3616 -0.6579
19279TIP3    H179328   0.998   1.047   1.264 -0.7657  2.0055  0.8542
19279TIP3    H279329   1.131   1.116   1.249  0.9660 -1.5048 -1.3803
19280TIP3   OH279330   3.558   6.794   0.181  0.3502  0.4575 -1.1196
19280TIP3    H179331   3.594   6.752   0.259  1.8226  2.0009 -0.9285
19280TIP3    H279332   3.524   6.878   0.212 -2.2681 -0.3190 -1.5580
19281TIP3   OH279333   5.083   4.740   2.140 -0.8038  0.7322 -0.0107
19281TIP3    H179334   5.038   4.676   2.195 -1.2443  1.2829  0.2815
19281TIP3    H279335   5.019   4.810   2.127 -0.7700  0.5283 -1.3956
19282TIP3   OH279336   3.632   6.360  14.036  0.3931 -0.5053 -1.0283
19282TIP3    H179337   3.545   6.329  14.062 -0.0166 -0.7004 -2.4990
19282TIP3    H279338   3.633   6.349  13.941  1.8607 -0.0505 -1.0852
19283TIP3   OH279339   1.704   4.458  13.647  0.3800 -0.3077  0.1360
19283TIP3    H179340   1.739   4.389  13.703 -1.7139 -1.4571  0.1455
19283TIP3    H279341   1.676   4.413  13.568 -0.1925  0.6723 -0.2380
19284TIP3   OH279342   3.096   6.269   4.961  0.2885 -0.1354  0.0936
19284TIP3    H179343   3.024   6.207   4.962 -0.0039  0.1908 -0.4701
19284TIP3    H279344   3.059   6.349   4.999  0.7515 -0.3857  1.1234
19285TIP3   OH279345   4.566   3.817  13.442 -0.2571  0.0503 -0.4653
19285TIP3    H179346   4.600   3.844  13.357  0.0005  1.3737  0.0259
19285TIP3    H279347   4.471   3.826  13.434 -0.1525  1.6468 -0.1650
19286TIP3   OH279348   1.585   2.038   1.147 -0.1163 -0.0995  0.1477
19286TIP3    H179349   1.606   1.991   1.067 -2.2680 -0.0348 -0.5188
19286TIP3    H279350   1.543   1.973   1.203  0.8490 -0.0007  1.0229
19287TIP3   OH279351   2.624   5.110   2.161  0.9392 -0.0424 -0.1488
19287TIP3    H179352   2.622   5.203   2.185  1.8197 -0.1461  0.3467
19287TIP3    H279353   2.669   5.109   2.076  2.7277 -0.1793  0.7531
19288TIP3   OH279354   6.251   5.471  12.314 -0.4631 -0.3073 -0.1256
19288TIP3    H179355   6.246   5.387  12.269 -1.7820 -0.3248  0.0274
19288TIP3    H279356   6.333   5.467  12.363 -0.1853 -1.2310 -0.6350
19289TIP3   OH279357   3.076   6.151   1.360  0.1482  0.1872  0.3268
19289TIP3    H179358   3.024   6.186   1.288 -0.2056 -2.1663 -0.6518
19289TIP3    H279359   3.013   6.138   1.431 -0.2504 -0.7781 -0.1784
19290TIP3   OH279360   1.190   1.437  13.367 -0.3738 -0.0309  0.1428
19290TIP3    H179361   1.269   1.468  13.323  0.6292  0.7133  2.3492
19290TIP3    H279362   1.123   1.435  13.298  0.6366  2.8256 -1.0498
19291TIP3   OH279363   6.808   3.366   0.286 -0.3300  0.4046  0.0604
19291TIP3    H179364   6.768   3.351   0.200  1.4989  1.1490 -0.9825
19291TIP3    H279365   6.734   3.375   0.345 -1.6568 -2.2469 -1.0112
19292TIP3   OH279366   4.575   1.122  15.284 -0.0017  0.0907  0.4729
19292TIP3    H179367   4.623   1.087  15.359 -1.1472 -3.2880 -0.1820
19292TIP3    H279368   4.496   1.067  15.278  0.7096 -0.8502 -3.9719
19293TIP3   OH279369   5.160   1.330   5.651  0.2801 -0.0973 -0.0672
19293TIP3    H179370   5.239   1.352   5.602  1.0804  0.1934  1.2986
19293TIP3    H279371   5.105   1.408   5.645  0.8587  0.3589  0.3997
19294TIP3   OH279372   0.302   3.438  15.693 -0.0988  0.5687 -0.2030
19294TIP3    H179373   0.395   3.417  15.681  0.3602  1.7715  0.9385
19294TIP3    H279374   0.264   3.357  15.726  0.0741 -0.5638 -2.5998
19295TIP3   OH279375   0.827   6.175  12.703 -0.7222  0.0749 -0.1668
19295TIP3    H179376   0.792   6.087  12.690 -1.0948  0.1383  0.3590
19295TIP3    H279377   0.921   6.163  12.711 -0.7603 -0.2635 -0.2156
19296TIP3   OH279378   2.679   0.630   2.876 -0.0556  0.7113  0.5321
19296TIP3    H179379   2.615   0.660   2.812 -2.4706  1.5698  3.0953
19296TIP3    H279380   2.659   0.537   2.887 -1.1489  1.0311  1.5110
19297TIP3   OH279381   0.421   3.545  12.088 -0.0086 -0.3738  0.8658
19297TIP3    H179382   0.475   3.468  12.107  1.1127  0.3840  0.8250
19297TIP3    H279383   0.408   3.544  11.993  0.1600 -0.4048  0.8445
19298TIP3   OH279384   5.548   3.115   5.860  0.4005  0.1730  0.2010
19298TIP3    H179385   5.496   3.094   5.783  0.1947  4.6105 -1.1802
19298TIP3    H279386   5.484   3.137   5.927  0.5876 -1.4049  0.9292
19299TIP3   OH279387   3.604   6.336  12.950 -0.0387 -0.3745 -0.2769
19299TIP3    H179388   3.515   6.369  12.957  0.0507  0.0730 -1.2081
19299TIP3    H279389   3.619   6.326  12.856  0.6998 -0.9816 -0.1055
19300TIP3   OH279390   6.804   0.002  11.251  0.1593 -0.3134 -0.5084
19300TIP3    H179391   6.796   0.008  11.346  1.1183  0.1497 -0.4446
19300TIP3    H279392   6.718   0.029  11.217 -0.8756 -2.4589  0.2577
19301TIP3   OH279393   2.879   0.478   5.230  0.0675 -0.0610 -0.3720
19301TIP3    H179394   2.970   0.497   5.207  0.6457 -0.3301  1.5211
19301TIP3    H279395   2.869   0.384   5.214  0.2915 -0.1412 -0.0309
19302TIP3   OH279396   4.712   3.355   6.123 -0.3587 -0.4250 -0.7426
19302TIP3    H179397   4.700   3.407   6.202 -0.1742 -0.1097 -0.9175
19302TIP3    H279398   4.675   3.269   6.144 -0.0066 -0.4452 -0.2041
19303TIP3   OH279399   2.239   4.807  10.836 -0.4006  0.5143 -0.3982
19303TIP3    H179400   2.198   4.732  10.792 -0.2131  0.8756 -1.1992
19303TIP3    H279401   2.324   4.774  10.864 -0.3954  0.3658 -0.5839
19304TIP3   OH279402   3.445   6.655  14.530 -0.1180 -0.2047  0.2785
19304TIP3    H179403   3.370   6.601  14.554 -1.3094  1.7552  1.2152
19304TIP3    H279404   3.520   6.609  14.568 -0.7329 -2.3280 -0.8804
19305TIP3   OH279405   0.074   1.642   2.646 -0.1020 -0.3398 -0.1730
19305TIP3    H179406   0.007   1.609   2.705  0.7836  0.7822  1.5719
19305TIP3    H279407   0.155   1.599   2.675  0.0995 -1.0196 -1.6729
19306TIP3   OH279408   3.372   2.752  11.457 -0.2200 -0.0616  0.0604
19306TIP3    H179409   3.357   2.774  11.549 -1.4412 -2.1230  0.4173
19306TIP3    H279410   3.290   2.777  11.413 -1.1250 -2.4596  0.2540
19307TIP3   OH279411   1.779   6.033  17.205  0.3386 -0.3458 -0.0496
19307TIP3    H179412   1.762   6.111  17.259  0.6951 -1.3489  1.6081
19307TIP3    H279413   1.847   6.061  17.143 -1.2128  1.3008 -1.0926
19308TIP3   OH279414   2.921   0.115   2.074  0.2504 -0.1255  0.1606
19308TIP3    H179415   2.901   0.174   2.147  2.3708 -0.4445  1.0929
19308TIP3    H279416   2.958   0.172   2.006  0.6947 -0.1434  0.3821
19309TIP3   OH279417   2.010   2.951   6.870 -0.5823  0.0260 -0.0928
19309TIP3    H179418   2.065   2.963   6.792 -0.5173  2.1534  0.2145
19309TIP3    H279419   2.072   2.929   6.940 -0.3950  0.1263 -0.2253
19310TIP3   OH279420   2.235   5.600  10.738  0.1811  0.2469  0.4977
19310TIP3    H179421   2.164   5.577  10.677  0.0489 -1.1995  1.1534
19310TIP3    H279422   2.312   5.610  10.682 -0.0721 -0.4300  0.0152
19311TIP3   OH279423   1.458   5.763   1.672  0.0629  0.4555  0.1410
19311TIP3    H179424   1.432   5.671   1.674 -0.8153  0.6374 -1.1062
19311TIP3    H279425   1.450   5.792   1.762 -0.9996 -0.3557  0.3300
19312TIP3   OH279426   1.834   3.527   1.700 -0.2454 -0.2003  0.2863
19312TIP3    H179427   1.749   3.486   1.681 -0.2435 -0.8802  1.6549
19312TIP3    H279428   1.897   3.474   1.651 -0.5231 -0.1534 -0.1317
19313TIP3   OH279429   3.848   2.139   2.251 -0.2792  0.0025 -0.6681
19313TIP3    H179430   3.868   2.168   2.340  1.1396 -2.1428 -0.2143
19313TIP3    H279431   3.884   2.051   2.246 -0.3218  0.0635 -3.3829
19314TIP3   OH279432   5.289   5.118   6.299  0.4823  0.2636  0.3139
19314TIP3    H179433   5.328   5.193   6.253 -0.5616  0.9605  0.5161
19314TIP3    H279434   5.332   5.042   6.262  0.4815  0.8819 -1.0166
19315TIP3   OH279435   6.622   4.836  16.250 -0.3151 -0.1985 -0.2319
19315TIP3    H179436   6.601   4.929  16.238 -1.8749 -0.6241 -1.0483
19315TIP3    H279437   6.634   4.803  16.161 -1.1401 -1.0749 -0.0213
19316TIP3   OH279438   3.760   1.421   2.557 -0.4077  0.4988 -0.1900
19316TIP3    H179439   3.847   1.430   2.595 -0.4238  0.5625 -0.1684
19316TIP3    H279440   3.711   1.367   2.620 -0.7564  1.4870  0.4044
19317TIP3   OH279441   6.558   2.849   4.406 -0.2619  0.3590 -0.0870
19317TIP3    H179442   6.558   2.943   4.392 -0.1372  0.4018  0.1910
19317TIP3    H279443   6.644   2.820   4.376 -0.8979  0.0882 -1.7364
19318TIP3   OH279444   3.182   5.403   3.201 -0.2962 -0.0147  0.0274
19318TIP3    H179445   3.185   5.436   3.111  0.7621 -1.7992 -0.6285
19318TIP3    H279446   3.268   5.422   3.237 -0.9662  1.4138  0.9885
19319TIP3   OH279447   0.371   3.935   4.309  0.6218  0.3828 -0.0188
19319TIP3    H179448   0.378   4.030   4.322  2.6825  0.4443 -1.1601
19319TIP3    H279449   0.443   3.898   4.359 -0.9930 -0.7811  1.5916
19320TIP3   OH279450   0.853   6.450  14.807  0.4609 -0.5223 -0.2965
19320TIP3    H179451   0.819   6.448  14.897 -0.4388 -1.1605 -0.6417
19320TIP3    H279452   0.936   6.497  14.815  0.0598  0.0536  0.7566
19321TIP3   OH279453   1.406   0.453  15.672 -0.2116  0.2123 -0.2240
19321TIP3    H179454   1.320   0.432  15.635  0.1599  0.5180 -1.2996
19321TIP3    H279455   1.442   0.367  15.697 -0.4996  0.0048 -0.5107
19322TIP3   OH279456   4.236   6.281   1.121  0.5311 -0.0373  0.3618
19322TIP3    H179457   4.174   6.241   1.060  1.8767  0.0840 -1.1300
19322TIP3    H279458   4.201   6.369   1.135  0.0368 -0.1708  0.0227
19323TIP3   OH279459   1.449   1.331  15.568  0.4567  0.4497 -0.3990
19323TIP3    H179460   1.459   1.321  15.474  0.5992 -1.3960 -0.2197
19323TIP3    H279461   1.394   1.258  15.595  2.7623 -0.8159  1.3104
19324TIP3   OH279462   5.908   2.194  16.858 -0.2635 -0.0032  0.0767
19324TIP3    H179463   5.853   2.151  16.923 -2.7010  1.5253 -0.8448
19324TIP3    H279464   5.916   2.130  16.787 -0.6667 -0.3264  0.3167
19325TIP3   OH279465   3.222   6.393  11.438  0.0265 -0.1959 -0.1571
19325TIP3    H179466   3.238   6.486  11.426  1.0878 -0.5109 -1.4024
19325TIP3    H279467   3.289   6.350  11.386  0.5556 -1.6876  1.6193
19326TIP3   OH279468   1.935   1.967  15.215 -0.1472 -0.5135  0.9311
19326TIP3    H179469   1.886   1.886  15.197 -0.2975 -0.0117 -1.2564
19326TIP3    H279470   1.870   2.027  15.250 -0.7979 -0.3498 -0.4927
19327TIP3   OH279471   4.859   3.399  11.211 -0.1306  0.3372 -0.4745
19327TIP3    H179472   4.800   3.324  11.203 -0.1225  0.1793  0.7156
19327TIP3    H279473   4.836   3.438  11.296 -0.7938  2.2635 -1.4634
19328TIP3   OH279474   4.435   2.862  15.912 -0.4051 -0.3577 -0.7869
19328TIP3    H179475   4.428   2.832  16.003 -0.1156 -1.0922 -0.9993
19328TIP3    H279476   4.521   2.829  15.883  0.7170  2.1166 -0.5129
19329TIP3   OH279477   6.517   1.120  14.279 -0.2494 -0.2735  0.5921
19329TIP3    H179478   6.487   1.038  14.241  1.5643  0.1448 -2.0145
19329TIP3    H279479   6.443   1.180  14.269 -0.1649 -0.4554 -1.5208
19330TIP3   OH279480   0.269   0.964  12.608  0.0856 -0.3283  0.0728
19330TIP3    H179481   0.217   0.885  12.618  0.5306 -0.6235  0.0826
19330TIP3    H279482   0.320   0.969  12.689 -0.6332  0.4873  0.4939
19331TIP3   OH279483   4.226   6.608   5.049  0.2471  0.3502 -0.1582
19331TIP3    H179484   4.188   6.525   5.020  0.9030  0.2686 -0.7956
19331TIP3    H279485   4.308   6.583   5.093  0.4121  0.6562 -0.2931
19332TIP3   OH279486   6.660   1.358   5.666  0.4429  0.7571  0.5005
19332TIP3    H179487   6.633   1.273   5.629 -1.2825 -0.7832  4.6458
19332TIP3    H279488   6.755   1.351   5.674  0.5370  0.0207 -0.9820
19333TIP3   OH279489   5.298   3.943  17.259 -0.2334  0.2057  0.9771
19333TIP3    H179490   5.247   4.023  17.244  1.2089  0.9857  0.0433
19333TIP3    H279491   5.384   3.962  17.222  0.5631 -1.3060  1.9563
19334TIP3   OH279492   2.430   0.338   3.879  0.2729 -0.6221 -0.4193
19334TIP3    H179493   2.463   0.329   3.790 -2.7118 -1.5646 -1.5592
19334TIP3    H279494   2.406   0.249   3.905 -1.7727  0.0158  0.0536
19335TIP3   OH279495   1.906   4.771   0.635 -0.0766 -0.3596 -0.2611
19335TIP3    H179496   1.918   4.770   0.540 -0.3872  0.1099 -0.3093
19335TIP3    H279497   1.946   4.690   0.665 -0.8131 -0.9761 -0.8950
19336TIP3   OH279498   6.530   5.027   2.433  0.1707 -0.1469 -0.3525
19336TIP3    H179499   6.511   4.977   2.354  2.2818 -0.8920 -0.4340
19336TIP3    H279500   6.600   4.979   2.476 -0.2677  0.7732  1.4928
19337TIP3   OH279501   3.969   5.582  13.938  0.0249 -0.2005 -0.0725
19337TIP3    H179502   3.996   5.559  14.027  2.7883  0.8235 -0.5182
19337TIP3    H279503   4.045   5.628  13.902 -1.5606  0.7177 -2.4813
19338TIP3   OH279504   0.054   2.154  12.135  0.0198 -0.1325  0.7788
19338TIP3    H179505   0.131   2.193  12.093  0.6875 -0.2517  1.8600
19338TIP3    H279506   0.010   2.107  12.064  0.7319  0.2395  0.0662
19339TIP3   OH279507   2.932   3.112  16.920 -0.7711  0.1834 -0.5364
19339TIP3    H179508   2.932   3.208  16.925 -1.9369  0.1383  1.1510
19339TIP3    H279509   2.946   3.084  17.010 -0.7029 -1.2355 -0.9730
19340TIP3   OH279510   5.109   1.345  13.913 -0.2412 -0.0035 -0.1970
19340TIP3    H179511   5.114   1.432  13.872  1.2627  0.5357  1.0224
19340TIP3    H279512   5.037   1.351  13.975 -0.7588  0.0424 -0.7886
19341TIP3   OH279513   2.409   1.756   4.024  0.0220  0.0500 -0.1930
19341TIP3    H179514   2.497   1.753   3.987 -0.4093 -0.3794 -1.2152
19341TIP3    H279515   2.410   1.689   4.093  0.7526  0.6763  0.4212
19342TIP3   OH279516   1.537   2.610   2.595 -0.4972 -0.2076 -0.2070
19342TIP3    H179517   1.590   2.559   2.657 -3.0992 -2.0061  0.7004
19342TIP3    H279518   1.473   2.655   2.651 -0.4076  1.3599 -1.3159
19343TIP3   OH279519   0.286   4.872   5.689  0.3692 -0.4211  0.1697
19343TIP3    H179520   0.260   4.830   5.771 -0.9975 -0.6796 -0.3703
19343TIP3    H279521   0.289   4.966   5.711 -0.8359 -0.3955  0.3329
19344TIP3   OH279522   3.715   1.449  16.998  0.1934  0.4326 -0.7730
19344TIP3    H179523   3.687   1.373  16.948 -0.6661  0.2068  0.0083
19344TIP3    H279524   3.798   1.476  16.959  0.3320 -0.6959 -1.2723
19345TIP3   OH279525   6.376   3.103  12.927 -0.1317 -0.2269  0.5344
19345TIP3    H179526   6.291   3.107  12.971 -1.7701 -1.0681 -2.2611
19345TIP3    H279527   6.384   3.011  12.902 -0.0272  0.4344 -2.0846
19346TIP3   OH279528   2.278   1.475  11.491  0.0225  0.3034  0.4138
19346TIP3    H179529   2.303   1.527  11.567 -3.4680  0.2280  1.8223
19346TIP3    H279530   2.194   1.512  11.464  1.5341  0.9942 -4.1766
19347TIP3   OH279531   0.386   0.625  16.134  0.2743 -0.1443  0.4978
19347TIP3    H179532   0.322   0.624  16.205 -1.0972 -0.9985 -0.6889
19347TIP3    H279533   0.355   0.693  16.075 -1.9445 -3.1112 -2.0747
19348TIP3   OH279534   2.588   4.958   1.424  0.3512  0.6183  0.2467
19348TIP3    H179535   2.578   4.935   1.516 -0.2769  3.9036  1.1369
19348TIP3    H279536   2.682   4.974   1.414  0.8537 -2.2367 -0.4741
19349TIP3   OH279537   6.475   2.036  11.491 -0.2564 -0.2061 -0.3061
19349TIP3    H179538   6.414   2.020  11.419 -1.2423  2.5750 -0.2316
19349TIP3    H279539   6.495   2.129  11.484 -0.4951  0.2228  3.0641
19350TIP3   OH279540   3.240   0.487  11.437  0.0740 -0.3573  0.1394
19350TIP3    H179541   3.323   0.461  11.397  0.3293 -1.9132  1.5570
19350TIP3    H279542   3.195   0.405  11.456 -1.7970  0.4508 -0.5350
19351TIP3   OH279543   0.389   5.470  16.671  0.2961  0.0416 -0.5986
19351TIP3    H179544   0.463   5.412  16.688  0.4983  0.4239 -0.1355
19351TIP3    H279545   0.315   5.412  16.653  0.4455 -0.3607  0.0771
19352TIP3   OH279546   0.200   4.706  17.192  0.1492  0.2930  0.1506
19352TIP3    H179547   0.210   4.617  17.160  0.6022  0.1182  0.7599
19352TIP3    H279548   0.121   4.704  17.246  1.4250 -0.3370  2.1071
19353TIP3   OH279549   2.752   0.170   3.296 -0.0421 -0.3547  0.5946
19353TIP3    H179550   2.729   0.203   3.382 -2.4896 -1.0245  0.2707
19353TIP3    H279551   2.681   0.110   3.273  0.7068 -0.4678 -1.7485
19354TIP3   OH279552   5.512   5.821   3.622  0.1221 -0.6190 -0.6817
19354TIP3    H179553   5.420   5.798   3.633 -0.2022  0.1740 -1.5598
19354TIP3    H279554   5.513   5.879   3.545  0.9843  1.6103  0.9079
19355TIP3   OH279555   4.698   3.135   4.298  0.3146  0.0357  1.2996
19355TIP3    H179556   4.656   3.161   4.380  1.0253  4.5062  0.5104
19355TIP3    H279557   4.627   3.136   4.234  0.1351 -1.4960  1.4209
19356TIP3   OH279558   6.630   1.241  13.289 -0.3217 -0.2806  0.0848
19356TIP3    H179559   6.657   1.330  13.310 -0.5217 -0.4969  1.3284
19356TIP3    H279560   6.709   1.199  13.255 -0.6083  0.8104 -2.0957
19357TIP3   OH279561   1.961   0.070   6.089  0.2163 -0.3588  0.2899
19357TIP3    H179562   1.926  -0.016   6.112  1.5762 -0.6939  1.2206
19357TIP3    H279563   1.940   0.125   6.165 -0.5143  0.0954 -0.2364
19358TIP3   OH279564   3.599   5.256  16.351 -0.9340 -0.3608 -0.6245
19358TIP3    H179565   3.508   5.233  16.371 -1.2936 -0.0142 -1.7993
19358TIP3    H279566   3.602   5.263  16.255  0.3855 -0.5948 -0.6255
19359TIP3   OH279567   5.640   5.277  15.021  0.1080  0.5305  0.1727
19359TIP3    H179568   5.661   5.340  14.952  3.8272  0.0202  0.6260
19359TIP3    H279569   5.677   5.194  14.991 -0.0034 -0.1811  1.8681
19360TIP3   OH279570   0.204   3.428  16.415 -0.3551 -0.2252  0.3420
19360TIP3    H179571   0.288   3.402  16.378 -0.6330 -0.5641 -0.0640
19360TIP3    H279572   0.146   3.354  16.397 -1.0211  0.4480 -0.3253
19361TIP3   OH279573   3.281   3.297  16.986 -0.2497 -0.0084  0.1297
19361TIP3    H179574   3.187   3.282  16.975  0.0578 -1.4873 -0.6174
19361TIP3    H279575   3.312   3.222  17.037  0.4465  0.7743  0.8975
19362TIP3   OH279576   4.186   4.323  15.263  0.7102 -0.8609  0.2288
19362TIP3    H179577   4.179   4.379  15.341  0.1234  0.0533 -0.4538
19362TIP3    H279578   4.214   4.383  15.194 -0.8411 -1.1917 -0.7414
19363TIP3   OH279579   5.760   3.765   2.142 -0.3099 -0.8312 -0.0564
19363TIP3    H179580   5.754   3.798   2.052 -1.2229  0.1916  0.3566
19363TIP3    H279581   5.833   3.703   2.140  0.0127 -0.4406 -1.3820
19364TIP3   OH279582   2.191   4.949  14.550 -0.2081 -0.0610  0.4192
19364TIP3    H179583   2.222   4.906  14.630  0.8018 -1.0249 -0.4631
19364TIP3    H279584   2.271   4.967  14.500 -0.8934 -0.4158 -0.8353
19365TIP3   OH279585   3.218   6.545   3.841 -0.8711  0.5331  0.1366
19365TIP3    H179586   3.285   6.478   3.857  1.3463  2.1595 -1.6274
19365TIP3    H279587   3.162   6.507   3.774  0.0186  0.1609 -0.4255
19366TIP3   OH279588   1.740   4.467  11.228  0.3007 -0.0866  0.3854
19366TIP3    H179589   1.793   4.546  11.230  1.1282 -0.6460  0.7305
19366TIP3    H279590   1.756   4.430  11.141  0.4678 -0.2597  0.4921
19367TIP3   OH279591   4.418   5.884  11.058  0.3409 -0.1687  0.1706
19367TIP3    H179592   4.378   5.901  11.143  1.5573 -2.2567  1.2256
19367TIP3    H279593   4.381   5.801  11.030  1.8171 -0.7445 -0.1381
19368TIP3   OH279594   1.272   2.240   6.757 -0.2457  0.2605  0.1955
19368TIP3    H179595   1.330   2.207   6.825 -0.0978 -0.1550 -0.1284
19368TIP3    H279596   1.297   2.332   6.747  1.1322 -0.1743 -0.7008
19369TIP3   OH279597   3.105   1.422   6.416 -0.0082  0.8103  0.4266
19369TIP3    H179598   3.053   1.415   6.495  0.9436  0.2608  1.0262
19369TIP3    H279599   3.176   1.482   6.439 -0.7915  2.2121 -0.6323
19370TIP3   OH279600   2.738   3.965   2.067 -0.1059  0.1063  0.1084
19370TIP3    H179601   2.643   3.975   2.068 -0.0051  1.7108 -0.7988
19370TIP3    H279602   2.763   3.958   2.159 -1.0296  0.7966  0.4337
19371TIP3   OH279603   5.340   0.979   5.266 -0.0247 -0.0334  0.0603
19371TIP3    H179604   5.301   1.064   5.242  0.2019 -0.1573 -0.7569
19371TIP3    H279605   5.408   1.001   5.330  0.6611  0.5067 -0.8343
19372TIP3   OH279606   1.763   2.679   3.485  0.1808  0.0880  0.0909
19372TIP3    H179607   1.728   2.741   3.421 -4.0662 -1.6682  0.4087
19372TIP3    H279608   1.773   2.730   3.565  2.3118  1.5207 -0.9955
19373TIP3   OH279609   3.382   3.058   1.344 -0.2108  0.2119 -0.4394
19373TIP3    H179610   3.345   3.021   1.264  0.7680  0.9481 -1.2619
19373TIP3    H279611   3.308   3.063   1.405 -0.9555 -0.4089 -1.2744
19374TIP3   OH279612   3.102   1.819   1.808 -0.0863  0.2659  0.2675
19374TIP3    H179613   3.178   1.876   1.801 -0.5810  0.8766 -0.2468
19374TIP3    H279614   3.064   1.839   1.894  0.1084  0.2379  0.3600
19375TIP3   OH279615   3.165   0.845  12.770 -0.1292  0.3537 -0.2470
19375TIP3    H179616   3.249   0.803  12.790  0.6700  2.2615  0.5946
19375TIP3    H279617   3.099   0.787  12.809  0.9100 -0.2487  0.6504
19376TIP3   OH279618   3.234   5.071  11.577 -0.0405 -0.0285  0.2065
19376TIP3    H179619   3.209   5.022  11.499  0.2719 -0.3254  0.2874
19376TIP3    H279620   3.330   5.063  11.580  0.0485  0.9328 -0.0005
19377TIP3   OH279621   1.946   2.586  15.337  0.1566  0.1778  0.0733
19377TIP3    H179622   1.986   2.640  15.269 -0.8184  0.8514  0.0160
19377TIP3    H279623   2.020   2.546  15.382  0.8177 -0.7635 -1.7585
19378TIP3   OH279624   1.302   6.395  11.135  0.4157  0.0097 -0.0877
19378TIP3    H179625   1.367   6.438  11.078 -0.9117  1.6978 -0.4095
19378TIP3    H279626   1.226   6.383  11.078  0.0958 -1.0489  0.5531
19379TIP3   OH279627   3.086   4.301  16.770 -0.3838 -0.7610 -0.2048
19379TIP3    H179628   3.160   4.329  16.717 -0.2303  1.7681  1.1837
19379TIP3    H279629   3.023   4.265  16.707  0.8998 -0.4793 -1.7070
19380TIP3   OH279630   4.902   5.091   3.233 -0.0717  0.4112  0.0778
19380TIP3    H179631   4.963   5.039   3.284 -1.0641 -0.4344  0.4287
19380TIP3    H279632   4.956   5.160   3.193  0.9760  0.1021  0.9358
19381TIP3   OH279633   3.586   0.201   1.193 -0.1785 -0.3361 -0.1781
19381TIP3    H179634   3.662   0.193   1.250 -0.3866  0.3686  0.2042
19381TIP3    H279635   3.595   0.286   1.151 -0.5628 -0.4094 -0.4187
19382TIP3   OH279636   4.518   6.343  15.691 -0.1525  0.1911  0.3368
19382TIP3    H179637   4.547   6.396  15.617  0.0165 -0.3935 -0.0246
19382TIP3    H279638   4.589   6.351  15.755 -0.6183  1.2629  0.7297
19383TIP3   OH279639   2.016   6.772  13.257  0.0420 -0.5361  0.6335
19383TIP3    H179640   2.063   6.704  13.209  0.3664 -0.4601  0.8350
19383TIP3    H279641   2.083   6.812  13.313 -0.0335  0.2657  0.1694
19384TIP3   OH279642   2.302   1.370  16.877 -0.5950  0.5668  0.0413
19384TIP3    H179643   2.368   1.395  16.941 -0.7933  1.1685  0.0207
19384TIP3    H279644   2.242   1.445  16.874 -1.4389 -0.0817  0.2668
19385TIP3   OH279645   3.542   1.750  14.777 -0.3451  0.5332 -0.2951
19385TIP3    H179646   3.480   1.821  14.761  0.0372  0.9274 -0.0604
19385TIP3    H279647   3.612   1.791  14.828  0.1273  0.1029 -0.5941
19386TIP3   OH279648   1.385   0.474   0.880 -0.4081  0.0964 -0.4862
19386TIP3    H179649   1.415   0.393   0.840  0.2095 -0.2084  0.5747
19386TIP3    H279650   1.317   0.506   0.820 -0.2719 -0.9052 -1.2018
19387TIP3   OH279651   5.079   0.567  11.699 -0.1425  0.2861 -0.3880
19387TIP3    H179652   4.984   0.559  11.704 -0.1030 -0.8957 -1.4124
19387TIP3    H279653   5.109   0.487  11.656  1.4204  0.1374  0.8683
19388TIP3   OH279654   2.571   3.820   1.850  0.2680 -0.2284 -0.5981
19388TIP3    H179655   2.651   3.842   1.898  0.5107 -0.2900 -0.9778
19388TIP3    H279656   2.534   3.906   1.826 -0.8975 -0.1013  1.3808
19389TIP3   OH279657   2.313   1.609  17.253 -0.4385  0.3841 -0.0677
19389TIP3    H179658   2.379   1.567  17.197  0.5928  3.0109 -0.9767
19389TIP3    H279659   2.286   1.540  17.314  1.2694 -1.4955 -1.3046
19390TIP3   OH279660   1.280   1.646  15.425  0.0470 -0.5436  0.1957
19390TIP3    H179661   1.320   1.722  15.466  1.0811 -0.7274 -0.4462
19390TIP3    H279662   1.269   1.672  15.333 -0.1670 -0.9459  0.1055
19391TIP3   OH279663   2.355   3.646   3.550  0.2580 -0.5534 -0.7905
19391TIP3    H179664   2.410   3.723   3.565  0.0543  0.0785 -2.9541
19391TIP3    H279665   2.280   3.659   3.607  1.2812 -0.3350  0.5730
19392TIP3   OH279666   1.109   1.050   5.446  0.1039  0.2201  0.4150
19392TIP3    H179667   1.042   1.027   5.380  0.2304  1.9544 -0.3707
19392TIP3    H279668   1.152   1.127   5.410  1.7373 -0.1537  1.4931
19393TIP3   OH279669   0.146   2.033  14.986 -0.0149  0.4474  0.0963
19393TIP3    H179670   0.173   1.961  14.928 -0.6901 -0.3823  0.7937
19393TIP3    H279671   0.070   2.071  14.942  1.1064  1.6204 -0.9423
19394TIP3   OH279672   1.719   0.996  13.242 -0.4502  0.1158 -0.4827
19394TIP3    H179673   1.644   0.968  13.189 -1.3595 -1.5665  1.5497
19394TIP3    H279674   1.787   0.932  13.223  0.2462  1.1614 -1.6898
19395TIP3   OH279675   0.685   1.498  11.049 -0.1940  0.0329  0.0860
19395TIP3    H179676   0.739   1.521  10.974  0.4565 -0.5476  0.3557
19395TIP3    H279677   0.646   1.414  11.026  0.3416 -0.3568  0.5453
19396TIP3   OH279678   4.885   1.485   2.854 -0.5712  0.6828  0.3540
19396TIP3    H179679   4.827   1.561   2.857 -1.5181 -0.0397  0.8846
19396TIP3    H279680   4.935   1.489   2.935 -0.6299  0.7272  0.3879
19397TIP3   OH279681   1.258   5.007   5.109 -0.0717  0.0161 -0.2237
19397TIP3    H179682   1.227   4.916   5.113 -0.6028  0.1763 -0.6435
19397TIP3    H279683   1.252   5.038   5.199 -1.0360  0.0024 -0.2707
19398TIP3   OH279684   5.610   3.507   1.864  1.1416 -0.7722  0.9089
19398TIP3    H179685   5.594   3.539   1.953  1.1758  0.9793  0.3229
19398TIP3    H279686   5.564   3.569   1.808  1.5773 -1.5346 -0.3340
19399TIP3   OH279687   1.183   2.539   2.634 -0.2224  0.0165 -0.5589
19399TIP3    H179688   1.142   2.455   2.613 -0.2358 -0.3612  0.9284
19399TIP3    H279689   1.252   2.518   2.695 -0.3285  1.1124 -0.0365
19400TIP3   OH279690   6.544   2.430   6.002 -0.4665  0.0216 -0.0529
19400TIP3    H179691   6.535   2.343   6.040 -1.2508  0.6060  1.1683
19400TIP3    H279692   6.500   2.488   6.065  2.9879  1.7808  0.9799
19401TIP3   OH279693   3.704   2.633  11.119  0.1533 -0.4454 -0.4306
19401TIP3    H179694   3.632   2.597  11.068  0.5679 -2.6592  0.4566
19401TIP3    H279695   3.667   2.647  11.207  0.5015 -0.4712 -0.2773
19402TIP3   OH279696   6.195   3.233  13.891  0.1071 -1.0385  0.3695
19402TIP3    H179697   6.244   3.200  13.966  0.0905 -0.2085  0.7589
19402TIP3    H279698   6.262   3.255  13.826  0.2473 -0.1206  0.8139
19403TIP3   OH279699   4.068   5.519  17.146 -0.0346 -0.5064  0.2299
19403TIP3    H179700   3.979   5.552  17.161  0.8749  1.6826  1.3703
19403TIP3    H279701   4.085   5.537  17.054  0.0145  1.2993  0.5542
19404TIP3   OH279702   3.331   0.885   1.585  0.4221  0.3464  0.3565
19404TIP3    H179703   3.358   0.793   1.583  1.9787  0.7482  1.0490
19404TIP3    H279704   3.239   0.883   1.613  0.0838 -1.0378 -0.7629
19405TIP3   OH279705   5.882   4.744  15.952 -0.4918  0.4374 -0.1522
19405TIP3    H179706   5.912   4.665  15.907 -1.9550  0.6397 -1.5840
19405TIP3    H279707   5.820   4.712  16.018  0.5193  0.2524  0.7268
19406TIP3   OH279708   0.286   0.884  14.839  0.0344  0.6449 -0.0182
19406TIP3    H179709   0.196   0.893  14.810 -0.1446  1.4332  0.7184
19406TIP3    H279710   0.288   0.801  14.886 -0.4582  0.8924  0.4561
19407TIP3   OH279711   5.756   4.840   2.340  0.5529 -0.3173  0.1219
19407TIP3    H179712   5.749   4.891   2.259 -0.0430 -0.1916  0.2520
19407TIP3    H279713   5.832   4.878   2.385 -0.0056  0.5908  0.3117
19408TIP3   OH279714   4.022   2.360   3.272 -0.3274 -0.2585  0.0883
19408TIP3    H179715   4.028   2.382   3.365 -0.8438  1.6992 -0.2973
19408TIP3    H279716   4.104   2.390   3.235 -0.4990 -0.2028 -0.2471
19409TIP3   OH279717   2.655   5.847  15.612  0.1595  0.2808  0.9878
19409TIP3    H179718   2.649   5.767  15.664 -0.8023 -0.4823 -0.2178
19409TIP3    H279719   2.581   5.901  15.641  0.8562  0.7794  1.8571
19410TIP3   OH279720   1.961   5.659  14.825 -0.2737 -0.0983 -0.2281
19410TIP3    H179721   2.008   5.636  14.745  0.7184  1.1108 -0.0331
19410TIP3    H279722   1.916   5.740  14.803 -0.3755 -0.0135  0.2854
19411TIP3   OH279723   0.800   1.148  14.196 -0.1381 -0.4153 -0.6410
19411TIP3    H179724   0.890   1.116  14.191 -0.1934 -0.4329 -1.8919
19411TIP3    H279725   0.750   1.086  14.144 -1.2023 -1.3861  1.4031
19412TIP3   OH279726   5.010   1.085  12.402 -0.0670  0.0146  0.3288
19412TIP3    H179727   5.005   1.009  12.460  0.4472 -1.5512 -1.5445
19412TIP3    H279728   5.096   1.077  12.359 -0.0960  1.5421 -0.0789
19413TIP3   OH279729   1.842   3.074   2.503 -0.5864  0.4036 -0.1766
19413TIP3    H179730   1.800   3.066   2.417  1.2978 -2.7396 -0.9831
19413TIP3    H279731   1.774   3.052   2.566 -1.5020  0.8188 -1.0049
19414TIP3   OH279732   4.074   3.721   2.185  0.4006 -0.1464  0.0735
19414TIP3    H179733   4.101   3.684   2.101 -1.5321 -0.9762 -0.2385
19414TIP3    H279734   4.116   3.807   2.188  1.1548 -0.4400 -1.3669
19415TIP3   OH279735   1.363   1.712  14.896  0.5189  0.0592 -0.4465
19415TIP3    H179736   1.277   1.729  14.858 -0.6983  0.4082  2.2991
19415TIP3    H279737   1.405   1.798  14.898  0.5201  0.0691 -0.7585
19416TIP3   OH279738   0.530   4.628  10.985  0.7583 -0.5049  0.4886
19416TIP3    H179739   0.608   4.671  10.950  0.0512 -0.1917 -0.7809
19416TIP3    H279740   0.540   4.536  10.960  0.5261 -0.3820 -0.0945
19417TIP3   OH279741   1.065   0.255   3.989 -0.1572  0.6016  0.7136
19417TIP3    H179742   1.110   0.245   4.073  0.2079 -1.8348  0.2971
19417TIP3    H279743   0.972   0.244   4.010 -0.0269 -0.5084  0.7591
19418TIP3   OH279744   2.436   6.375  13.170 -0.2970  0.3824 -0.3002
19418TIP3    H179745   2.433   6.370  13.074  0.0024  0.6976 -0.3272
19418TIP3    H279746   2.429   6.468  13.190  1.0661  0.4552 -0.0725
19419TIP3   OH279747   6.597   3.836  16.472  0.3500  0.2077 -0.5804
19419TIP3    H179748   6.644   3.784  16.406 -1.0868  0.0746 -1.5530
19419TIP3    H279749   6.523   3.780  16.498 -1.7034  1.9814 -2.2342
19420TIP3   OH279750   0.329   0.901  13.530 -0.1940 -0.2679  0.0544
19420TIP3    H179751   0.368   0.985  13.555 -0.6272 -0.1756  0.4312
19420TIP3    H279752   0.365   0.838  13.592 -0.2136 -0.2811  0.0528
19421TIP3   OH279753   5.891   6.644  12.648  0.1176  0.1458  0.3946
19421TIP3    H179754   5.838   6.655  12.568  0.7991  0.3013 -0.0459
19421TIP3    H279755   5.853   6.706  12.710 -0.5612 -0.1342  0.2626
19422TIP3   OH279756   2.855   4.975   0.049  0.2051 -0.2576  0.2383
19422TIP3    H179757   2.935   4.972   0.102 -1.0210  0.9251  2.2853
19422TIP3    H279758   2.828   4.884   0.042  0.8936 -0.5295  0.9236
19423TIP3   OH279759   3.876   3.119   3.161  0.5547 -0.2866 -0.2313
19423TIP3    H179760   3.886   3.118   3.256  0.7359 -0.0578 -0.2453
19423TIP3    H279761   3.966   3.119   3.128  0.5705  1.8721 -0.3675
19424TIP3   OH279762   4.803   4.753  12.908  0.2263  0.2886  0.0537
19424TIP3    H179763   4.779   4.664  12.882  2.0514 -0.0669 -0.5667
19424TIP3    H279764   4.737   4.809  12.867 -0.3012 -0.6974 -0.4885
19425TIP3   OH279765   5.232   2.436  15.887  0.1054 -0.4273 -0.1061
19425TIP3    H179766   5.312   2.459  15.840 -0.2156  0.7839 -0.0827
19425TIP3    H279767   5.204   2.353  15.848  0.4790 -0.0319 -1.2482
19426TIP3   OH279768   6.217   5.039  12.816  0.2014 -0.4084  0.1599
19426TIP3    H179769   6.215   5.131  12.842  0.3922 -0.5198  0.5770
19426TIP3    H279770   6.139   5.028  12.761 -0.9467 -0.4629  1.7055
19427TIP3   OH279771   4.955   1.772  11.045  0.3663 -0.2865 -0.2175
19427TIP3    H179772   4.968   1.682  11.075  0.8518  0.4402  1.8794
19427TIP3    H279773   4.956   1.765  10.949  1.5721 -2.3475 -0.1182
19428TIP3   OH279774   0.276   3.452   3.689 -0.4249  0.6010  0.4638
19428TIP3    H179775   0.343   3.462   3.756  0.1701  1.4614 -0.2409
19428TIP3    H279776   0.203   3.507   3.718 -1.1609 -0.8823  1.5917
19429TIP3   OH279777   6.785   3.484  12.886  0.2498 -0.0995 -0.0208
19429TIP3    H179778   6.704   3.433  12.897 -0.7072  1.5681  1.1637
19429TIP3    H279779   6.782   3.549  12.956  1.3775  1.6269 -1.4875
19430TIP3   OH279780   2.309   3.001   5.560  0.5873  0.0734 -0.5701
19430TIP3    H179781   2.213   3.004   5.564  0.6290  0.9051  1.8344
19430TIP3    H279782   2.329   2.912   5.533 -0.8409  0.5029 -3.3793
19431TIP3   OH279783   2.253   1.588   0.858 -0.5573  0.0911 -0.0266
19431TIP3    H179784   2.292   1.553   0.778 -0.4052 -1.2350  0.6166
19431TIP3    H279785   2.163   1.558   0.856 -0.5248 -0.0330  0.3565
19432TIP3   OH279786   6.573   1.122  16.553 -0.4700  0.0697  0.2864
19432TIP3    H179787   6.517   1.052  16.520 -0.6261  0.4472 -0.2561
19432TIP3    H279788   6.513   1.183  16.597 -0.1175 -1.1436  2.5993
19433TIP3   OH279789   4.744   0.685  16.183 -0.5217 -0.4134  0.0152
19433TIP3    H179790   4.681   0.653  16.118 -0.6214  0.5128 -0.3514
19433TIP3    H279791   4.785   0.760  16.142 -0.5233  0.1398  0.9984
19434TIP3   OH279792   3.100   1.674  10.834  0.0536 -0.1028  0.8575
19434TIP3    H179793   3.099   1.584  10.867  1.2609 -0.9589 -1.2612
19434TIP3    H279794   3.019   1.682  10.785  0.3846 -0.3702  0.2582
19435TIP3   OH279795   0.976   0.215   1.278 -0.6799  0.2416  0.4080
19435TIP3    H179796   0.962   0.307   1.298  1.3177  0.6140  0.2734
19435TIP3    H279797   0.984   0.173   1.364  1.7313  0.8006  0.5171
19436TIP3   OH279798   0.024   2.960   2.783  0.0228 -0.6906 -0.1857
19436TIP3    H179799  -0.028   2.927   2.856  0.0019  0.0959  0.1599
19436TIP3    H279800   0.027   3.054   2.796  0.2264 -0.5642 -1.0664
19437TIP3   OH279801   3.888   2.002   5.660 -0.4711  0.2361 -0.1803
19437TIP3    H179802   3.860   1.954   5.738 -0.3718 -0.7811 -0.7508
19437TIP3    H279803   3.807   2.042   5.627 -0.6112  0.2095  0.1258
19438TIP3   OH279804   1.093   1.684   2.037  0.7747  0.2457  0.2041
19438TIP3    H179805   1.165   1.711   1.980 -0.5906 -0.4209 -1.9369
19438TIP3    H279806   1.026   1.652   1.978 -2.1443  2.6583  1.9128
19439TIP3   OH279807   1.786   4.125  11.800  0.3422 -0.3059 -0.5188
19439TIP3    H179808   1.752   4.155  11.716  0.8966  0.0484 -0.6202
19439TIP3    H279809   1.707   4.105  11.852  0.0063 -0.9605 -1.2676
19440TIP3   OH279810   2.762   6.006  13.160  0.1224 -0.4087 -0.0275
19440TIP3    H179811   2.784   6.069  13.091 -0.6866 -0.9067 -0.7571
19440TIP3    H279812   2.697   6.051  13.214  0.6166 -0.0895  0.3123
19441TIP3   OH279813   5.415   2.462   4.335  0.3330  0.0448 -0.1537
19441TIP3    H179814   5.427   2.388   4.395 -0.1313  0.5461  0.5672
19441TIP3    H279815   5.333   2.502   4.362  1.3739  1.8043  0.5100
19442TIP3   OH279816   1.126   6.715  16.671 -0.2772  0.2465  0.1861
19442TIP3    H179817   1.153   6.804  16.648  0.3067  0.1119  0.3152
19442TIP3    H279818   1.204   6.676  16.711 -0.7079 -0.1304  0.6746
19443TIP3   OH279819   0.071   1.079  11.454  0.3667 -0.3680 -0.1973
19443TIP3    H179820   0.038   0.990  11.469 -1.5652  0.3559  0.1282
19443TIP3    H279821   0.163   1.075  11.479  0.1701 -2.1389  0.3694
19444TIP3   OH279822   0.313   3.380  12.398 -0.1569 -0.0822 -0.0267
19444TIP3    H179823   0.354   3.429  12.469  0.4707  0.7575 -0.9420
19444TIP3    H279824   0.382   3.322  12.365  0.1837  1.0024 -1.2724
19445TIP3   OH279825   0.925   4.449  14.819  0.5632  0.2412  0.1951
19445TIP3    H179826   0.941   4.407  14.735 -2.5297 -0.5130 -0.1238
19445TIP3    H279827   0.996   4.417  14.875  0.4769 -2.4496 -1.0691
19446TIP3   OH279828   5.972   4.583   1.486 -0.4219  0.1744 -0.1526
19446TIP3    H179829   5.935   4.498   1.464 -1.5644  0.7621 -0.6126
19446TIP3    H279830   6.024   4.567   1.565  1.9210 -1.5371 -1.9137
19447TIP3   OH279831   2.530   2.146  15.132  0.1364 -0.6422 -0.4131
19447TIP3    H179832   2.576   2.112  15.055 -0.6653 -2.7294 -0.0528
19447TIP3    H279833   2.546   2.240  15.131  4.3097 -1.1453 -0.4082
19448TIP3   OH279834   3.059   0.200   6.582 -0.1066  0.5665  0.1609
19448TIP3    H179835   3.097   0.273   6.534  0.6685  0.8910  1.2401
19448TIP3    H279836   2.970   0.193   6.548 -0.0263  1.6736 -0.3108
19449TIP3   OH279837   5.690   4.314  14.887  0.5258  0.5210  0.3564
19449TIP3    H179838   5.711   4.391  14.835  2.5815  0.8838  1.5965
19449TIP3    H279839   5.693   4.345  14.978 -0.3718 -0.6590  0.8218
19450TIP3   OH279840   3.119   3.445   0.861  0.3200  0.5328 -0.3698
19450TIP3    H179841   3.123   3.364   0.810  1.6344 -0.3262  1.0033
19450TIP3    H279842   3.050   3.429   0.925  0.1403  0.7674 -0.5025
19451TIP3   OH279843   5.144   6.555   0.415 -0.2384 -0.0033  0.0437
19451TIP3    H179844   5.095   6.552   0.497  0.1926  1.9062  0.4055
19451TIP3    H279845   5.182   6.467   0.407 -1.1525 -0.5447  1.3347
19452TIP3   OH279846   1.677   5.970   5.411 -0.2808 -0.2862 -0.5275
19452TIP3    H179847   1.729   6.050   5.410  0.2781 -0.6366 -0.2571
19452TIP3    H279848   1.608   5.987   5.475 -0.4187  0.1326 -0.7860
19453TIP3   OH279849   5.065   6.015  12.258 -0.2844 -0.2091 -0.1944
19453TIP3    H179850   5.047   5.926  12.229 -1.0838  0.6286 -2.4092
19453TIP3    H279851   5.131   6.048  12.196 -1.4355  1.3704 -0.6300
19454TIP3   OH279852   1.363   2.724   5.661 -0.6839  0.2939  1.0850
19454TIP3    H179853   1.295   2.660   5.641 -0.1955 -0.0804  0.5810
19454TIP3    H279854   1.316   2.798   5.699 -1.1945 -0.6054  2.2694
19455TIP3   OH279855   5.322   3.882  12.081 -0.3097 -0.4110  0.2437
19455TIP3    H179856   5.272   3.964  12.090  0.1045 -0.2417  1.1108
19455TIP3    H279857   5.276   3.819  12.136 -0.5089 -0.7160 -0.2612
19456TIP3   OH279858   0.545   2.596  15.666 -0.3604  0.0949  0.5822
19456TIP3    H179859   0.458   2.629  15.691 -0.6058 -1.4393  1.9017
19456TIP3    H279860   0.577   2.660  15.602 -2.5629  0.5560 -0.1498
19457TIP3   OH279861   2.578   3.371   3.465 -0.1603  0.3072  0.6524
19457TIP3    H179862   2.649   3.433   3.479  0.5126 -0.5082  0.9510
19457TIP3    H279863   2.568   3.367   3.370  0.1955  0.4249  0.6080
19458TIP3   OH279864   5.504   6.393   4.661 -0.0109  0.6544 -0.1686
19458TIP3    H179865   5.531   6.320   4.606  1.5646 -1.1450  2.7465
19458TIP3    H279866   5.534   6.471   4.615  0.4391 -0.6723 -2.2152
19459TIP3   OH279867   0.727   5.952   2.804  0.2443  0.0547 -0.4383
19459TIP3    H179868   0.697   5.964   2.894  0.6567  0.7824 -0.3881
19459TIP3    H279869   0.771   6.034   2.782  1.2018 -0.5610 -0.8887
19460TIP3   OH279870   2.281   5.759  12.529  0.4092  0.2007 -0.3598
19460TIP3    H179871   2.273   5.708  12.610 -0.6271 -0.3791 -0.8104
19460TIP3    H279872   2.333   5.705  12.471  0.5287  0.2921 -0.3382
19461TIP3   OH279873   2.157   2.899   5.035  0.1526 -0.2384  0.6074
19461TIP3    H179874   2.200   2.983   5.052 -0.6617  0.7241 -1.7015
19461TIP3    H279875   2.072   2.906   5.080 -1.3776  1.6788 -2.2795
19462TIP3   OH279876   5.493   3.047  17.010 -0.6029  0.3238 -0.2835
19462TIP3    H179877   5.493   3.138  17.037 -0.7655  1.1156 -2.6666
19462TIP3    H279878   5.549   3.002  17.073 -2.1097  1.6266  2.1392
19463TIP3   OH279879   2.082   2.071   5.794 -0.4897 -0.1137 -0.1549
19463TIP3    H179880   2.121   2.036   5.874  0.4193 -0.3690 -0.6967
19463TIP3    H279881   2.105   2.164   5.796 -1.0936  0.0364  0.2299
19464TIP3   OH279882   2.616   6.540   2.874 -0.4254 -0.5311  0.3464
19464TIP3    H179883   2.649   6.457   2.908 -1.2978 -0.5562  1.1915
19464TIP3    H279884   2.521   6.534   2.885 -0.6436 -0.0637 -1.0808
19465TIP3   OH279885   2.663   5.075   6.350  0.1993  0.0775  0.1423
19465TIP3    H179886   2.684   5.169   6.351  0.9679 -0.0721  1.9219
19465TIP3    H279887   2.593   5.066   6.415  0.8376 -0.7218  0.7251
19466TIP3   OH279888   0.288   5.154   6.085  0.3035  0.2505 -0.2855
19466TIP3    H179889   0.384   5.143   6.087  0.2456 -0.2249  0.5146
19466TIP3    H279890   0.268   5.199   6.167 -0.0442  1.5099 -1.0422
19467TIP3   OH279891   2.547   3.009  11.661  0.0090 -0.8161 -0.7977
19467TIP3    H179892   2.520   3.098  11.682  1.3380 -0.7773  1.0372
19467TIP3    H279893   2.503   2.954  11.727 -0.3520 -1.4672 -1.5576
19468TIP3   OH279894   6.152   5.409  16.356 -0.3955 -0.2669 -0.1793
19468TIP3    H179895   6.165   5.317  16.375 -2.0760 -0.1018  2.1720
19468TIP3    H279896   6.113   5.410  16.268 -0.1670 -1.7439 -0.3203
19469TIP3   OH279897   1.302   6.519  14.270  0.5896 -0.4042  0.0831
19469TIP3    H179898   1.396   6.505  14.261  0.6267 -0.5821  0.7418
19469TIP3    H279899   1.263   6.459  14.206  0.9201 -0.3076 -0.2139
19470TIP3   OH279900   0.034   3.170  16.504 -0.3802 -0.0648 -0.1748
19470TIP3    H179901   0.012   3.097  16.562  1.3674  0.2933  1.0130
19470TIP3    H279902   0.076   3.129  16.428  0.6642 -0.3080  0.5240
19471TIP3   OH279903   0.513   2.141  13.818 -0.1024 -0.3822 -0.0918
19471TIP3    H179904   0.567   2.184  13.751  1.1352  0.3384  1.3249
19471TIP3    H279905   0.535   2.048  13.811  1.5757 -0.0767  0.6340
19472TIP3   OH279906   2.078   1.038   4.581 -0.6078 -0.8204 -0.4606
19472TIP3    H179907   2.166   1.042   4.543  0.0389  0.1227  1.0284
19472TIP3    H279908   2.089   0.985   4.660 -1.4351 -0.9023 -0.3962
19473TIP3   OH279909   5.699   2.580   4.796  0.0204  0.5624  0.0726
19473TIP3    H179910   5.782   2.534   4.780 -0.2180  0.1870 -0.1284
19473TIP3    H279911   5.692   2.586   4.891 -1.4187 -2.6683  0.3077
19474TIP3   OH279912   0.217   6.234   1.794 -0.3017 -0.1884  0.5679
19474TIP3    H179913   0.274   6.235   1.872 -0.8720  0.9731  0.9882
19474TIP3    H279914   0.179   6.322   1.791 -1.8012 -0.8242  0.0845
19475TIP3   OH279915   6.690   4.405  15.980  0.5599 -0.7263 -0.3900
19475TIP3    H179916   6.639   4.334  16.019 -2.9235  1.7046 -0.0884
19475TIP3    H279917   6.649   4.420  15.895  0.7237  1.3591 -0.1469
19476TIP3   OH279918   0.030   3.873  15.123 -0.1762 -0.2928 -0.2067
19476TIP3    H179919   0.016   3.958  15.081 -1.0302 -0.1048  0.4431
19476TIP3    H279920  -0.058   3.840  15.140  0.1482 -1.2986 -0.4217
19477TIP3   OH279921   1.830   4.882   3.815  0.2797 -0.0593 -0.3792
19477TIP3    H179922   1.911   4.921   3.783  0.2177 -0.3676 -0.9430
19477TIP3    H279923   1.858   4.808   3.869  0.3850  0.2408 -0.0277
19478TIP3   OH279924   1.532   6.037  11.351 -0.2357  0.4325 -0.1077
19478TIP3    H179925   1.491   6.038  11.264  0.5999 -0.0419 -0.5157
19478TIP3    H279926   1.495   6.114  11.395 -1.7952 -0.1330 -0.3408
19479TIP3   OH279927   4.013   5.100  14.046  0.0566 -0.0348  0.2420
19479TIP3    H179928   4.002   5.006  14.029  1.7582 -0.4026  0.9899
19479TIP3    H279929   4.087   5.105  14.105 -1.0147  1.7112  1.5123
19480TIP3   OH279930   3.371   3.348   1.034  0.1605  0.0937 -0.1266
19480TIP3    H179931   3.282   3.342   1.001 -0.5830 -0.4881  1.8777
19480TIP3    H279932   3.385   3.266   1.080  1.5785  0.3779 -0.0012
19481TIP3   OH279933   6.390   0.744  11.488  0.1031 -0.3561  0.0899
19481TIP3    H179934   6.358   0.752  11.578 -1.6207  0.6496 -0.5818
19481TIP3    H279935   6.331   0.680  11.447 -1.0262  1.3753 -1.1134
19482TIP3   OH279936   6.114   1.127   2.178 -0.2363 -0.2983 -0.1461
19482TIP3    H179937   6.067   1.090   2.253 -0.8843 -0.0614 -0.4199
19482TIP3    H279938   6.046   1.136   2.110  0.0950  0.5588 -0.3780
19483TIP3   OH279939   6.026   0.057  15.547  0.3050  0.2561  0.5697
19483TIP3    H179940   6.012   0.055  15.452  2.4130  0.8051  0.2061
19483TIP3    H279941   6.120   0.066  15.557  0.0513  0.9418  2.7361
19484TIP3   OH279942   4.933   3.851   4.528  0.3457  0.1952  0.2807
19484TIP3    H179943   4.954   3.777   4.584  0.0066  0.4172  0.7075
19484TIP3    H279944   4.963   3.928   4.577 -1.6319  0.5480  1.0456
19485TIP3   OH279945   3.391   6.655  13.330  0.2671 -0.1203 -0.2194
19485TIP3    H179946   3.302   6.685  13.313  0.2789  0.1239  0.1365
19485TIP3    H279947   3.437   6.668  13.247 -0.0020 -0.1607 -0.3772
19486TIP3   OH279948   5.646   4.737   0.824 -0.1485 -0.3474 -0.0463
19486TIP3    H179949   5.667   4.643   0.820  0.8846 -0.0924 -1.2649
19486TIP3    H279950   5.730   4.781   0.811 -0.3862  0.7924  1.8455
19487TIP3   OH279951   1.787   2.674  14.481  0.4930 -0.5434 -0.1194
19487TIP3    H179952   1.699   2.711  14.466  0.7595  0.3005  0.3089
19487TIP3    H279953   1.785   2.646  14.573  1.5149  1.9995  0.7558
19488TIP3   OH279954   6.633   0.024  14.103  0.3429 -0.1575 -0.0859
19488TIP3    H179955   6.609   0.064  14.020  0.3691  0.6875  0.3112
19488TIP3    H279956   6.581  -0.057  14.106  0.9274 -0.6105 -1.2721
19489TIP3   OH279957   2.483   0.320  10.943  0.1689  0.4427 -0.2883
19489TIP3    H179958   2.517   0.403  10.975  1.9605 -0.6134  0.7530
19489TIP3    H279959   2.425   0.289  11.013 -1.5905  1.3980 -1.2686
19490TIP3   OH279960   0.960   5.884   5.888  0.1402  0.0528  0.2932
19490TIP3    H179961   0.948   5.871   5.794 -0.4383  1.1695  0.1978
19490TIP3    H279962   0.892   5.830   5.928  0.5822 -0.6663  0.0936
19491TIP3   OH279963   1.047   2.657   5.224 -0.3239  0.5791  0.0916
19491TIP3    H179964   1.011   2.708   5.151 -1.8623 -0.4891  0.0583
19491TIP3    H279965   1.083   2.723   5.284 -1.1654  1.6128 -0.5060
19492TIP3   OH279966   3.415   6.253  12.414  0.2919  0.4343  0.0841
19492TIP3    H179967   3.450   6.252  12.325 -0.5278 -0.2899 -0.2458
19492TIP3    H279968   3.445   6.335  12.451  2.7570 -0.3521 -0.0096
19493TIP3   OH279969   1.517   0.680   2.839 -0.0311 -0.0245 -0.1900
19493TIP3    H179970   1.575   0.670   2.763 -0.0354  2.3533 -0.5833
19493TIP3    H279971   1.572   0.723   2.905 -0.5967 -0.2636  0.4498
19494TIP3   OH279972   5.446   6.581  12.480  0.3325 -0.4096  0.5766
19494TIP3    H179973   5.463   6.487  12.487  3.6724  0.1767  2.0213
19494TIP3    H279974   5.358   6.586  12.441  0.6831 -4.0764 -1.1281
19495TIP3   OH279975   6.762   6.424   4.911  0.0306 -0.3924  0.3092
19495TIP3    H179976   6.736   6.479   4.985  0.8567  0.0289  0.3026
19495TIP3    H279977   6.697   6.355   4.908 -0.9833  0.5399  0.3801
19496TIP3   OH279978   6.638   1.409  14.614 -0.9677  0.0526  0.1689
19496TIP3    H179979   6.696   1.369  14.678 -1.2040  0.5549  0.7052
19496TIP3    H279980   6.613   1.337  14.556  1.5366  0.1467 -1.1398
19497TIP3   OH279981   0.919   1.220   1.874  0.9036  0.9084 -0.1144
19497TIP3    H179982   1.009   1.223   1.908  0.4661  1.1570  1.0756
19497TIP3    H279983   0.875   1.294   1.916 -0.0799  0.2867 -0.0260
19498TIP3   OH279984   4.713   4.059   0.378  0.0422 -0.0141  0.8635
19498TIP3    H179985   4.794   4.058   0.428  0.0390  0.2883  0.8751
19498TIP3    H279986   4.740   4.078   0.288 -0.0661  0.6342  0.9636
19499TIP3   OH279987   1.893   5.592   5.730 -0.7603  0.1045 -0.0565
19499TIP3    H179988   1.857   5.637   5.807  0.0975  0.2722  0.2573
19499TIP3    H279989   1.913   5.662   5.668  0.0574  0.1267  0.2148
19500TIP3   OH279990   0.433   5.949   4.714 -0.2884 -0.2604  0.1774
19500TIP3    H179991   0.469   5.862   4.698  1.9474  0.5756  0.3208
19500TIP3    H279992   0.412   5.982   4.627 -1.4963 -1.0421  0.1471
19501TIP3   OH279993   3.183   1.644   4.958 -0.0635  0.3138 -0.5279
19501TIP3    H179994   3.157   1.624   5.048 -1.3140  0.9464 -0.7185
19501TIP3    H279995   3.100   1.654   4.911  0.5044  2.2632 -1.2280
19502TIP3   OH279996   5.880   5.393   5.218  0.6302 -0.0323  0.3968
19502TIP3    H179997   5.933   5.472   5.205  2.7405 -1.6880 -2.0399
19502TIP3    H279998   5.803   5.423   5.266  0.4214  3.8837 -1.9835
19503TIP3   OH279999   4.878   1.209  16.992 -0.6700 -1.0792  0.0348
19503TIP3    H180000   4.949   1.167  16.944 -0.1846 -0.8339  0.5370
19503TIP3    H280001   4.856   1.286  16.939 -1.9299 -2.2071 -1.1840
19504TIP3   OH280002   6.778   6.018  12.120 -0.1903 -0.7348 -0.3154
19504TIP3    H180003   6.740   6.082  12.181  1.2267 -0.9540  0.8360
19504TIP3    H280004   6.861   6.058  12.093  0.0489 -1.4664 -0.6678
19505TIP3   OH280005   0.387   5.130   4.434  0.2113  0.0143  0.2557
19505TIP3    H180006   0.433   5.072   4.374 -0.9292  0.8604 -1.4958
19505TIP3    H280007   0.296   5.101   4.433 -0.0804  0.8741  0.5456
19506TIP3   OH280008   2.719   1.551  13.790 -0.4041  0.7599 -0.1039
19506TIP3    H180009   2.763   1.595  13.717 -0.4621  0.8979 -0.0576
19506TIP3    H280010   2.637   1.600  13.800 -1.6701 -0.8716 -1.6938
19507TIP3   OH280011   2.802   5.835   4.544  0.3300 -0.2398  0.3720
19507TIP3    H180012   2.786   5.929   4.559  0.5986  0.0040 -0.7639
19507TIP3    H280013   2.847   5.832   4.459  0.0590 -1.4174  0.2562
19508TIP3   OH280014   4.436   1.622  16.101 -0.4414 -0.0673  0.9886
19508TIP3    H180015   4.467   1.538  16.067 -1.1720  0.0712 -0.0643
19508TIP3    H280016   4.383   1.598  16.177 -1.9447 -0.7148 -0.2181
19509TIP3   OH280017   5.441   2.270   1.069 -0.2733  0.0262 -0.5983
19509TIP3    H180018   5.455   2.358   1.105 -1.5918 -0.3777  1.0460
19509TIP3    H280019   5.495   2.267   0.990  1.0537  1.7549  0.1731
19510TIP3   OH280020   3.598   1.071  11.436 -0.2952 -0.2626 -0.1026
19510TIP3    H180021   3.506   1.086  11.418 -0.0421 -0.3671 -1.6220
19510TIP3    H280022   3.636   1.158  11.444 -0.5386 -0.2199  0.6950
19511TIP3   OH280023   2.721   0.860  11.640 -0.3864  0.6627 -0.3013
19511TIP3    H180024   2.681   0.782  11.601 -0.9412  1.4361 -1.3171
19511TIP3    H280025   2.698   0.931  11.581  1.9338  1.2615 -0.5899
19512TIP3   OH280026   1.068   4.401   3.795  0.0747  0.2202  0.3809
19512TIP3    H180027   1.128   4.408   3.721 -0.5302  1.2189 -0.0383
19512TIP3    H280028   1.020   4.484   3.795 -0.3406 -0.0007  1.5416
19513TIP3   OH280029   5.475   6.536   6.221  0.2325 -0.0209  0.7808
19513TIP3    H180030   5.522   6.453   6.213 -0.1844 -0.3454  1.5615
19513TIP3    H280031   5.414   6.536   6.147  0.8600  0.0194  0.2516
19514TIP3   OH280032   5.372   0.962  16.760 -0.1644  0.0495 -0.7966
19514TIP3    H180033   5.376   1.049  16.801  0.1961  0.0538 -0.8401
19514TIP3    H280034   5.458   0.949  16.722 -0.3748 -0.1208 -1.2240
19515TIP3   OH280035   3.197   0.782  15.795 -0.0798 -0.2134  0.8302
19515TIP3    H180036   3.144   0.811  15.720 -0.3853 -1.5079  0.5230
19515TIP3    H280037   3.273   0.840  15.794 -0.0670 -0.2120 -0.5128
19516TIP3   OH280038   4.225   3.942   5.415  0.0003  0.0099 -0.2199
19516TIP3    H180039   4.276   4.010   5.371 -0.1639 -0.3530 -0.9926
19516TIP3    H280040   4.139   3.946   5.372 -1.2888  1.8488  2.2640
19517TIP3   OH280041   4.388   4.036  11.790 -0.3011  0.0978  0.0803
19517TIP3    H180042   4.307   4.057  11.836 -0.5023  0.5347 -0.4664
19517TIP3    H280043   4.376   4.072  11.702 -0.2237 -1.3264 -0.5586
19518TIP3   OH280044   5.511   3.719  15.780  0.2002 -0.3397  0.4401
19518TIP3    H180045   5.481   3.659  15.848  1.6393 -1.3079  0.2572
19518TIP3    H280046   5.519   3.804  15.825  0.0927 -0.7219  1.2014
19519TIP3   OH280047   5.624   2.740   1.016 -0.3123  0.3227 -0.2936
19519TIP3    H180048   5.629   2.827   1.054  2.1572  0.5070 -0.9017
19519TIP3    H280049   5.605   2.756   0.923  2.4136  0.4424 -0.9151
19520TIP3   OH280050   3.863   2.551   4.653 -0.2978  0.3162 -0.0759
19520TIP3    H180051   3.789   2.612   4.645 -0.1363  0.3675 -1.3250
19520TIP3    H280052   3.867   2.506   4.569  0.2188 -0.7187  0.4756
19521TIP3   OH280053   3.378   4.744   5.213 -0.2483 -0.0817  0.4290
19521TIP3    H180054   3.305   4.757   5.273 -1.6005  1.6444 -1.4660
19521TIP3    H280055   3.413   4.831   5.198  0.4159 -0.5336 -0.8381
19522TIP3   OH280056   3.485   1.614   2.742 -0.1767 -0.4582  0.7627
19522TIP3    H180057   3.564   1.609   2.796 -0.0622 -0.4341  0.5998
19522TIP3    H280058   3.512   1.664   2.665 -0.1334 -1.1005  0.3439
19523TIP3   OH280059   3.209   4.501  13.441 -0.6348  0.2641 -0.0210
19523TIP3    H180060   3.241   4.591  13.448  0.8963 -0.0318 -2.1056
19523TIP3    H280061   3.116   4.506  13.461 -0.5342  2.2764  0.0983
19524TIP3   OH280062   4.577   6.438   4.092  0.1010  0.9860  0.0064
19524TIP3    H180063   4.585   6.523   4.050  1.6862  1.8973  2.0398
19524TIP3    H280064   4.621   6.377   4.033 -1.3662  1.4349 -1.6430
19525TIP3   OH280065   4.490   0.195   4.329  0.2243  0.7772  0.3095
19525TIP3    H180066   4.481   0.130   4.399 -0.5931  1.3697  0.7759
19525TIP3    H280067   4.569   0.168   4.281  0.9895  0.5294  1.6516
19526TIP3   OH280068   0.202   5.712  13.908  0.6696  0.1765  0.4922
19526TIP3    H180069   0.151   5.655  13.965 -0.9976  0.4756 -0.6010
19526TIP3    H280070   0.222   5.658  13.831  0.4278  0.5824  0.1360
19527TIP3   OH280071   3.066   1.996  15.434 -0.4469  0.7213 -0.2718
19527TIP3    H180072   2.979   2.006  15.395 -0.3341  0.0889 -0.6979
19527TIP3    H280073   3.111   1.933  15.377  0.6182  1.7410 -0.5977
19528TIP3   OH280074   3.427   4.465   1.873  0.7500 -0.6396  0.2786
19528TIP3    H180075   3.451   4.415   1.951 -1.4515  0.4727  1.7573
19528TIP3    H280076   3.333   4.481   1.883  0.3951 -0.4364 -2.6211
19529TIP3   OH280077   4.390   3.021   4.613 -0.1108  0.3482 -0.0574
19529TIP3    H180078   4.451   2.952   4.638 -0.7449  0.0608  0.7810
19529TIP3    H280079   4.330   3.027   4.688 -0.1990  1.6610 -0.2114
19530TIP3   OH280080   6.592   4.909   2.176 -0.3191  0.3167 -0.2008
19530TIP3    H180081   6.640   4.969   2.118 -0.1751 -1.6438 -2.2408
19530TIP3    H280082   6.638   4.825   2.166 -0.4582 -0.1875  2.6223
19531TIP3   OH280083   2.964   2.066  13.660 -0.1288  0.1823  0.0628
19531TIP3    H180084   2.899   2.018  13.609 -0.5814 -0.9347  1.6402
19531TIP3    H280085   2.935   2.157  13.657 -1.9206 -0.3241  0.9359
19532TIP3   OH280086   1.726   0.069   4.987  0.1774 -0.3182  0.2364
19532TIP3    H180087   1.704   0.012   5.061 -0.0367 -0.9219 -0.2869
19532TIP3    H280088   1.679   0.032   4.913 -0.8697  1.1757  0.1008
19533TIP3   OH280089   0.332   3.657   1.928 -0.2500  0.0233  0.0648
19533TIP3    H180090   0.337   3.655   1.833 -0.8146 -0.7210  0.0471
19533TIP3    H280091   0.259   3.600   1.950 -0.2581  0.3532  0.9371
19534TIP3   OH280092   2.472   5.289   2.531 -0.0206 -0.4038 -0.0374
19534TIP3    H180093   2.527   5.244   2.596 -0.9293  0.1107  1.1310
19534TIP3    H280094   2.387   5.298   2.574 -0.8885 -0.7308 -1.6193
19535TIP3   OH280095   0.087   3.466  14.867  0.0751 -0.1367  0.0126
19535TIP3    H180096   0.017   3.531  14.872 -1.5916 -1.8385 -0.0497
19535TIP3    H280097   0.131   3.472  14.952 -0.2676  0.8006  0.1407
19536TIP3   OH280098   1.095   0.825   0.916  0.6807  0.4188 -0.1874
19536TIP3    H180099   1.141   0.826   0.832  1.5344  0.1221  0.2665
19536TIP3    H280100   1.027   0.892   0.907  2.5445  2.4279 -0.1376
19537TIP3   OH280101   1.369   0.519   3.308  0.3336 -0.1742 -0.4949
19537TIP3    H180102   1.375   0.613   3.327 -0.6947 -0.1228 -0.3633
19537TIP3    H280103   1.380   0.476   3.393  0.2837 -0.1478 -0.4749
19538TIP3   OH280104   4.898   1.136   6.599 -0.0790 -0.1596 -0.2172
19538TIP3    H180105   4.882   1.228   6.578 -0.9650 -0.4240 -0.7789
19538TIP3    H280106   4.810   1.099   6.612  0.1127 -1.3949 -2.0794
19539TIP3   OH280107   6.783   0.523   3.133 -0.0220  0.0489  0.2422
19539TIP3    H180108   6.856   0.464   3.152 -0.7080 -1.2845 -1.0569
19539TIP3    H280109   6.708   0.483   3.176 -0.3798  0.2552 -0.1769
19540TIP3   OH280110   0.178   3.907   4.624 -0.1581  0.3874  0.2355
19540TIP3    H180111   0.221   3.826   4.651  0.8728  0.8289 -0.0105
19540TIP3    H280112   0.200   3.970   4.692 -0.7126  0.5409  0.2788
19541TIP3   OH280113   6.583   3.241   1.377  0.1745 -0.3258 -0.0350
19541TIP3    H180114   6.649   3.258   1.444  0.1284  0.2425 -0.1311
19541TIP3    H280115   6.553   3.327   1.350  0.7719 -0.5081 -1.3752
19542TIP3   OH280116   0.700   1.913  14.104  0.2686  0.5672 -0.2756
19542TIP3    H180117   0.721   1.941  14.014  0.1955 -0.3221 -0.5755
19542TIP3    H280118   0.665   1.825  14.094  1.3265  0.0187  0.7518
19543TIP3   OH280119   2.702   6.059   5.494  0.0171  0.6379  0.1833
19543TIP3    H180120   2.660   6.009   5.564  1.0415  1.5600  1.5064
19543TIP3    H280121   2.795   6.057   5.517  0.5686 -0.1810 -1.9141
19544TIP3   OH280122   4.766   5.029   2.642  0.1937 -0.0450 -0.2063
19544TIP3    H180123   4.755   5.068   2.556 -1.6795  0.5867  0.2655
19544TIP3    H280124   4.768   4.934   2.625  1.0862  0.1036 -1.0244
19545TIP3   OH280125   2.112   2.908  15.813 -0.3277 -0.2484 -0.2342
19545TIP3    H180126   2.058   2.841  15.771  1.5756 -1.5057 -0.8094
19545TIP3    H280127   2.139   2.870  15.896 -0.0568  0.2257 -0.0973
19546TIP3   OH280128   1.806   2.656  12.497 -0.9716 -0.4777  0.3178
19546TIP3    H180129   1.744   2.644  12.425 -1.3474 -0.8524  0.6937
19546TIP3    H280130   1.873   2.714  12.462 -2.4447  1.3966  0.4565
19547TIP3   OH280131   0.023   4.594   1.532 -0.9218 -0.6343 -0.2541
19547TIP3    H180132  -0.028   4.544   1.469 -0.3778 -0.8083 -0.5621
19547TIP3    H280133   0.112   4.593   1.497 -1.1121  1.6699 -0.9741
19548TIP3   OH280134   2.424   0.174  12.151  0.4341  0.1793 -0.1361
19548TIP3    H180135   2.423   0.164  12.056  1.9976 -0.1395 -0.1441
19548TIP3    H280136   2.456   0.263  12.165 -0.3994  0.4513  0.1006
19549TIP3   OH280137   3.048   4.740  14.250 -0.4809 -0.1310 -0.3180
19549TIP3    H180138   2.984   4.722  14.182 -0.1501 -1.3977 -0.3204
19549TIP3    H280139   2.999   4.733  14.332 -0.6687  0.4610 -0.3691
19550TIP3   OH280140   6.320   1.315   5.233  0.1496  0.3475  0.0975
19550TIP3    H180141   6.401   1.358   5.257  0.9811 -0.4603 -1.1646
19550TIP3    H280142   6.294   1.357   5.151 -1.2124  1.2124  0.9261
19551TIP3   OH280143   5.325   2.195  16.076 -0.1599 -0.2396  0.4211
19551TIP3    H180144   5.261   2.179  16.007  0.3200 -1.6974  0.2716
19551TIP3    H280145   5.391   2.251  16.035  0.5125 -1.7058 -0.5778
19552TIP3   OH280146   6.057   3.174   0.618 -0.5696  0.5367  0.8411
19552TIP3    H180147   6.134   3.159   0.672  0.0910  1.8044  0.2964
19552TIP3    H280148   6.033   3.265   0.634  1.9093  2.3258 -3.6329
19553TIP3   OH280149   3.159   1.806  12.505  0.1358 -0.1410 -0.3656
19553TIP3    H180150   3.204   1.754  12.571 -0.0765  0.3469  0.1756
19553TIP3    H280151   3.173   1.897  12.533 -1.8369  0.0178  0.2895
19554TIP3   OH280152   1.491   5.262   5.402 -0.0819  0.2669  0.7822
19554TIP3    H180153   1.559   5.317   5.362  1.6546 -1.0772  1.7436
19554TIP3    H280154   1.514   5.259   5.495  0.5274 -2.8446  0.6344
19555TIP3   OH280155   4.645   2.582  11.506 -0.3671  0.4580 -0.3758
19555TIP3    H180156   4.671   2.611  11.594 -0.4972  2.6893 -1.0131
19555TIP3    H280157   4.699   2.505  11.489 -0.2500  0.0421  1.5912
19556TIP3   OH280158   5.902   3.531   5.371  0.1751 -0.5390 -0.1463
19556TIP3    H180159   5.852   3.599   5.417  2.0550  0.4286  0.5709
19556TIP3    H280160   5.937   3.575   5.294  0.3742 -1.0605 -0.3564
19557TIP3   OH280161   5.795   6.739   5.613  0.2863  0.3665  0.1921
19557TIP3    H180162   5.797   6.649   5.582  0.6413  0.8106 -1.1385
19557TIP3    H280163   5.878   6.750   5.660  0.4186  0.1239  0.0143
19558TIP3   OH280164   1.753   5.298  16.934  0.1224 -0.3670 -0.1589
19558TIP3    H180165   1.765   5.220  16.989  0.8318  0.6247  1.1615
19558TIP3    H280166   1.664   5.328  16.954 -0.7588 -1.7036 -1.8810
19559TIP3   OH280167   3.835   6.773  16.965 -0.6240 -0.2446  0.1810
19559TIP3    H180168   3.747   6.777  16.928 -0.6068  0.8657  0.2380
19559TIP3    H280169   3.878   6.852  16.934  0.0680 -0.3323  0.8878
19560TIP3   OH280170   6.155   6.187   1.874 -0.4153 -0.3275  0.5339
19560TIP3    H180171   6.129   6.273   1.906 -1.0772  0.2690 -1.5043
19560TIP3    H280172   6.247   6.179   1.900 -0.5727  0.6309  1.4413
19561TIP3   OH280173   0.415   1.502   4.863  0.1106 -0.2126  0.0320
19561TIP3    H180174   0.350   1.500   4.792  1.4368  0.4698 -1.2646
19561TIP3    H280175   0.373   1.550   4.933 -0.3738  1.2996 -1.2363
19562TIP3   OH280176   3.493   3.607   0.831 -0.8836  0.5578  0.1644
19562TIP3    H180177   3.567   3.663   0.811 -1.1954  0.6464 -0.7735
19562TIP3    H280178   3.530   3.533   0.880  0.1200 -0.3178 -1.8203
19563TIP3   OH280179   1.262   0.665  12.069  0.3426 -0.0801 -0.2680
19563TIP3    H180180   1.259   0.622  11.984 -2.7733 -0.1967 -0.2166
19563TIP3    H280181   1.236   0.756  12.052 -1.4926 -0.3865  0.6182
19564TIP3   OH280182   4.259   0.224   0.383 -0.1301  0.0478 -0.2636
19564TIP3    H180183   4.182   0.196   0.433 -0.0735 -1.0540 -0.7670
19564TIP3    H280184   4.322   0.154   0.395  0.8529  0.9904  0.2199
19565TIP3   OH280185   3.509   4.434  16.407 -0.0026 -0.7370 -0.1756
19565TIP3    H180186   3.543   4.376  16.476  1.8111 -0.1600 -0.5271
19565TIP3    H280187   3.494   4.376  16.333 -0.5491 -1.1301  0.2327
19566TIP3   OH280188   0.814   6.010  16.313 -0.1693 -0.5727  0.3815
19566TIP3    H180189   0.775   6.029  16.398  1.9206  1.0124  1.0814
19566TIP3    H280190   0.802   6.090  16.262 -0.1028 -0.9775 -0.2868
19567TIP3   OH280191   3.400   6.101   1.118 -0.3619  0.5158 -0.1350
19567TIP3    H180192   3.317   6.145   1.103 -0.8065 -0.7347 -1.7609
19567TIP3    H280193   3.414   6.050   1.038  2.4106  1.3682 -0.2937
19568TIP3   OH280194   4.925   4.490   5.221 -0.3784 -0.3355  0.1500
19568TIP3    H180195   4.977   4.503   5.142 -1.5077 -1.3343 -0.7893
19568TIP3    H280196   4.861   4.423   5.197 -0.9064 -0.4803  1.8384
19569TIP3   OH280197   1.171   3.296  15.081  0.1439  0.2157 -0.2995
19569TIP3    H180198   1.188   3.221  15.023  0.3078 -0.9362  1.1793
19569TIP3    H280199   1.217   3.369  15.039  4.0420 -1.5025  0.5472
19570TIP3   OH280200   1.931   4.274   0.175  0.0069 -0.6668  0.2192
19570TIP3    H180201   1.897   4.260   0.087 -0.3868 -1.6532  0.5195
19570TIP3    H280202   1.886   4.210   0.230 -0.0411  0.1921  1.2204
19571TIP3   OH280203   3.229   4.353  13.675 -0.0279  0.5443 -0.4355
19571TIP3    H180204   3.273   4.406  13.740  0.3436 -0.1116 -0.1383
19571TIP3    H280205   3.246   4.397  13.592  2.1609 -0.2751 -0.4846
19572TIP3   OH280206   1.780   2.783   1.255  0.2305  0.1570 -0.0411
19572TIP3    H180207   1.709   2.846   1.245  2.8581  3.2645 -0.4837
19572TIP3    H280208   1.832   2.791   1.175  0.5146 -2.9623 -0.3051
19573TIP3   OH280209   4.677   5.543  13.048 -0.4264  0.0165 -0.6801
19573TIP3    H180210   4.643   5.629  13.023 -1.5632 -0.9353 -2.6037
19573TIP3    H280211   4.688   5.496  12.966 -0.5465 -1.9485  0.3655
19574TIP3   OH280212   4.773   4.584   0.008  0.5137  0.1208  0.0352
19574TIP3    H180213   4.834   4.606  -0.062 -2.1984 -0.6800 -2.8464
19574TIP3    H280214   4.725   4.665   0.024  0.1920 -0.0502 -0.0597
19575TIP3   OH280215   3.678   5.849  12.835  0.1800  0.0372 -0.0509
19575TIP3    H180216   3.686   5.781  12.767 -0.2154  0.7494 -0.8277
19575TIP3    H280217   3.735   5.818  12.905  1.0122 -0.4739 -0.9129
19576TIP3   OH280218   2.045   1.113   4.006  0.2803 -0.4587  0.0189
19576TIP3    H180219   2.011   1.024   3.995  1.4722 -0.9401  0.0287
19576TIP3    H280220   2.032   1.155   3.921  0.9780 -1.1137 -0.4226
19577TIP3   OH280221   4.227   0.209  13.750 -0.2881  0.3953 -0.2817
19577TIP3    H180222   4.187   0.126  13.726  0.7675  0.0104 -0.7496
19577TIP3    H280223   4.284   0.231  13.676  1.1897  0.3754  0.8080
19578TIP3   OH280224   5.193   4.729  16.618  0.1488 -0.4255 -0.6277
19578TIP3    H180225   5.112   4.694  16.579 -0.0588 -1.2188  0.4440
19578TIP3    H280226   5.214   4.666  16.688  0.9413  0.5134 -0.0020
19579TIP3   OH280227   2.901   2.264  12.494  0.4558 -0.3736 -0.1305
19579TIP3    H180228   2.920   2.307  12.411  1.7584 -0.0196  0.3272
19579TIP3    H280229   2.934   2.325  12.560  0.5862 -1.2264  0.6034
19580TIP3   OH280230   0.426   2.624  12.732 -0.3861 -0.0070  0.2507
19580TIP3    H180231   0.395   2.551  12.785  1.0682  0.4701  1.8465
19580TIP3    H280232   0.454   2.690  12.795  0.1312  1.1522 -1.1279
19581TIP3   OH280233   6.057   3.135  11.710 -0.3081  0.7541  0.1866
19581TIP3    H180234   6.055   3.182  11.793  0.1564  1.8394 -0.4106
19581TIP3    H280235   6.148   3.108  11.699 -0.6167 -0.5353  0.6498
19582TIP3   OH280236   0.527   0.173  13.747  0.1172 -0.1708  0.0072
19582TIP3    H180237   0.586   0.107  13.784 -0.6652 -0.1210  1.3939
19582TIP3    H280238   0.441   0.153  13.785  0.0245  2.2121  1.2327
19583TIP3   OH280239   1.055   5.001   4.111 -0.6710  0.0757 -0.0003
19583TIP3    H180240   1.107   5.064   4.160 -0.0099 -1.1810  0.9651
19583TIP3    H280241   1.118   4.936   4.081 -1.4864 -0.7223 -0.0214
19584TIP3   OH280242   5.516   0.124  12.873 -0.4574  0.4985  0.1523
19584TIP3    H180243   5.482   0.169  12.795 -1.1106  0.8951  0.6569
19584TIP3    H280244   5.487   0.033  12.862 -1.1239  0.6930  0.2517
19585TIP3   OH280245   6.809   6.743  15.362  0.6659 -0.5439  0.0032
19585TIP3    H180246   6.783   6.696  15.442  0.5030 -1.6813 -0.6971
19585TIP3    H280247   6.805   6.835  15.386 -1.7486 -0.7519  0.6325
19586TIP3   OH280248   3.566   1.958  15.213 -0.7378  0.0866 -0.1783
19586TIP3    H180249   3.637   1.912  15.258  0.9471  2.2120 -0.4900
19586TIP3    H280250   3.489   1.942  15.267  0.1611 -1.4995  0.7111
19587TIP3   OH280251   5.691   2.032   3.922 -0.3128 -0.4180  0.1454
19587TIP3    H180252   5.596   2.020   3.925 -0.2645 -0.8645 -0.0242
19587TIP3    H280253   5.726   1.943   3.919  0.1799 -0.3323  2.1141
19588TIP3   OH280254   0.444   0.950   2.920  0.2247 -0.1390  0.3464
19588TIP3    H180255   0.420   0.936   3.012 -0.6591 -1.6296 -0.0777
19588TIP3    H280256   0.402   0.878   2.873  1.5402 -0.0123 -1.1016
19589TIP3   OH280257   4.220   1.658  14.852 -0.2289  0.5226  0.4233
19589TIP3    H180258   4.255   1.744  14.829  0.8725  0.2915  1.1693
19589TIP3    H280259   4.155   1.640  14.784  0.7614  1.1767 -0.7508
19590TIP3   OH280260   2.837   5.731  11.537 -0.7409  0.1482  0.2730
19590TIP3    H180261   2.815   5.825  11.537 -0.8682  0.1165 -0.2098
19590TIP3    H280262   2.883   5.717  11.455 -3.6219 -0.8781 -1.3047
19591TIP3   OH280263   4.306   3.833   3.429  0.4552 -0.3513 -0.7690
19591TIP3    H180264   4.283   3.743   3.453 -1.2599  0.4913  1.0340
19591TIP3    H280265   4.298   3.883   3.510  2.0973  1.3366 -1.5583
19592TIP3   OH280266   0.715   1.405  14.121 -0.0231 -0.0418  0.2121
19592TIP3    H180267   0.723   1.413  14.026  0.4656  1.3304  0.3339
19592TIP3    H280268   0.749   1.318  14.141  0.2794 -0.1770 -0.8317
19593TIP3   OH280269   0.574   2.606   2.106  0.1218 -0.3114  0.0722
19593TIP3    H180270   0.591   2.656   2.186  0.2106  1.5641 -1.0546
19593TIP3    H280271   0.526   2.666   2.049  0.4082 -1.4394 -1.4447
19594TIP3   OH280272   3.192   5.856  11.571  0.6617  0.2788  0.2269
19594TIP3    H180273   3.148   5.783  11.616  1.5371 -1.4201 -1.4811
19594TIP3    H280274   3.245   5.898  11.638  0.1237 -0.6495  1.2741
19595TIP3   OH280275   4.303   5.465   4.878 -0.2051 -0.3241 -0.7788
19595TIP3    H180276   4.268   5.528   4.815 -1.7599  0.2758  0.6194
19595TIP3    H280277   4.321   5.517   4.956  1.8481 -1.0202 -0.7280
19596TIP3   OH280278   4.870   5.854   1.085 -0.3338  0.3136  0.5214
19596TIP3    H180279   4.944   5.912   1.100 -1.5557  2.0770  0.0385
19596TIP3    H280280   4.797   5.897   1.130 -1.2965 -0.8127  0.0709
19597TIP3   OH280281   2.955   0.894  11.791 -0.0883 -0.2138 -0.2742
19597TIP3    H180282   3.012   0.962  11.754  1.7524 -1.7463 -0.4038
19597TIP3    H280283   2.873   0.903  11.743  0.4287  1.2908 -0.9486
19598TIP3   OH280284   1.879   4.562  14.429 -0.4550 -0.7124  0.1014
19598TIP3    H180285   1.799   4.603  14.460  0.5455  1.4932 -0.0753
19598TIP3    H280286   1.928   4.633  14.387  1.9757 -1.7914  0.9429
19599TIP3   OH280287   4.677   3.002  13.934 -0.6360  0.2074  0.0253
19599TIP3    H180288   4.754   2.946  13.924 -2.5485 -2.5082 -0.5173
19599TIP3    H280289   4.691   3.073  13.871  1.0971 -0.5728 -0.5311
19600TIP3   OH280290   6.785   5.057  15.771  0.2885 -0.3635 -0.0549
19600TIP3    H180291   6.840   5.131  15.797 -0.5658  0.7175 -1.2273
19600TIP3    H280292   6.764   5.074  15.679  0.2655 -2.1977 -0.4296
19601TIP3   OH280293   0.652   6.021   4.442 -0.2526 -0.2042  0.0339
19601TIP3    H180294   0.600   6.073   4.503 -2.2675  0.1420 -1.8797
19601TIP3    H280295   0.648   5.932   4.478  1.0468  0.4222  1.9070
19602TIP3   OH280296   2.923   6.391   0.599  0.3644  0.2440  0.4017
19602TIP3    H180297   2.860   6.368   0.531  2.4057 -2.5534 -0.7619
19602TIP3    H280298   2.893   6.344   0.677 -0.3262  1.0010  0.6066
19603TIP3   OH280299   4.704   3.185   0.630  0.2139 -0.1928 -0.2723
19603TIP3    H180300   4.713   3.270   0.674 -0.8938 -0.3241  0.2448
19603TIP3    H280301   4.776   3.133   0.665 -1.2733 -0.6604  2.3545
19604TIP3   OH280302   2.099   3.831   2.003  0.0018 -0.2201  0.1765
19604TIP3    H180303   2.163   3.815   1.933 -0.3703  1.8212 -0.6963
19604TIP3    H280304   2.152   3.837   2.082  0.8957  1.0473 -0.4770
19605TIP3   OH280305   3.864   5.129   0.814 -0.5180 -0.1920  0.0779
19605TIP3    H180306   3.946   5.084   0.836 -0.5910  0.2693  1.3767
19605TIP3    H280307   3.892   5.212   0.774 -0.3784 -0.5977 -0.6938
19606TIP3   OH280308   2.580   1.965   1.015  0.5040 -0.2427 -0.7482
19606TIP3    H180309   2.629   2.045   1.031  0.5816 -0.5379  0.5964
19606TIP3    H280310   2.604   1.907   1.087 -1.5805 -0.5011 -0.1914
19607TIP3   OH280311   5.392   6.542  11.525 -0.0624  0.1777 -0.1107
19607TIP3    H180312   5.358   6.631  11.515 -0.4346  0.0672  0.1503
19607TIP3    H280313   5.414   6.515  11.436  2.2416  1.3715  0.0098
19608TIP3   OH280314   5.454   1.633   3.839  0.2661  0.0866 -0.5023
19608TIP3    H180315   5.479   1.551   3.797  0.1706 -0.8315  1.1327
19608TIP3    H280316   5.537   1.667   3.874  0.1928  0.3061 -0.5467
19609TIP3   OH280317   5.445   5.210  13.604  0.1222  0.1847  0.3633
19609TIP3    H180318   5.362   5.235  13.644  0.6565  0.2912  1.4439
19609TIP3    H280319   5.505   5.282  13.624  0.5639 -0.0343 -0.1316
19610TIP3   OH280320   3.316   4.833  16.146 -0.1516 -0.9539 -0.6901
19610TIP3    H180321   3.399   4.804  16.109  0.9185  0.5209  0.4270
19610TIP3    H280322   3.317   4.799  16.236 -0.8000 -0.9680 -0.6798
19611TIP3   OH280323   5.213   0.749   2.157  0.0858  0.0427  0.5714
19611TIP3    H180324   5.201   0.676   2.095  0.7346 -0.0827  0.5868
19611TIP3    H280325   5.307   0.753   2.171  0.2443  1.8621 -0.6117
19612TIP3   OH280326   6.314   2.894   4.283 -0.5875 -0.0242  0.4867
19612TIP3    H180327   6.258   2.829   4.241  0.0357 -1.4646  1.7791
19612TIP3    H280328   6.396   2.848   4.298  0.4197  1.5655  0.0443
19613TIP3   OH280329   5.274   0.372   1.778 -0.2759  0.5346 -0.0849
19613TIP3    H180330   5.329   0.382   1.701  0.2705  1.5139  0.4298
19613TIP3    H280331   5.185   0.385   1.745  0.0546  2.4334 -0.3018
19614TIP3   OH280332   1.786   2.776   6.863  0.1049 -0.0022 -0.3715
19614TIP3    H180333   1.866   2.828   6.868 -0.1832  0.3485  1.6283
19614TIP3    H280334   1.718   2.837   6.834  0.1604  0.2334 -0.0094
19615TIP3   OH280335   0.441   4.288   0.036  0.1728  0.1710  0.2335
19615TIP3    H180336   0.352   4.258   0.017 -0.3234  1.2891  0.7232
19615TIP3    H280337   0.497   4.215   0.010 -0.6916  0.3426 -2.3878
19616TIP3   OH280338   3.087   4.241  14.416  0.0940  0.3118  0.3791
19616TIP3    H180339   3.037   4.206  14.490 -1.0611 -0.3551 -0.6778
19616TIP3    H280340   3.026   4.301  14.373  1.9716  3.6915  2.0480
19617TIP3   OH280341   2.940   2.603  14.858  0.4118 -0.0640 -0.0205
19617TIP3    H180342   2.991   2.651  14.792 -0.3852  1.0955  0.1723
19617TIP3    H280343   3.003   2.585  14.928  0.9236 -0.0525 -0.4667
19618TIP3   OH280344   3.914   0.003  16.265 -0.7206  0.2684  0.1092
19618TIP3    H180345   3.882   0.084  16.306  1.9689  2.1064 -1.1392
19618TIP3    H280346   3.914   0.022  16.172  1.9363 -0.2970 -0.0875
19619TIP3   OH280347   1.009   3.677   5.768 -0.0529  0.5479  1.0420
19619TIP3    H180348   1.102   3.656   5.767 -0.2953 -0.9053  2.7178
19619TIP3    H280349   0.980   3.664   5.678  1.0058 -0.8271  0.8753
19620TIP3   OH280350   4.028   2.655  11.631 -0.0473  0.1084  0.5051
19620TIP3    H180351   4.007   2.562  11.627 -0.3742  0.1232  1.5071
19620TIP3    H280352   4.070   2.674  11.547 -2.5928 -0.2843 -0.9705
19621TIP3   OH280353   2.504   4.186  16.141 -0.0620  0.3550 -0.4397
19621TIP3    H180354   2.520   4.246  16.067  0.7728  1.1706  0.3814
19621TIP3    H280355   2.567   4.213  16.207 -1.1153 -0.0686  0.7605
19622TIP3   OH280356   6.080   5.235   1.233 -0.3278 -0.7311  0.0910
19622TIP3    H180357   6.137   5.281   1.294  2.3620 -0.2563 -2.5454
19622TIP3    H280358   6.012   5.299   1.210  1.2137  0.6985 -0.7011
19623TIP3   OH280359   2.490   2.268  11.460  0.0215 -0.6992  0.0298
19623TIP3    H180360   2.581   2.290  11.441 -0.1752  2.6556  1.9892
19623TIP3    H280361   2.439   2.320  11.398 -0.4728  1.0780  1.8017
19624TIP3   OH280362   3.178   2.904  11.342  0.1270  0.7337  0.3061
19624TIP3    H180363   3.102   2.888  11.286  0.4719  0.4946 -0.0945
19624TIP3    H280364   3.144   2.959  11.413 -0.2945  1.1207 -0.1838
19625TIP3   OH280365   4.834   5.069   3.861 -1.0770  0.4028  0.2687
19625TIP3    H180366   4.826   5.059   3.766 -0.9478 -0.8735  0.3702
19625TIP3    H280367   4.882   5.151   3.872  0.4166 -0.2614 -0.8518
19626TIP3   OH280368   6.799   4.109  15.003 -0.1737 -0.2548 -0.3649
19626TIP3    H180369   6.751   4.077  14.926 -0.2722 -0.2199 -0.3176
19626TIP3    H280370   6.883   4.139  14.968 -0.7418  1.0359 -0.6754
19627TIP3   OH280371   5.990   4.133   3.917 -0.1253  0.6757 -0.1823
19627TIP3    H180372   5.905   4.094   3.935 -0.2703  0.4126 -1.3565
19627TIP3    H280373   6.051   4.086   3.973 -0.8833  1.6286  1.5285
19628TIP3   OH280374   5.350   2.104   0.685 -0.0229  0.4079  0.0257
19628TIP3    H180375   5.314   2.026   0.641 -0.2345  0.2688  0.4396
19628TIP3    H280376   5.366   2.076   0.775  0.5025  0.6655  0.0154
19629TIP3   OH280377   2.707   6.191  17.181  0.0567  0.4593 -0.2160
19629TIP3    H180378   2.803   6.196  17.182  0.2419 -0.4183 -3.0433
19629TIP3    H280379   2.685   6.146  17.262  1.8692  2.1064  1.3020
19630TIP3   OH280380   2.478   5.974  12.411 -0.1259  0.4701 -0.3012
19630TIP3    H180381   2.505   5.993  12.501 -0.7923  2.2006 -0.4170
19630TIP3    H280382   2.467   5.879  12.408 -1.2185  0.4777  1.7811
19631TIP3   OH280383   4.805   6.542   4.740  0.1218 -0.0369 -0.6191
19631TIP3    H180384   4.833   6.452   4.724 -0.3447 -0.3992  0.4960
19631TIP3    H280385   4.711   6.536   4.758  0.0193  0.7176 -0.8246
19632TIP3   OH280386   4.496   3.218  11.875  0.0919 -0.2059  0.1796
19632TIP3    H180387   4.445   3.244  11.799  0.7628 -0.5448 -0.3986
19632TIP3    H280388   4.443   3.245  11.950 -0.8396 -0.3786 -0.4000
19633TIP3   OH280389   4.955   1.498  11.123 -0.1114 -0.4023 -0.2473
19633TIP3    H180390   4.980   1.410  11.150  1.0010  0.1583  0.6173
19633TIP3    H280391   4.862   1.504  11.146 -0.0280 -1.1189  0.3194
19634TIP3   OH280392   6.118   1.274   5.693  0.7757  0.1186 -0.4064
19634TIP3    H180393   6.100   1.265   5.599 -0.2806  0.1435 -0.2170
19634TIP3    H280394   6.032   1.280   5.733  1.2214  0.0623  0.5788
19635TIP3   OH280395   4.820   1.894   1.735 -0.4895 -0.1637 -0.6605
19635TIP3    H180396   4.869   1.864   1.658 -0.1709 -1.9162  0.1668
19635TIP3    H280397   4.731   1.906   1.704  0.1061  1.6212 -1.8559
19636TIP3   OH280398   5.663   2.990   1.530  0.4307  0.7099  0.5631
19636TIP3    H180399   5.711   2.985   1.612  1.7482 -1.3004 -0.2394
19636TIP3    H280400   5.600   2.918   1.534  0.5689  0.5333 -0.2174
19637TIP3   OH280401   4.118   4.124   5.946  0.5203 -0.1271 -0.1238
19637TIP3    H180402   4.114   4.114   5.851  0.4041 -0.0584 -0.1264
19637TIP3    H280403   4.071   4.205   5.964 -0.3525 -0.6577  0.0785
19638TIP3   OH280404   4.944   0.030  16.163  0.3743  0.1778  0.2892
19638TIP3    H180405   4.994  -0.049  16.141  1.4800  0.8841  0.1656
19638TIP3    H280406   4.902   0.010  16.247  1.3773 -0.2216  0.7097
19639TIP3   OH280407   1.679   1.509  14.397 -0.0721 -0.3570  0.3679
19639TIP3    H180408   1.623   1.498  14.474  1.4685 -2.9368  1.2547
19639TIP3    H280409   1.656   1.436  14.340  0.4979  0.1234 -0.4971
19640TIP3   OH280410   4.615   1.221  14.656 -0.3562 -0.1984  0.1168
19640TIP3    H180411   4.670   1.295  14.680 -0.6743 -0.0104  0.2736
19640TIP3    H280412   4.676   1.149  14.639 -0.0152  0.2462 -0.5548
19641TIP3   OH280413   3.672   5.239   2.383  0.7688 -0.0774 -0.2083
19641TIP3    H180414   3.747   5.209   2.435  0.7847  0.5881  0.1671
19641TIP3    H280415   3.600   5.182   2.410  1.3634 -1.4175 -1.3366
19642TIP3   OH280416   1.164   1.451  11.920  0.2632 -0.2585  0.4492
19642TIP3    H180417   1.233   1.447  11.986 -0.3392 -0.6787  1.0663
19642TIP3    H280418   1.179   1.375  11.865  0.4944 -0.1610  0.3783
19643TIP3   OH280419   5.139   2.507   5.203  0.5142 -0.5535 -0.1284
19643TIP3    H180420   5.049   2.522   5.231  0.7349  1.8408 -0.5152
19643TIP3    H280421   5.136   2.517   5.107  1.2249 -0.1849 -0.1193
19644TIP3   OH280422   3.152   6.002   0.174  0.5280 -0.1162 -0.2149
19644TIP3    H180423   3.079   6.036   0.226  0.9155  1.2811 -0.5231
19644TIP3    H280424   3.127   6.021   0.083  0.6178 -0.9771 -0.4233
19645TIP3   OH280425   1.203   1.368   0.042  0.3919 -0.2821 -0.4729
19645TIP3    H180426   1.256   1.408   0.110 -0.4000  0.1576 -0.1077
19645TIP3    H280427   1.262   1.305  -0.000  1.2303  0.2738 -0.1530
19646TIP3   OH280428   3.886   2.202  15.087  0.2061  0.2248  0.1426
19646TIP3    H180429   3.829   2.247  15.149  0.4484  0.2909  0.3222
19646TIP3    H280430   3.894   2.113  15.121  0.9323  0.4617  0.6245
19647TIP3   OH280431   0.750   0.931  12.929 -0.7119 -0.4679  0.6048
19647TIP3    H180432   0.741   0.958  13.020 -0.6277 -0.7283  0.6893
19647TIP3    H280433   0.803   0.852  12.931  0.2846  0.1658  0.2332
19648TIP3   OH280434   6.577   1.809  11.164  0.7151  0.2273  0.2175
19648TIP3    H180435   6.493   1.766  11.148 -0.4143  2.5559 -0.7163
19648TIP3    H280436   6.612   1.826  11.077  0.5075  2.1900  0.4725
19649TIP3   OH280437   5.423   1.050  15.359  0.4714 -0.0552 -0.1036
19649TIP3    H180438   5.353   1.067  15.421  0.1787 -0.5391 -0.2925
19649TIP3    H280439   5.448   1.137  15.327  1.1531  0.2649  1.2400
19650TIP3   OH280440   3.746   6.198  12.584  0.0967  0.2519 -0.1047
19650TIP3    H180441   3.816   6.223  12.645 -0.5803  0.7319  0.4854
19650TIP3    H280442   3.689   6.140  12.634  0.2297 -0.3980 -0.6831
19651TIP3   OH280443   0.436   2.137   0.100  0.3555  0.0444 -0.0395
19651TIP3    H180444   0.442   2.227   0.133 -3.2327  1.3991 -2.3810
19651TIP3    H280445   0.385   2.091   0.167 -0.3422  0.6334 -0.1445
19652TIP3   OH280446   5.967   0.758   3.167 -0.3689  0.1607  0.2266
19652TIP3    H180447   5.942   0.668   3.148 -0.1932  0.1145  0.2062
19652TIP3    H280448   6.014   0.787   3.089 -2.4645  1.0724 -0.7708
19653TIP3   OH280449   4.646   2.090  11.100 -0.3210  0.2629 -0.4724
19653TIP3    H180450   4.586   2.037  11.047 -0.1797  0.3859 -0.7582
19653TIP3    H280451   4.707   2.026  11.137 -1.1491  0.0360  0.5278
19654TIP3   OH280452   3.427   6.065  15.860 -0.4170  0.0577  0.2581
19654TIP3    H180453   3.484   6.011  15.805  0.5560 -0.0964  1.3933
19654TIP3    H280454   3.377   6.117  15.798  0.1392 -0.6306 -0.7995
19655TIP3   OH280455   6.112   5.961   3.976 -0.0726 -0.6115  0.0644
19655TIP3    H180456   6.070   5.982   4.059  0.7318  0.0827  0.3147
19655TIP3    H280457   6.040   5.936   3.918 -0.6038 -1.6329  1.1058
19656TIP3   OH280458   3.448   4.274   1.384 -0.2607  0.0749 -1.0487
19656TIP3    H180459   3.494   4.308   1.460 -1.4604  0.5160 -0.4956
19656TIP3    H280460   3.435   4.350   1.327 -0.9731  0.1138 -0.8429
19657TIP3   OH280461   6.660   6.081   1.654 -0.1681 -0.2717  0.4910
19657TIP3    H180462   6.715   6.160   1.659  0.0552 -0.3822 -0.1338
19657TIP3    H280463   6.650   6.065   1.561  1.1763 -1.9406  0.5722
19658TIP3   OH280464   1.024   2.998   4.880  0.4241  0.4778  0.6221
19658TIP3    H180465   1.067   2.914   4.865 -0.6120  0.2016 -0.9697
19658TIP3    H280466   1.027   3.009   4.975  0.7749 -1.2445  0.8439
19659TIP3   OH280467   1.743   6.575  16.890 -0.4141 -0.0302 -0.2701
19659TIP3    H180468   1.665   6.520  16.890  1.4922 -2.9361 -1.2002
19659TIP3    H280469   1.736   6.625  16.808 -2.2530  1.3679  0.6675
19660TIP3   OH280470   0.690   0.129   0.336 -0.4508 -0.4460  0.4885
19660TIP3    H180471   0.730   0.143   0.422 -0.3161 -1.3935  0.5946
19660TIP3    H280472   0.599   0.108   0.355 -0.6293  0.1678  0.3394
19661TIP3   OH280473   2.697   4.811  16.596  0.0271  0.5589  0.4240
19661TIP3    H180474   2.603   4.804  16.579 -0.2719 -1.8284  2.5727
19661TIP3    H280475   2.702   4.844  16.686  1.2492  0.1272  0.5216
19662TIP3   OH280476   5.777   0.629   1.367 -0.4082  0.2407  0.8219
19662TIP3    H180477   5.829   0.555   1.397  1.4814  0.5793 -1.3734
19662TIP3    H280478   5.700   0.589   1.326 -0.5101 -0.3881  1.6012
19663TIP3   OH280479   3.947   2.136  14.317  0.3035 -0.0237  0.2028
19663TIP3    H180480   3.882   2.068  14.330  0.1286 -0.3651 -2.1216
19663TIP3    H280481   3.918   2.208  14.374 -0.6565 -1.0943  1.1065
19664TIP3   OH280482   3.666   3.077   0.621  0.6207 -0.5496 -0.2031
19664TIP3    H180483   3.734   3.130   0.663 -0.1686  0.1955  0.1761
19664TIP3    H280484   3.679   2.989   0.656 -0.3097  0.1364  2.0619
19665TIP3   OH280485   3.611   2.945  14.004 -0.1722  0.2974  0.6148
19665TIP3    H180486   3.527   2.950  14.051 -1.1049  0.8068 -1.0116
19665TIP3    H280487   3.588   2.913  13.917  1.2861  0.7765  0.0205
19666TIP3   OH280488   3.550   1.812   5.778  0.0322  0.5117  0.1776
19666TIP3    H180489   3.637   1.845   5.800 -0.6175  1.6869  1.0678
19666TIP3    H280490   3.510   1.790   5.862 -0.4318 -0.3029 -0.2419
19667TIP3   OH280491   4.599   4.901  12.005  0.0244 -0.2106 -0.1814
19667TIP3    H180492   4.655   4.896  12.082 -2.2833  1.9436  1.7923
19667TIP3    H280493   4.607   4.991  11.975  0.8790 -0.9894 -2.6015
19668TIP3   OH280494   3.979   4.687   4.826 -0.6755 -0.3466 -0.5605
19668TIP3    H180495   3.929   4.676   4.907 -1.1270 -1.4670 -0.9663
19668TIP3    H280496   4.032   4.765   4.841 -1.1855 -0.1956  0.5878
19669TIP3   OH280497   1.911   0.132  16.702  0.5779 -0.3566 -0.4660
19669TIP3    H180498   1.872   0.126  16.789 -1.2756 -0.0857 -1.2321
19669TIP3    H280499   1.864   0.204  16.660  0.7931 -1.0758 -1.9955
19670TIP3   OH280500   6.584   5.685   3.676  0.1693  0.1005  0.4666
19670TIP3    H180501   6.586   5.594   3.705 -0.8603  0.3344  1.3164
19670TIP3    H280502   6.519   5.686   3.606 -0.0858  0.2580  0.7080
19671TIP3   OH280503   3.094   6.770  11.535  0.1232 -0.4211 -0.0261
19671TIP3    H180504   3.108   6.700  11.599  0.1594 -1.3471 -1.0102
19671TIP3    H280505   3.001   6.791  11.542  0.2259 -0.1786  0.6553
19672TIP3   OH280506   5.817   5.830   3.347 -0.4725 -0.4072  0.6226
19672TIP3    H180507   5.858   5.801   3.265 -2.3703 -1.0298 -0.1665
19672TIP3    H280508   5.730   5.861   3.320 -1.1069 -0.5519  2.4092
19673TIP3   OH280509   3.944   2.936  10.945 -0.0215  0.0519  0.4257
19673TIP3    H180510   3.851   2.915  10.959 -0.0164  1.0145  2.1812
19673TIP3    H280511   3.976   2.960  11.032  1.2054  2.3468 -0.5851
19674TIP3   OH280512   3.242   5.865   4.595 -0.7340 -0.3261 -0.4528
19674TIP3    H180513   3.191   5.907   4.526 -1.7026  0.4514  0.6863
19674TIP3    H280514   3.332   5.895   4.581 -1.2221  1.2589 -0.3483
19675TIP3   OH280515   0.183   3.833  11.055 -0.2381  0.4258 -0.1696
19675TIP3    H180516   0.143   3.820  11.141 -1.1127 -0.2376 -0.6725
19675TIP3    H280517   0.183   3.747  11.014  0.9795  0.5624 -0.5122
19676TIP3   OH280518   2.973   1.948  14.781  0.6063 -0.6538  0.2135
19676TIP3    H180519   3.033   1.884  14.743 -0.5890 -0.4131 -2.2948
19676TIP3    H280520   2.989   2.029  14.732  0.4198  0.3097  1.6796
19677TIP3   OH280521   0.199   5.797  15.708  0.0532  0.1596 -0.2210
19677TIP3    H180522   0.243   5.857  15.647  1.1151 -1.5140 -1.1815
19677TIP3    H280523   0.150   5.737  15.651 -3.0949  1.5533  0.7877
19678TIP3   OH280524   1.337   1.507   1.492  0.0290 -0.6754  0.1778
19678TIP3    H180525   1.341   1.470   1.580 -1.6567 -1.9050 -0.2187
19678TIP3    H280526   1.429   1.526   1.470  0.5374 -0.8942  1.9449
19679TIP3   OH280527   1.725   2.139  11.413 -0.2696  0.1044  0.0426
19679TIP3    H180528   1.658   2.089  11.460 -1.4693  1.5836 -0.0281
19679TIP3    H280529   1.726   2.224  11.456  0.4388  0.6308 -0.9825
19680TIP3   OH280530   4.325   4.019  14.032 -0.0648  0.1600  0.1501
19680TIP3    H180531   4.254   4.072  13.995  0.0035 -0.3494 -0.7421
19680TIP3    H280532   4.399   4.035  13.974  0.8402  1.3896  1.5868
19681TIP3   OH280533   2.916   3.072  12.873  0.4877 -0.4991 -0.0473
19681TIP3    H180534   2.906   3.135  12.802  2.5471  1.0164  0.9062
19681TIP3    H280535   2.997   3.025  12.853  1.6164  0.5942  1.6819
19682TIP3   OH280536   6.499   0.458   1.972 -0.2549 -0.4523  0.4922
19682TIP3    H180537   6.567   0.395   1.998 -1.0272 -1.0953  1.0038
19682TIP3    H280538   6.544   0.542   1.970  0.6986 -0.9510  0.2344
19683TIP3   OH280539   2.393   5.681   3.283  0.2867  0.7286 -0.9678
19683TIP3    H180540   2.414   5.590   3.301 -1.2693  0.2449 -1.4695
19683TIP3    H280541   2.449   5.731   3.343  0.1412 -0.5956  0.3170
19684TIP3   OH280542   3.367   5.034   3.556 -0.4152  0.0346  0.5402
19684TIP3    H180543   3.334   4.960   3.608 -0.0563 -1.2478 -0.9781
19684TIP3    H280544   3.288   5.078   3.525 -0.7732 -1.5778 -1.0553
19685TIP3   OH280545   3.291   4.184  14.210  0.8827 -0.0939 -0.7579
19685TIP3    H180546   3.247   4.172  14.294  2.3018  1.7580  0.3456
19685TIP3    H280547   3.344   4.105  14.199  0.7979 -0.2865  0.1704
19686TIP3   OH280548   2.332   5.584   3.979 -0.3632  0.0150  0.1492
19686TIP3    H180549   2.356   5.492   3.982  0.3860  0.1803 -0.5884
19686TIP3    H280550   2.369   5.622   4.059  0.7999  0.0188 -0.3808
19687TIP3   OH280551   6.245   5.684  13.362 -0.4853  0.3234  0.5904
19687TIP3    H180552   6.235   5.684  13.458 -1.2073  1.7356  0.5323
19687TIP3    H280553   6.227   5.593  13.337  0.6202 -0.3009  1.8656
19688TIP3   OH280554   0.089   6.246  10.819 -0.4970 -0.2973  0.5292
19688TIP3    H180555   0.030   6.318  10.841 -0.1521 -0.0167  0.5423
19688TIP3    H280556   0.177   6.283  10.828 -0.3070 -0.8261  0.9173
19689TIP3   OH280557   4.796   1.998  14.002 -0.2705  0.0309  0.0013
19689TIP3    H180558   4.853   2.035  13.934  1.1213 -0.1212  1.0274
19689TIP3    H280559   4.737   1.940  13.955  1.3113 -0.8369 -0.9929
19690TIP3   OH280560   0.286   3.196   2.944 -0.2289  0.7350  0.2268
19690TIP3    H180561   0.278   3.128   3.011 -1.8969  1.8858  1.2767
19690TIP3    H280562   0.205   3.189   2.893  0.3910  0.7848 -0.7852
19691TIP3   OH280563   6.763   3.741   1.086  0.0901  0.0644  0.0412
19691TIP3    H180564   6.725   3.654   1.079 -3.1353  0.8822  4.0361
19691TIP3    H280565   6.789   3.749   1.178  2.1379  2.6963 -0.6255
19692TIP3   OH280566   0.885   0.476   1.805  0.5493  0.4889 -0.2804
19692TIP3    H180567   0.931   0.471   1.889  0.7696 -1.4303 -0.4668
19692TIP3    H280568   0.946   0.439   1.741 -0.0349  0.9025 -1.1083
19693TIP3   OH280569   1.934   3.410  12.561  0.6513  0.2510 -0.1575
19693TIP3    H180570   2.029   3.408  12.558  0.6737  1.3976 -1.6152
19693TIP3    H280571   1.913   3.495  12.599  0.2161  0.1658 -0.2004
19694TIP3   OH280572   2.998   0.673   2.338 -0.0093 -0.8284 -0.0091
19694TIP3    H180573   2.930   0.719   2.288 -0.3081 -0.7094  0.4990
19694TIP3    H280574   2.956   0.653   2.421  0.9850  0.4156  0.8310
19695TIP3   OH280575   5.980   3.460  12.643  0.0579  0.5025  0.1164
19695TIP3    H180576   5.951   3.522  12.710 -0.7135  0.8864 -0.5692
19695TIP3    H280577   5.989   3.377  12.690  1.5514  1.2064  1.1466
19696TIP3   OH280578   5.863   0.363   5.260  0.1907 -0.3107  0.5133
19696TIP3    H180579   5.945   0.387   5.304  0.4962 -0.4652  0.0307
19696TIP3    H280580   5.859   0.267   5.268 -0.9518 -0.1718  2.3085
19697TIP3   OH280581   0.111   0.312   0.833  0.5658  0.5883 -0.5784
19697TIP3    H180582   0.134   0.324   0.740  1.1015 -1.7166 -0.7921
19697TIP3    H280583   0.051   0.384   0.852  0.4209  1.1014 -2.7250
19698TIP3   OH280584   4.857   3.142  17.251  0.3028 -0.2840 -0.2766
19698TIP3    H180585   4.904   3.216  17.290  1.7087 -1.3951  0.2460
19698TIP3    H280586   4.765   3.167  17.255  0.7572  1.4927 -0.2700
19699TIP3   OH280587   4.478   1.182   2.992 -0.4275 -0.3261 -0.0033
19699TIP3    H180588   4.568   1.157   2.973  0.0086 -0.8033  2.3571
19699TIP3    H280589   4.478   1.278   2.990  0.5575 -0.2581  1.4750
19700TIP3   OH280590   4.063   1.792  15.181  0.0163  0.1239  0.7720
19700TIP3    H180591   4.087   1.709  15.220  1.1518  0.4946  0.8825
19700TIP3    H280592   4.146   1.832  15.155 -0.5621  0.8731  0.0089
19701TIP3   OH280593   1.287   2.799  15.850 -0.4063  0.7339 -0.7498
19701TIP3    H180594   1.266   2.762  15.936 -0.0342 -3.2576 -2.1664
19701TIP3    H280595   1.378   2.826  15.857  0.0105 -0.7270 -0.1840
19702TIP3   OH280596   0.575   3.549   4.530 -0.3313 -0.0405  0.4945
19702TIP3    H180597   0.619   3.469   4.558 -0.1932  0.0281  0.4721
19702TIP3    H280598   0.601   3.614   4.595 -2.3320 -0.5645  1.9279
19703TIP3   OH280599   3.988   3.570   1.172 -0.4226 -0.3255 -0.7778
19703TIP3    H180600   4.048   3.503   1.138 -0.7780 -1.0700  0.0139
19703TIP3    H280601   4.026   3.596   1.256 -1.2732 -0.9161 -0.1992
19704TIP3   OH280602   3.763   6.551  16.438 -0.2178 -0.1655 -0.0004
19704TIP3    H180603   3.852   6.564  16.405 -0.4708 -0.1959 -0.7208
19704TIP3    H280604   3.773   6.494  16.514  0.3601 -0.3365 -0.2021
19705TIP3   OH280605   2.205   3.393  15.742  0.5166  0.8623 -0.0037
19705TIP3    H180606   2.277   3.434  15.790  0.7489  0.2778  0.1510
19705TIP3    H280607   2.248   3.330  15.683  0.2412  1.5710 -0.9980
19706TIP3   OH280608   6.771   1.483  13.313 -0.1662  0.4796  0.0353
19706TIP3    H180609   6.785   1.518  13.401  0.4217  0.0061  0.1294
19706TIP3    H280610   6.853   1.441  13.289 -1.1667 -1.7553  0.3420
19707TIP3   OH280611   2.625   3.868   3.104  0.3371  0.0776  0.1690
19707TIP3    H180612   2.669   3.799   3.154 -0.0433 -1.3019 -1.3091
19707TIP3    H280613   2.532   3.857   3.125 -0.3552 -2.9401 -3.3688
19708TIP3   OH280614   5.116   5.509   0.678  0.2192  0.4879  0.4931
19708TIP3    H180615   5.042   5.450   0.667  1.2168 -0.9331  1.1457
19708TIP3    H280616   5.096   5.557   0.758 -0.4607  0.8565  0.1137
19709TIP3   OH280617   0.360   1.699  15.609  0.7601 -0.3712  0.1221
19709TIP3    H180618   0.287   1.653  15.567  0.7855 -0.0570 -0.2640
19709TIP3    H280619   0.438   1.661  15.569  0.7936 -0.2844  0.1053
19710TIP3   OH280620   0.345   2.863  11.851 -0.0687 -0.4310 -0.4517
19710TIP3    H180621   0.411   2.874  11.919  0.4891  1.5669 -1.2386
19710TIP3    H280622   0.277   2.809  11.891  0.4695  0.2653  1.5121
19711TIP3   OH280623   3.268   0.296   3.471 -0.0743  0.0896 -0.0512
19711TIP3    H180624   3.348   0.242   3.475  1.7456  2.5185 -1.2504
19711TIP3    H280625   3.235   0.284   3.382 -0.8329 -0.5536  0.3031
19712TIP3   OH280626   5.417   4.854   5.476 -0.0859  0.7240 -0.2032
19712TIP3    H180627   5.499   4.809   5.495 -1.8990 -2.3623  0.9323
19712TIP3    H280628   5.420   4.934   5.529  0.8764 -0.8954  2.3621
19713TIP3   OH280629   6.422   5.465   0.352  0.0788 -0.5164 -0.0124
19713TIP3    H180630   6.429   5.438   0.444 -2.9299  1.2868  0.8649
19713TIP3    H280631   6.503   5.513   0.335  0.6145 -0.7301  1.7270
19714TIP3   OH280632   3.380   3.518   1.585 -0.1548 -0.1224  0.0603
19714TIP3    H180633   3.320   3.568   1.642 -0.1484  0.6746 -0.6136
19714TIP3    H280634   3.371   3.427   1.615  0.2912  0.3404  1.7349
19715TIP3   OH280635   6.009   0.770   1.312 -0.4500  0.0320  0.6829
19715TIP3    H180636   5.951   0.837   1.348 -2.1365 -1.6012  1.1575
19715TIP3    H280637   5.953   0.693   1.301  1.1639 -0.9986 -0.8534
19716TIP3   OH280638   5.614   1.425   0.680 -0.1831 -0.3410 -0.1926
19716TIP3    H180639   5.570   1.454   0.601  0.8078 -0.8273 -0.9434
19716TIP3    H280640   5.671   1.498   0.704  0.6357 -0.7595 -0.8038
19717TIP3   OH280641   6.114   4.520   2.754 -0.6863  0.0612 -0.1343
19717TIP3    H180642   6.041   4.524   2.692 -0.1975 -1.7771 -0.9040
19717TIP3    H280643   6.174   4.589   2.725 -2.2942  1.9220  0.8160
19718TIP3   OH280644   6.167   4.904   0.928 -0.1111 -0.3615  0.1481
19718TIP3    H180645   6.165   4.905   1.024  0.2868  1.6633  0.1676
19718TIP3    H280646   6.259   4.891   0.906 -0.0801  0.0616  0.0372
19719TIP3   OH280647   4.005   0.673   0.949  0.0698  0.4542  0.0664
19719TIP3    H180648   4.081   0.723   0.979 -0.4377  1.5298 -0.4219
19719TIP3    H280649   4.040   0.585   0.934  1.0285  0.7103  0.6828
19720TIP3   OH280650   1.922   4.242  17.174 -0.2416 -0.4826  0.2837
19720TIP3    H180651   1.880   4.209  17.094 -0.1398  0.2254 -0.0646
19720TIP3    H280652   1.967   4.166  17.211 -1.3013 -1.1031  0.3248
19721TIP3   OH280653   4.366   4.308   0.671 -0.2068 -0.1125 -0.2819
19721TIP3    H180654   4.407   4.254   0.603  2.2027 -0.8736  1.6413
19721TIP3    H280655   4.420   4.295   0.749 -1.6971  2.2369  1.2976
19722TIP3   OH280656   3.087   0.918   1.677  0.6975  0.2860  0.1877
19722TIP3    H180657   3.053   0.887   1.760  2.6149 -2.8783 -0.0605
19722TIP3    H280658   3.126   1.004   1.697 -2.2125  1.3950  1.5906
19723TIP3   OH280659   6.285   1.515   3.120  0.4630  0.6333  0.5136
19723TIP3    H180660   6.251   1.576   3.184 -1.0657  0.6131 -0.2365
19723TIP3    H280661   6.237   1.433   3.136  0.0151  0.6423 -0.6528
19724TIP3   OH280662   0.147   1.441   2.979 -0.7316 -0.5738  0.2323
19724TIP3    H180663   0.110   1.355   2.958 -0.9194 -0.1660 -1.2218
19724TIP3    H280664   0.076   1.502   2.962 -0.2460 -0.0275  0.1373
19725TIP3   OH280665   5.690   0.845  11.360 -0.4586  0.0925  0.2223
19725TIP3    H180666   5.632   0.881  11.427 -0.3199 -0.6423  0.7504
19725TIP3    H280667   5.771   0.896  11.368 -0.2384 -0.3608  1.0099
19726TIP3   OH280668   1.536   4.805   6.520 -0.4223 -0.2534 -0.0121
19726TIP3    H180669   1.466   4.859   6.482 -0.7003 -0.8568 -0.3573
19726TIP3    H280670   1.553   4.846   6.605 -2.9246 -1.5354  1.1922
19727TIP3   OH280671   2.437   4.539   1.891 -0.4579 -0.3029  0.1673
19727TIP3    H180672   2.521   4.580   1.911 -1.0374  0.5322  0.9437
19727TIP3    H280673   2.372   4.596   1.932 -1.3956 -1.0386 -0.2652
19728TIP3   OH280674   6.121   5.273   0.338 -0.4492  0.2476 -0.2725
19728TIP3    H180675   6.080   5.358   0.356 -0.9460 -0.3997  1.8888
19728TIP3    H280676   6.214   5.287   0.355 -0.4700  0.4449 -0.3173
19729TIP3   OH280677   0.144   3.617  15.135  0.0999 -0.0911 -0.4853
19729TIP3    H180678   0.077   3.684  15.121 -1.0960 -1.5870 -2.5305
19729TIP3    H280679   0.125   3.582  15.223 -1.4780 -0.0714 -0.7768
19730TIP3   OH280680   5.558   2.656   5.721  0.1104 -0.2205 -0.4076
19730TIP3    H180681   5.505   2.671   5.800  1.5407 -0.0708  0.5524
19730TIP3    H280682   5.648   2.674   5.748  0.6834 -0.5431 -1.9849
19731TIP3   OH280683   4.826   6.493   3.844  1.0302  0.1743 -0.3602
19731TIP3    H180684   4.834   6.399   3.857 -0.6618  0.1206  0.5063
19731TIP3    H280685   4.843   6.531   3.931 -0.9747  0.4568 -0.0485
19732TIP3   OH280686   3.036   3.680   0.795 -0.1635 -0.5696 -0.3227
19732TIP3    H180687   3.100   3.737   0.838 -0.3192  0.5102 -1.4494
19732TIP3    H280688   3.063   3.591   0.817  0.0293 -0.0749  1.5779
19733TIP3   OH280689   0.512   2.655   0.126 -0.0727 -0.2582 -0.2867
19733TIP3    H180690   0.595   2.619   0.094  0.3558  0.3633  0.1149
19733TIP3    H280691   0.454   2.653   0.049  0.0129 -1.5369 -0.3524
19734TIP3   OH280692   3.791   1.102  14.802 -0.0468 -0.2433 -0.1191
19734TIP3    H180693   3.697   1.084  14.805 -0.1781  0.4092 -0.2774
19734TIP3    H280694   3.804   1.177  14.860  0.2765  0.0862 -0.6115
19735TIP3   OH280695   3.979   2.663  11.096  0.0479  0.0431 -0.4327
19735TIP3    H180696   3.885   2.664  11.077  0.0167 -2.7024 -0.9361
19735TIP3    H280697   4.019   2.710  11.023 -0.8906  0.3810 -0.7384
19736TIP3   OH280698   4.617   2.580   3.189 -0.2882  0.6302  0.1327
19736TIP3    H180699   4.652   2.669   3.193 -1.1168  0.9630  0.0650
19736TIP3    H280700   4.695   2.525   3.181  0.1939  1.4050 -0.7555
19737TIP3   OH280701   2.365   5.082  17.143  0.0487 -0.0090 -0.6348
19737TIP3    H180702   2.270   5.088  17.134  0.0349  0.2298 -0.3689
19737TIP3    H280703   2.389   5.156  17.199  0.3322 -0.3399 -0.3010
19738TIP3   OH280704   5.148   1.859   0.038  0.3734 -0.3050  0.4051
19738TIP3    H180705   5.191   1.928  -0.012  1.5579 -2.4148 -1.6669
19738TIP3    H280706   5.070   1.901   0.075 -0.9634  1.3339 -3.7136
19739TIP3   OH280707   0.497   5.549   4.042 -0.1968  0.6254 -0.3969
19739TIP3    H180708   0.495   5.634   4.086  1.6365  0.1553  0.6915
19739TIP3    H280709   0.470   5.487   4.109  0.9130  0.0913 -0.4213
19740TIP3   OH280710   2.837   5.925   5.864  0.1362  0.1167 -0.6413
19740TIP3    H180711   2.878   5.840   5.876  0.5788  0.3393 -0.5381
19740TIP3    H280712   2.809   5.950   5.952 -1.1798 -0.5007 -0.8626
19741TIP3   OH280713   3.942   6.077   0.456  0.1637  0.4712  0.4812
19741TIP3    H180714   3.929   6.012   0.387  0.1962  1.5324 -0.5380
19741TIP3    H280715   3.998   6.032   0.520  1.2651 -0.0825 -0.8150
19742TIP3   OH280716   2.294   0.581   3.874  0.2792 -0.1358 -0.6595
19742TIP3    H180717   2.219   0.542   3.920 -0.7392  1.4243 -0.9148
19742TIP3    H280718   2.354   0.509   3.861  0.0438 -0.9036  1.9849
19743TIP3   OH280719   2.347   2.213  13.926  0.1354  0.1689 -0.3204
19743TIP3    H180720   2.278   2.199  13.991 -0.3461  1.1954 -0.5876
19743TIP3    H280721   2.336   2.141  13.864 -2.4077  1.6427 -1.7909
19744TIP3   OH280722   4.408   0.872  13.876  0.6523  0.0577  0.2403
19744TIP3    H180723   4.493   0.913  13.856  0.4818  1.1597  1.6445
19744TIP3    H280724   4.382   0.910  13.960 -0.2973 -1.7666  0.8298
19745TIP3   OH280725   4.991   4.680  17.168  0.2823  0.1815  0.9885
19745TIP3    H180726   5.045   4.736  17.224 -1.1425  0.6311  1.9945
19745TIP3    H280727   4.942   4.742  17.113 -0.6125 -0.1015  1.4490
19746TIP3   OH280728   4.711   6.011  13.763 -0.8322  0.1593 -0.7046
19746TIP3    H180729   4.751   5.980  13.844  1.1369  1.8016 -0.9729
19746TIP3    H280730   4.639   6.067  13.792  0.6032  1.7251  0.0264
19747TIP3   OH280731   0.820   3.734   4.176  0.1637  0.2715  0.6801
19747TIP3    H180732   0.891   3.694   4.124  0.5692  0.5417  1.0202
19747TIP3    H280733   0.771   3.786   4.113  0.9334  0.9714  0.6517
19748TIP3   OH280734   3.337   5.838  11.178  0.0330  0.0866  0.7843
19748TIP3    H180735   3.293   5.781  11.115  0.9795  2.3833 -2.1610
19748TIP3    H280736   3.268   5.898  11.208  0.3629  1.7604 -1.5381
19749TIP3   OH280737   2.995   3.028   2.030  0.0017 -0.3834 -0.2032
19749TIP3    H180738   2.976   2.994   1.943  1.4450  0.4625 -0.8925
19749TIP3    H280739   2.932   3.099   2.042 -1.3935 -1.6428  0.2307
19750TIP3   OH280740   2.091   4.312   3.524 -0.4010 -0.1016  0.4456
19750TIP3    H180741   2.022   4.364   3.565 -0.4664  0.1204  0.0623
19750TIP3    H280742   2.075   4.223   3.555 -2.9380 -0.7103 -2.1664
19751TIP3   OH280743   5.692   5.675   1.594  0.3608 -0.0322 -0.8906
19751TIP3    H180744   5.669   5.583   1.580 -0.4785 -0.0391  0.4629
19751TIP3    H280745   5.770   5.672   1.650 -1.3654  0.0529  1.6725
19752TIP3   OH280746   4.542   1.710   3.445  0.5539  0.1164  0.6414
19752TIP3    H180747   4.507   1.799   3.449  0.7910  0.3300 -1.0813
19752TIP3    H280748   4.620   1.713   3.500  0.0072  0.6848  1.4102
19753TIP3   OH280749   5.443   3.467  16.496  0.3687  0.2636  0.0278
19753TIP3    H180750   5.369   3.411  16.517 -1.1245  1.8450 -0.7417
19753TIP3    H280751   5.461   3.449  16.404 -0.6185  1.5343 -0.4398
19754TIP3   OH280752   5.014   1.610   0.913 -0.1877  0.0481 -0.0991
19754TIP3    H180753   4.981   1.536   0.861 -1.4116  0.5167 -0.0188
19754TIP3    H280754   4.939   1.668   0.923  0.9577  1.7359 -0.8667
19755TIP3   OH280755   0.982   6.422  14.299  0.0360 -0.3295 -0.4722
19755TIP3    H180756   0.999   6.516  14.294  0.8822 -0.3942  0.6815
19755TIP3    H280757   0.924   6.413  14.375  2.2797 -0.9566  1.2884
19756TIP3   OH280758   3.871   4.292  12.734  0.0299  0.2482  0.0155
19756TIP3    H180759   3.881   4.204  12.771  1.5291 -0.0746 -1.0866
19756TIP3    H280760   3.953   4.336  12.752  0.4010  0.4446 -1.8956
19757TIP3   OH280761   0.831   6.152  11.513  0.1906 -0.3960  0.2352
19757TIP3    H180762   0.735   6.150  11.512  0.2148 -2.5108 -0.7597
19757TIP3    H280763   0.853   6.227  11.457 -0.8548  0.0342  0.3606
19758TIP3   OH280764   6.667   5.424   3.639  0.3742 -0.2113 -0.1663
19758TIP3    H180765   6.717   5.382   3.569  0.2096  0.6102 -0.7811
19758TIP3    H280766   6.678   5.365   3.714  0.6018 -1.0633 -0.8562
19759TIP3   OH280767   6.652   2.130   6.606 -0.3945 -0.4067 -0.2710
19759TIP3    H180768   6.640   2.067   6.677 -0.0217  0.1720  0.3062
19759TIP3    H280769   6.694   2.078   6.537 -0.5243 -0.9099  0.0196
19760TIP3   OH280770   6.182   5.004  15.167 -0.1801  0.1464  0.3290
19760TIP3    H180771   6.132   5.004  15.086  0.1911 -1.0371  0.0815
19760TIP3    H280772   6.246   5.074  15.156 -0.0048 -0.1303 -0.4889
19761TIP3   OH280773   6.200   5.360   2.631  0.0024 -0.2693  0.1117
19761TIP3    H180774   6.143   5.362   2.553 -1.6646  0.7051  1.2810
19761TIP3    H280775   6.211   5.453   2.654  1.1865 -0.5088  0.5550
19762TIP3   OH280776   3.310   0.036  11.740  0.4359  0.3018  0.2914
19762TIP3    H180777   3.285   0.097  11.810 -1.4320  0.5609 -0.5575
19762TIP3    H280778   3.233   0.030  11.684 -0.2120 -4.2638  1.3062
19763TIP3   OH280779   5.674   4.133   4.394 -0.4597  0.2239 -0.9008
19763TIP3    H180780   5.710   4.075   4.327  0.5615 -1.0510  0.6921
19763TIP3    H280781   5.584   4.103   4.406  0.0081 -0.9852 -0.2109
19764TIP3   OH280782   1.906   1.807  16.338 -0.9250 -0.2492  0.0205
19764TIP3    H180783   1.939   1.796  16.427 -0.5178  1.5388  0.1422
19764TIP3    H280784   1.982   1.834  16.287 -0.9674 -2.0981 -1.0999
19765TIP3   OH280785   2.731   4.921   2.956  0.1015  0.1414 -0.0451
19765TIP3    H180786   2.681   4.917   2.874  0.0912  0.8048 -0.0817
19765TIP3    H280787   2.741   4.830   2.983 -1.9788 -0.0012  0.4679
19766TIP3   OH280788   5.403   3.699  13.931 -0.4481 -0.7987  0.1034
19766TIP3    H180789   5.372   3.717  13.842  0.2722 -1.1408 -0.2279
19766TIP3    H280790   5.390   3.781  13.978 -2.3977 -1.0919  0.1550
19767TIP3   OH280791   0.010   0.617  16.641 -0.0716  0.4014  0.5386
19767TIP3    H180792   0.003   0.712  16.629  1.0530  0.6615  1.7036
19767TIP3    H280793   0.003   0.581  16.553 -3.5490  1.2997  0.3044
19768TIP3   OH280794   1.565   3.279  14.459  0.2958  0.5152 -0.2470
19768TIP3    H180795   1.511   3.200  14.456 -1.0051  1.3953 -0.5760
19768TIP3    H280796   1.647   3.250  14.501  0.2401 -1.2105 -1.2482
19769TIP3   OH280797   0.175   6.053   1.571 -0.0141 -0.3773 -0.1469
19769TIP3    H180798   0.215   6.072   1.656  1.8073  1.3014 -1.2846
19769TIP3    H280799   0.176   6.137   1.525 -2.8486 -0.7930 -1.1267
19770TIP3   OH280800   1.890   1.572  12.239  0.2303 -0.1649  0.3049
19770TIP3    H180801   1.907   1.480  12.261 -2.1272 -0.5502  0.7922
19770TIP3    H280802   1.885   1.572  12.143 -2.4489 -1.1800  0.3560
19771TIP3   OH280803   4.359   6.585   4.216  0.0814 -0.2448  0.0600
19771TIP3    H180804   4.316   6.507   4.252  0.2565  0.4660  1.8913
19771TIP3    H280805   4.451   6.561   4.210 -0.1359 -0.8279 -1.2629
19772TIP3   OH280806   2.462   5.633  13.060  0.5295  0.1638  0.2718
19772TIP3    H180807   2.477   5.700  12.993  0.9488 -1.3019 -1.1597
19772TIP3    H280808   2.435   5.683  13.137  0.4979  1.9580 -0.8243
19773TIP3   OH280809   5.955   4.680  11.423  0.2693  0.0430  0.5261
19773TIP3    H180810   6.031   4.653  11.474  0.8574 -0.1965 -0.4427
19773TIP3    H280811   5.965   4.635  11.339 -1.5086 -0.8380  0.7356
19774TIP3   OH280812   3.241   1.453   0.803  0.1707  0.8297 -0.9415
19774TIP3    H180813   3.304   1.456   0.875 -0.9883  1.8826  0.0765
19774TIP3    H280814   3.243   1.542   0.767 -1.2761  1.1166 -0.3722
19775TIP3   OH280815   1.617   1.972  11.194 -0.3509  0.0900 -0.0791
19775TIP3    H180816   1.668   1.892  11.206  0.2085  0.6568  1.5810
19775TIP3    H280817   1.658   2.036  11.253 -2.2415  0.9163  0.4143
19776TIP3   OH280818   6.442   6.460  16.169 -0.3642 -0.0628 -0.9782
19776TIP3    H180819   6.367   6.479  16.226  0.4333  0.8209 -0.2036
19776TIP3    H280820   6.503   6.411  16.225  1.1575  2.2322 -0.5055
19777TIP3   OH280821   5.746   5.433  15.567  0.5833 -0.2699  0.6106
19777TIP3    H180822   5.807   5.497  15.603 -1.8293  2.5565  0.0434
19777TIP3    H280823   5.771   5.425  15.475  0.5571  0.3097  0.5507
19778TIP3   OH280824   6.547   2.438   3.504  0.3594  0.2258  0.5007
19778TIP3    H180825   6.477   2.474   3.558 -0.1504 -0.2533  0.1811
19778TIP3    H280826   6.512   2.439   3.415  1.6442  2.1545 -0.0514
19779TIP3   OH280827   0.435   4.815  17.248  0.5727 -0.1412 -0.7990
19779TIP3    H180828   0.358   4.761  17.233  0.3348  0.4239 -1.6957
19779TIP3    H280829   0.412   4.900  17.212  0.2070  1.1994  2.2892
19780TIP3   OH280830   3.085   1.712  12.906  0.2497  0.6916 -0.2322
19780TIP3    H180831   3.086   1.725  12.811 -1.8607  0.0397 -0.3940
19780TIP3    H280832   3.150   1.643  12.921 -0.4356 -0.2589 -1.4209
19781TIP3   OH280833   4.573   3.382   4.873  0.2274 -0.3455 -0.6740
19781TIP3    H180834   4.594   3.447   4.806 -1.9883 -0.8427 -1.9836
19781TIP3    H280835   4.576   3.430   4.955 -0.1451  1.1203 -1.4844
19782TIP3   OH280836   5.849   4.634   2.588 -0.6507  0.4772  0.0839
19782TIP3    H180837   5.931   4.660   2.545 -0.1887 -0.7674  0.1640
19782TIP3    H280838   5.822   4.555   2.541 -0.0283 -1.0398  2.1425
19783TIP3   OH280839   2.336   2.979   3.888  0.8190  0.8420  0.4351
19783TIP3    H180840   2.327   2.940   3.801 -0.0201  0.0795  0.8432
19783TIP3    H280841   2.322   3.073   3.873  0.8442  0.7407 -0.2778
19784TIP3   OH280842   6.057   2.251  16.394 -0.2886 -0.7800  0.6179
19784TIP3    H180843   6.005   2.212  16.464 -1.0796 -1.3491 -0.2532
19784TIP3    H280844   6.087   2.334  16.430 -2.8841  0.2062  0.7561
19785TIP3   OH280845   3.499   5.527  13.681 -0.0318 -0.5438  0.7588
19785TIP3    H180846   3.454   5.528  13.596  0.6297  1.0502  0.3954
19785TIP3    H280847   3.591   5.539  13.659  0.2039 -0.6389  1.6813
19786TIP3   OH280848   1.822   3.960  12.452 -0.3930 -0.3425 -0.2692
19786TIP3    H180849   1.870   4.008  12.385 -0.0635  0.3887  0.4774
19786TIP3    H280850   1.855   3.870  12.445  2.0472  0.3538  1.0103
19787TIP3   OH280851   0.068   3.494   0.863 -0.6219 -0.1376  0.0651
19787TIP3    H180852  -0.024   3.469   0.867 -0.6182 -0.0073  1.2364
19787TIP3    H280853   0.066   3.586   0.837 -0.7836 -0.3415 -0.6662
19788TIP3   OH280854   3.591   2.902  16.299 -0.1782  0.3426  0.2022
19788TIP3    H180855   3.632   2.934  16.218  0.0910 -0.5555 -0.0228
19788TIP3    H280856   3.509   2.864  16.270  0.1361 -0.4110  0.2831
19789TIP3   OH280857   5.726   4.840   3.355 -0.9738  0.1577 -0.1528
19789TIP3    H180858   5.747   4.848   3.262 -2.5593  3.8285 -0.3495
19789TIP3    H280859   5.641   4.796   3.356 -0.8050 -0.1834 -0.3979
19790TIP3   OH280860   2.911   2.648   3.160  0.3870 -0.3303  0.5289
19790TIP3    H180861   2.897   2.610   3.247  0.6878 -2.2602 -0.2176
19790TIP3    H280862   2.823   2.660   3.124  0.1716  1.9044  1.6072
19791TIP3   OH280863   3.436   2.424   1.275 -0.0592 -0.9791 -0.5356
19791TIP3    H180864   3.346   2.420   1.307  0.4424 -0.7667  0.9954
19791TIP3    H280865   3.451   2.517   1.256  0.0784 -0.8850  0.0030
19792TIP3   OH280866   6.616   5.463  10.704 -0.4099 -0.2404  0.1814
19792TIP3    H180867   6.692   5.407  10.717  1.6641  2.9132  3.6624
19792TIP3    H280868   6.557   5.440  10.776 -0.8479  0.1480 -0.0489
19793TIP3   OH280869   1.963   6.149  17.041  0.0390  0.5584 -0.0893
19793TIP3    H180870   2.054   6.140  17.069  0.5046  0.1192 -1.6495
19793TIP3    H280871   1.966   6.141  16.946 -1.5843  0.9966 -0.2107
19794TIP3   OH280872   4.347   2.027  11.394  0.2888  0.1304  0.4108
19794TIP3    H180873   4.302   1.944  11.406 -0.5741  0.2619 -1.5702
19794TIP3    H280874   4.348   2.067  11.481  0.9032 -1.9986  1.4450
19795TIP3   OH280875   1.637   5.212   0.840  0.0536 -0.0815  0.4745
19795TIP3    H180876   1.718   5.215   0.788 -1.5639  1.9786 -2.2122
19795TIP3    H280877   1.639   5.294   0.890 -0.8601  0.5810 -0.5306
19796TIP3   OH280878   2.264   2.106  11.487 -0.5574  0.1792 -0.1955
19796TIP3    H180879   2.273   2.038  11.420  2.7351 -1.2761  1.4538
19796TIP3    H280880   2.339   2.165  11.472 -1.7850  1.8872  0.0975
19797TIP3   OH280881   1.668   3.368  13.799  0.0913  0.6035 -0.4093
19797TIP3    H180882   1.725   3.440  13.773  0.8171 -0.1126 -0.8403
19797TIP3    H280883   1.683   3.358  13.893  1.3475 -0.1311 -0.6636
19798TIP3   OH280884   4.578   4.421   2.112  0.0707  0.4440 -0.0944
19798TIP3    H180885   4.570   4.442   2.205  0.8616 -1.0820  0.3494
19798TIP3    H280886   4.536   4.335   2.104 -1.0890  1.0931 -1.4030
19799TIP3   OH280887   1.300   3.208   3.859  0.4653  0.6197  0.0374
19799TIP3    H180888   1.246   3.239   3.786 -1.8809  0.4459  1.5909
19799TIP3    H280889   1.297   3.112   3.850 -0.1676  0.5846  0.5655
19800TIP3   OH280890   1.287   1.763  15.171  0.2907  0.1217 -0.5535
19800TIP3    H180891   1.222   1.754  15.101  1.9621 -1.6557 -2.0288
19800TIP3    H280892   1.352   1.823  15.135  1.1471 -0.7866 -0.5784
19801TIP3   OH280893   1.451   4.294  12.510 -0.4074 -0.4819  0.4009
19801TIP3    H180894   1.376   4.243  12.541 -0.1640 -0.7170  0.6052
19801TIP3    H280895   1.515   4.229  12.482 -0.9162 -0.2854 -1.3336
19802TIP3   OH280896   0.029   0.675   2.943  0.1911 -0.5295  0.2975
19802TIP3    H180897   0.008   0.598   2.996 -1.9618 -0.2628 -0.0591
19802TIP3    H280898  -0.056   0.703   2.908  1.1143  1.2210 -0.6571
19803TIP3   OH280899   3.259   0.529  14.953 -0.3446 -0.5907  0.4669
19803TIP3    H180900   3.296   0.530  15.041  1.7198 -1.4434 -0.3151
19803TIP3    H280901   3.335   0.517  14.896 -1.2674  2.5712 -1.6532
19804TIP3   OH280902   5.978   3.281   5.336  0.0723 -0.0828 -0.4482
19804TIP3    H180903   5.945   3.369   5.352 -2.4371 -1.1544  0.9954
19804TIP3    H280904   6.026   3.258   5.415 -0.6452 -0.5388 -0.1316
19805TIP3   OH280905   4.816   1.047   4.472  0.3157 -0.1889  0.3169
19805TIP3    H180906   4.816   1.092   4.388  0.2786 -0.1844  0.3197
19805TIP3    H280907   4.806   1.117   4.537 -0.4896 -0.2706  0.2874
19806TIP3   OH280908   6.707   5.546   2.088  0.1643  0.4141  0.0549
19806TIP3    H180909   6.716   5.623   2.144  1.2883  0.4909 -0.2024
19806TIP3    H280910   6.796   5.528   2.058 -0.3060 -0.0718 -1.1085
19807TIP3   OH280911   1.327   0.875   2.154 -0.8164  0.3242  0.0262
19807TIP3    H180912   1.349   0.843   2.067  0.0242 -1.9873  0.9880
19807TIP3    H280913   1.411   0.889   2.197 -1.1980 -0.1242  0.9536
19808TIP3   OH280914   2.037   0.289   4.593  0.1334  0.2424 -0.1136
19808TIP3    H180915   2.127   0.263   4.576 -0.2294  0.8937 -3.6703
19808TIP3    H280916   2.003   0.219   4.649  2.5988 -0.3424  0.7864
19809TIP3   OH280917   1.248   5.903   4.171  0.6987  0.2806 -0.4818
19809TIP3    H180918   1.214   5.929   4.086  0.4166  0.1232 -0.4196
19809TIP3    H280919   1.170   5.894   4.226  0.8276 -0.2266 -0.3765
19810TIP3   OH280920   5.767   0.316   0.736  0.2944 -0.9496 -0.0224
19810TIP3    H180921   5.858   0.292   0.750  0.2411 -1.1909 -0.0882
19810TIP3    H280922   5.770   0.410   0.716  0.3398 -0.4749  1.9860
19811TIP3   OH280923   1.778   4.308  10.610 -0.5619 -0.0430  0.4942
19811TIP3    H180924   1.746   4.220  10.628  0.9438 -0.1174  3.5670
19811TIP3    H280925   1.743   4.361  10.682  0.0867  1.4572 -0.2517
19812TIP3   OH280926   2.676   1.985  16.539 -0.0316  0.3207  0.5670
19812TIP3    H180927   2.734   1.943  16.603 -0.0979  0.2623  0.5880
19812TIP3    H280928   2.631   1.912  16.496  3.2102 -0.0834 -2.7132
19813TIP3   OH280929   4.301   3.436  16.538  0.2056 -0.1566 -0.2940
19813TIP3    H180930   4.220   3.486  16.547 -0.5490 -1.1626 -1.1752
19813TIP3    H280931   4.358   3.469  16.607 -0.8933  0.6918  0.2360
19814TIP3   OH280932   5.793   4.273  16.905  0.0150 -0.4059  0.2109
19814TIP3    H180933   5.775   4.366  16.892  2.0479  0.0606  0.4859
19814TIP3    H280934   5.715   4.229  16.871 -1.1853  1.3992  0.5130
19815TIP3   OH280935   2.006   1.546   0.130 -0.5536 -0.2226  0.2150
19815TIP3    H180936   2.044   1.526   0.044 -0.0997  1.2482  0.0511
19815TIP3    H280937   2.055   1.492   0.191 -1.0433 -1.4780 -0.4595
19816TIP3   OH280938   3.690   4.422   3.888 -0.6761  0.0645 -0.3447
19816TIP3    H180939   3.627   4.419   3.816  0.9513  1.3526 -1.9117
19816TIP3    H280940   3.690   4.513   3.917 -0.1051 -0.0896  0.1633
19817TIP3   OH280941   1.604   3.793   3.844  0.4997  0.4704 -0.1168
19817TIP3    H180942   1.542   3.768   3.912  2.8690  2.3305  2.9669
19817TIP3    H280943   1.667   3.721   3.842 -0.7566 -0.6825 -2.1596
19818TIP3   OH280944   5.969   5.108   1.890  0.0860 -0.4331  0.1871
19818TIP3    H180945   5.972   5.137   1.799 -0.5526 -1.3619 -0.1452
19818TIP3    H280946   5.914   5.174   1.934  1.4654  0.7449  0.2049
19819TIP3   OH280947   4.523   5.615   0.561 -0.3145  0.2014  0.3358
19819TIP3    H180948   4.451   5.674   0.582 -0.0916  0.2891  0.8876
19819TIP3    H280949   4.545   5.636   0.470 -1.7372 -0.6447 -0.2316
19820TIP3   OH280950   6.469   2.692  16.352  0.5100  0.7128  0.0144
19820TIP3    H180951   6.441   2.778  16.321  0.6148  0.9943  0.6942
19820TIP3    H280952   6.565   2.693  16.343  0.5204  0.7022  0.1268
19821TIP3   OH280953   4.521   4.723  13.963  0.2117  0.3019 -0.3049
19821TIP3    H180954   4.538   4.813  13.936  1.5333 -0.2208 -1.3238
19821TIP3    H280955   4.474   4.684  13.889 -1.3980  0.4375  0.5984
19822TIP3   OH280956   4.108   5.128  15.668 -0.1884  0.2372  0.0122
19822TIP3    H180957   4.019   5.148  15.697 -0.1504  1.3259 -0.5413
19822TIP3    H280958   4.148   5.082  15.741 -0.5159  1.7012  1.1650
19823TIP3   OH280959   5.317   5.668   6.165 -0.5055 -0.1484 -0.1266
19823TIP3    H180960   5.243   5.612   6.142 -0.9541  0.8248 -1.1514
19823TIP3    H280961   5.387   5.642   6.105  0.2791 -1.5809  1.3301
19824TIP3   OH280962   3.836   5.554   4.375 -0.0852 -0.0376  0.2992
19824TIP3    H180963   3.811   5.586   4.289  1.9876 -0.2070 -0.4403
19824TIP3    H280964   3.775   5.596   4.436 -0.3342  1.6731 -1.0636
19825TIP3   OH280965   2.861   6.450   3.094  0.8030 -0.1885 -0.2691
19825TIP3    H180966   2.857   6.462   3.189  0.7213 -2.3255  0.0509
19825TIP3    H280967   2.910   6.526   3.062 -0.3021  1.2733  1.3093
19826TIP3   OH280968   5.059   2.468   4.023 -0.1223  0.5491 -0.3172
19826TIP3    H180969   5.116   2.544   4.025  0.6163  0.0051 -0.1983
19826TIP3    H280970   5.003   2.478   4.100 -0.1743  1.0735 -0.4213
19827TIP3   OH280971   2.543   5.032   3.327 -0.2605  0.2417  0.6360
19827TIP3    H180972   2.619   5.064   3.376  1.0106 -0.8181 -0.5797
19827TIP3    H280973   2.468   5.065   3.377  0.9678  1.4120  1.8157
19828TIP3   OH280974   5.198   4.957   2.841 -0.3067 -0.6868  0.7466
19828TIP3    H180975   5.247   5.015   2.783 -0.2879 -0.0202  1.4181
19828TIP3    H280976   5.203   4.871   2.799  0.1881 -0.3308  0.0606
19829TIP3   OH280977   4.974   4.182   5.420 -0.2912 -0.2607  0.3876
19829TIP3    H180978   5.016   4.154   5.339  0.5965 -0.3408  0.8628
19829TIP3    H280979   4.956   4.100   5.467  0.1485 -0.1669  0.7264
19830TIP3   OH280980   5.496   6.640   4.101 -0.0022 -0.6490 -0.4526
19830TIP3    H180981   5.479   6.620   4.193  0.2322 -2.0548 -0.6976
19830TIP3    H280982   5.409   6.644   4.061 -0.1752  1.0477  0.0088
19831TIP3   OH280983   2.047   3.222  12.980 -0.3351 -0.1752  0.5209
19831TIP3    H180984   2.001   3.301  12.953 -0.7981  0.2205  2.3089
19831TIP3    H280985   2.121   3.254  13.032 -0.4293 -0.8922  1.1115
19832TIP3   OH280986   6.147   3.218   3.337  0.1307 -0.0013  0.0741
19832TIP3    H180987   6.139   3.178   3.423 -1.0425 -1.2335 -0.5694
19832TIP3    H280988   6.207   3.291   3.350  3.7123 -2.8336  0.9837
19833TIP3   OH280989   3.672   0.575   6.279  0.0848 -0.5850 -0.1961
19833TIP3    H180990   3.744   0.526   6.238 -0.3514 -0.3633 -1.2755
19833TIP3    H280991   3.593   0.533   6.245 -0.3282 -1.4194  1.7052
19834TIP3   OH280992   6.681   4.003  14.781 -0.3710 -0.9236 -0.4241
19834TIP3    H180993   6.725   3.920  14.762 -0.9959 -1.1510 -0.8864
19834TIP3    H280994   6.605   4.004  14.724 -0.5930 -0.2109 -0.1280
19835TIP3   OH280995   4.464   0.525   1.556 -0.0824 -0.1160 -0.1680
19835TIP3    H180996   4.433   0.535   1.647 -0.3087 -1.7315 -0.0280
19835TIP3    H280997   4.422   0.597   1.509 -1.1032 -0.0694  0.7456
19836TIP3   OH280998   4.182   1.090   3.060 -0.1643  0.1399  0.9332
19836TIP3    H180999   4.166   1.110   3.152  2.2431 -2.3101  2.0057
19836TIP3    H281000   4.255   1.146   3.035 -1.1704  1.2080  0.2836
19837TIP3   OH281001   3.776   6.707  12.241  0.3793 -0.5993  0.5129
19837TIP3    H181002   3.848   6.715  12.178 -0.0989 -0.4574 -0.0214
19837TIP3    H281003   3.697   6.719  12.189 -0.1937 -3.4872  0.5534
19838TIP3   OH281004   6.730   0.131  11.660 -0.0277  0.3362  0.7456
19838TIP3    H181005   6.638   0.147  11.639 -0.1544 -0.9634  0.2433
19838TIP3    H281006   6.776   0.146  11.577  0.0923  0.0408  0.7577
19839TIP3   OH281007   1.673   5.740   4.484 -0.5515  0.5357 -0.3021
19839TIP3    H181008   1.665   5.772   4.394  0.7480 -0.7994 -0.9460
19839TIP3    H281009   1.591   5.694   4.500 -0.6772  0.5317 -0.9138
19840TIP3   OH281010   1.853   3.520  11.969 -0.5309 -0.3634  0.2041
19840TIP3    H181011   1.886   3.453  12.029 -0.6460 -1.5745 -1.0481
19840TIP3    H281012   1.758   3.519  11.983 -0.7189 -1.6843 -1.0026
19841TIP3   OH281013   2.840   4.962   5.260  0.5632  0.5883  0.3544
19841TIP3    H181014   2.829   4.888   5.201  0.5570  2.1309 -1.6787
19841TIP3    H281015   2.853   5.038   5.203  1.2393  2.0855  2.3424
19842TIP3   OH281016   4.456   1.798  15.373 -0.2173  0.0978  0.0176
19842TIP3    H181017   4.433   1.714  15.411 -0.9804  0.8379  1.2587
19842TIP3    H281018   4.496   1.847  15.446  2.9976 -0.1844 -1.3639
19843TIP3   OH281019   5.030   5.828  16.854 -0.0688 -0.5219 -0.0361
19843TIP3    H181020   4.943   5.844  16.890  0.1809 -0.2821  0.4608
19843TIP3    H281021   5.073   5.914  16.854 -0.0881 -0.4915 -0.9806
19844TIP3   OH281022   1.970   1.977   1.803  0.2052  0.3212  0.7363
19844TIP3    H181023   1.999   1.923   1.729 -2.6205  1.1779 -1.1264
19844TIP3    H281024   1.932   1.914   1.865 -0.3270 -0.1239 -0.0296
19845TIP3   OH281025   1.498   3.811   2.560 -0.5425  0.2839  0.0107
19845TIP3    H181026   1.465   3.728   2.595  0.9790 -0.2090  0.3480
19845TIP3    H281027   1.558   3.843   2.627  2.3034 -0.5736 -1.9431
19846TIP3   OH281028   1.915   4.255  12.638  0.0975 -0.6201 -0.2128
19846TIP3    H181029   1.885   4.166  12.655  1.2980 -0.8537  0.7781
19846TIP3    H281030   1.879   4.307  12.709 -3.2692  0.3792 -2.4272
19847TIP3   OH281031   4.743   1.817  15.992 -0.2303  0.3973  0.5203
19847TIP3    H181032   4.672   1.831  15.929  0.9301  0.9054 -0.7417
19847TIP3    H281033   4.764   1.905  16.024 -0.9833  0.1123  1.8428
19848TIP3   OH281034   1.100   1.475  10.732 -0.5134 -0.1934  0.2941
19848TIP3    H181035   1.113   1.415  10.659  0.4326 -0.1958  0.4547
19848TIP3    H281036   1.149   1.435  10.805  0.6016  1.0407  0.2483
19849TIP3   OH281037   0.981   6.602  13.991  0.0536 -0.4002 -0.0383
19849TIP3    H181038   0.958   6.683  14.037  0.3150  0.0383 -0.6594
19849TIP3    H281039   1.073   6.613  13.968 -0.4736  0.1340 -2.1121
19850TIP3   OH281040   6.519   2.090  12.467 -0.3206 -0.3626  0.1042
19850TIP3    H181041   6.462   2.133  12.404  2.4900  2.6309 -0.6850
19850TIP3    H281042   6.568   2.026  12.415 -0.3578 -0.2657 -0.0514
19851TIP3   OH281043   2.577   3.795   6.130 -0.0961  0.2571  0.5981
19851TIP3    H181044   2.636   3.720   6.131 -1.4208 -0.8258 -0.2920
19851TIP3    H281045   2.576   3.825   6.221  0.7861 -0.5286  0.8797
19852TIP3   OH281046   1.944   4.997  13.363 -0.1453 -0.3505  0.3074
19852TIP3    H181047   1.864   4.947  13.346 -0.1609 -0.2230 -0.0009
19852TIP3    H281048   2.012   4.953  13.312 -0.4488  0.7958 -1.1816
19853TIP3   OH281049   0.284   5.105  14.166  0.1269  0.3081 -0.2479
19853TIP3    H181050   0.240   5.151  14.237 -0.0803 -0.9849  0.4924
19853TIP3    H281051   0.219   5.043  14.134  0.9896 -0.7625  0.0212
19854TIP3   OH281052   2.854   2.522  11.276 -0.3974 -0.2005  0.3091
19854TIP3    H181053   2.850   2.528  11.181  3.3965 -0.1280  0.0027
19854TIP3    H281054   2.863   2.612  11.306  1.9123 -0.3727  0.3372
19855TIP3   OH281055   3.979   1.702   5.266  0.3188 -0.5593  0.0992
19855TIP3    H181056   3.894   1.661   5.249 -0.3637  0.3112  1.2848
19855TIP3    H281057   4.018   1.647   5.334  0.3411 -0.4860  0.1456
19856TIP3   OH281058   3.016   0.741   0.101 -0.1351  0.2608  0.6642
19856TIP3    H181059   3.077   0.699   0.161 -1.2755  0.1405  1.7733
19856TIP3    H281060   2.929   0.712   0.130 -0.9427  2.7886  1.0309
19857TIP3   OH281061   0.091   5.549   5.802  0.3562  0.6251 -0.6589
19857TIP3    H181062   0.111   5.537   5.709  0.0960 -0.8472 -0.5508
19857TIP3    H281063   0.004   5.589   5.803 -0.9921 -2.0586 -1.0938
19858TIP3   OH281064   3.678   3.094   0.171  0.2214 -0.2163 -0.7371
19858TIP3    H181065   3.727   3.162   0.218  0.6377 -1.6432  0.9744
19858TIP3    H281066   3.728   3.080   0.090  0.8185  0.6022 -0.5223
19859TIP3   OH281067   3.183   0.123  13.464 -0.0409 -0.1508  0.2572
19859TIP3    H181068   3.091   0.146  13.451 -0.6847 -1.6232  1.7948
19859TIP3    H281069   3.212   0.094  13.377 -1.8825 -2.2742  0.2310
19860TIP3   OH281070   2.026   3.022  16.928  0.1817  0.2926  0.2545
19860TIP3    H181071   1.966   3.096  16.941 -0.6226 -0.6136  2.2197
19860TIP3    H281072   1.974   2.957  16.880  0.7999  0.8483 -1.2271
19861TIP3   OH281073   2.769   1.604  16.115 -0.3091  0.7753 -0.1796
19861TIP3    H181074   2.726   1.681  16.151 -1.3724  1.2541 -2.2975
19861TIP3    H281075   2.813   1.636  16.036  2.3426 -0.1087  0.8387
19862TIP3   OH281076   5.765   0.580  14.020  0.1583  0.3839  0.2195
19862TIP3    H181077   5.774   0.574  14.115 -1.6494  0.5455  0.4313
19862TIP3    H281078   5.774   0.490  13.989 -0.2017  0.1998  0.6418
19863TIP3   OH281079   6.149   6.155  14.646  0.2376  0.6427  0.1436
19863TIP3    H181080   6.143   6.091  14.717 -0.0712  1.2794  0.6989
19863TIP3    H281081   6.125   6.239  14.686 -1.0425  0.8463 -0.9622
19864TIP3   OH281082   4.099   6.184   6.399  0.1503  0.1004  0.2110
19864TIP3    H181083   4.159   6.257   6.384  3.1264 -2.1951  0.0798
19864TIP3    H281084   4.052   6.208   6.479  2.1539  1.5100  1.0517
19865TIP3   OH281085   2.579   1.626  11.860  0.3979  0.2346 -0.7423
19865TIP3    H181086   2.674   1.621  11.870  0.2812 -0.3703  0.2348
19865TIP3    H281087   2.551   1.686  11.929 -0.0231 -0.4377 -0.3214
19866TIP3   OH281088   0.581   5.163   4.086  0.0699 -0.3563 -0.0849
19866TIP3    H181089   0.667   5.205   4.099  0.6300 -1.1638 -1.0271
19866TIP3    H281090   0.582   5.089   4.146 -1.0623  1.0857  1.8427
19867TIP3   OH281091   0.456   1.865   3.015 -0.1920  0.0555 -0.6042
19867TIP3    H181092   0.401   1.943   3.023 -1.3802 -0.6491 -1.6152
19867TIP3    H281093   0.419   1.803   3.077  2.7134  1.2640  2.6920
19868TIP3   OH281094   0.600   4.182  12.781 -0.1028  0.1085  0.1792
19868TIP3    H181095   0.523   4.185  12.837  0.6098 -1.1681  1.2860
19868TIP3    H281096   0.569   4.213  12.695 -1.4041  1.3049  1.0415
19869TIP3   OH281097   0.080   4.159  14.454  0.0412 -0.0995  0.3792
19869TIP3    H181098   0.032   4.094  14.403 -0.6839 -0.3629  1.3495
19869TIP3    H281099   0.157   4.113  14.487 -0.7320 -0.6512  1.4865
19870TIP3   OH281100   4.767   4.459  12.375 -0.2045 -0.6671 -0.0306
19870TIP3    H181101   4.811   4.490  12.296 -0.5512 -0.6254 -0.2065
19870TIP3    H281102   4.824   4.488  12.447 -1.3417  1.8644 -0.0734
19871TIP3   OH281103   0.806   4.905  15.422 -0.0124  0.2068  0.0642
19871TIP3    H181104   0.852   4.903  15.506 -1.0598 -1.7595  0.6636
19871TIP3    H281105   0.720   4.868  15.442  0.4052 -2.2995 -2.2366
19872TIP3   OH281106   2.385   3.060   3.170 -0.4108  0.2647 -0.1080
19872TIP3    H181107   2.349   2.997   3.107 -2.7649  0.7339  0.6641
19872TIP3    H281108   2.479   3.042   3.171 -0.7747 -2.0828 -1.1661
19873TIP3   OH281109   4.732   2.983  15.554 -0.7264 -0.4518 -0.2518
19873TIP3    H181110   4.797   2.930  15.600  0.9487  2.7089  1.3449
19873TIP3    H281111   4.649   2.961  15.597 -0.4144 -2.8722 -0.7579
19874TIP3   OH281112   6.668   1.824  13.693  0.6078 -0.3870  0.3867
19874TIP3    H181113   6.655   1.778  13.776  0.3691 -0.9193  0.0622
19874TIP3    H281114   6.711   1.759  13.636 -0.5773 -0.5248 -0.3755
19875TIP3   OH281115   2.056   0.167  12.313 -0.0627  0.3704  0.0501
19875TIP3    H181116   1.990   0.235  12.326  1.2397  1.4520  1.4158
19875TIP3    H281117   2.097   0.189  12.229 -1.7667 -0.6760 -1.1289
19876TIP3   OH281118   3.865   1.305   0.519  0.2223 -0.3657  0.2348
19876TIP3    H181119   3.916   1.339   0.446  0.0107 -0.7936 -0.1199
19876TIP3    H281120   3.928   1.257   0.573 -0.0303 -2.1742 -0.9890
19877TIP3   OH281121   5.517   3.637   0.856  0.0525 -0.1061 -0.3461
19877TIP3    H181122   5.571   3.716   0.847  0.4838 -0.5757 -2.5401
19877TIP3    H281123   5.526   3.592   0.772 -0.3220 -2.4302  0.7728
19878TIP3   OH281124   3.447   6.658   0.624 -0.5046 -0.4146  0.1111
19878TIP3    H181125   3.470   6.587   0.564 -1.1031 -0.0873 -0.5311
19878TIP3    H281126   3.530   6.684   0.663  0.1210  0.1662 -1.5016
19879TIP3   OH281127   1.649   6.339  16.163  0.3885 -0.2567  0.1310
19879TIP3    H181128   1.701   6.349  16.242 -0.3676  0.8806  0.5207
19879TIP3    H281129   1.692   6.397  16.099  2.7561 -3.3333 -1.3150
19880TIP3   OH281130   4.953   1.756  13.019 -0.4117  0.5666 -0.6924
19880TIP3    H181131   4.884   1.732  12.957 -0.5259  0.7781 -0.6448
19880TIP3    H281132   5.034   1.730  12.975 -0.4894  0.7761 -0.9610
19881TIP3   OH281133   4.751   1.687   4.161  0.8020 -0.2250  0.5832
19881TIP3    H181134   4.686   1.750   4.128  0.3918 -2.1568 -2.8199
19881TIP3    H281135   4.809   1.739   4.216 -2.4103  2.0080  2.1571
19882TIP3   OH281136   6.649   5.353  16.043 -0.2561 -0.3238  0.1082
19882TIP3    H181137   6.609   5.419  16.099 -0.5847  0.2828 -0.8216
19882TIP3    H281138   6.604   5.362  15.959  3.2439  1.8644 -1.7282
19883TIP3   OH281139   5.963   3.571  12.090  0.6857 -0.8583 -0.0578
19883TIP3    H181140   6.002   3.509  12.151 -0.9706 -1.0570  0.8626
19883TIP3    H281141   6.037   3.620  12.054  1.7716 -1.2834  1.5237
19884TIP3   OH281142   3.665   0.552  11.311 -0.7690  0.2421  0.1846
19884TIP3    H181143   3.668   0.641  11.345  0.5346  0.4927 -0.5363
19884TIP3    H281144   3.639   0.562  11.220 -1.6451 -0.2206  0.3688
19885TIP3   OH281145   0.926   0.700  12.719  0.5522 -0.0909  0.3415
19885TIP3    H181146   0.976   0.771  12.679 -2.7625  1.0975 -2.1059
19885TIP3    H281147   0.911   0.637  12.648  0.1434 -1.3054  1.4607
19886TIP3   OH281148   0.630   0.985  16.683 -0.2996 -0.1538  0.2906
19886TIP3    H181149   0.683   0.945  16.614 -0.0688 -1.2894  1.1012
19886TIP3    H281150   0.693   1.030  16.739 -0.2483 -0.8627  0.8244
19887TIP3   OH281151   6.244   2.515   3.520 -0.5166  0.0027 -0.1106
19887TIP3    H181152   6.261   2.606   3.495 -1.5853  0.1843 -0.2210
19887TIP3    H281153   6.149   2.507   3.518 -0.4605 -0.9679  0.4486
19888TIP3   OH281154   4.431   3.462  12.607  0.0271  0.0953 -0.1379
19888TIP3    H181155   4.374   3.488  12.535  2.1388 -0.2397 -2.0454
19888TIP3    H281156   4.373   3.415  12.668 -1.6369 -0.6416 -2.1654
19889TIP3   OH281157   1.784   1.107   2.497  0.3842  0.0356  0.0960
19889TIP3    H181158   1.864   1.063   2.470 -0.1950 -0.8621 -0.2214
19889TIP3    H281159   1.813   1.176   2.556  1.4760  0.4630 -0.9115
19890TIP3   OH281160   1.034   4.454   2.740 -0.2620  0.3425 -0.0354
19890TIP3    H181161   1.042   4.473   2.646 -1.0150  0.2481 -0.1300
19890TIP3    H281162   1.011   4.539   2.779  0.7184  0.5234  0.1644
19891TIP3   OH281163   6.345   2.508  15.675 -0.0011 -0.1010  0.0797
19891TIP3    H181164   6.439   2.526  15.669  0.0234 -0.0360  0.5992
19891TIP3    H281165   6.306   2.590  15.705 -0.2777 -0.0085 -0.5199
19892TIP3   OH281166   2.340   5.625  11.361  0.0246 -0.5751 -0.8494
19892TIP3    H181167   2.406   5.693  11.368 -0.3924  0.0310 -2.3375
19892TIP3    H281168   2.317   5.604  11.451 -0.1304  1.5642 -0.3344
19893TIP3   OH281169   4.223   4.495   2.371  0.1757  1.0476 -0.2574
19893TIP3    H181170   4.247   4.484   2.279 -0.9752  1.1055 -0.5774
19893TIP3    H281171   4.289   4.556   2.405  1.0561  0.4438 -0.8435
19894TIP3   OH281172   5.780   0.742  11.694 -0.1515  0.1695  0.1221
19894TIP3    H181173   5.849   0.806  11.677 -0.2788  0.6014  1.1675
19894TIP3    H281174   5.806   0.700  11.777 -2.4106  2.1732  2.0095
19895TIP3   OH281175   2.843   0.513  17.227 -0.0385  0.1894 -0.0030
19895TIP3    H181176   2.800   0.428  17.239  2.6831 -1.2152  0.6470
19895TIP3    H281177   2.810   0.567  17.299 -1.7945 -0.2567 -0.4185
19896TIP3   OH281178   5.843   4.710  10.746  0.3592  0.2180 -0.5080
19896TIP3    H181179   5.903   4.638  10.728 -0.6660 -0.7414 -0.1541
19896TIP3    H281180   5.823   4.703  10.839  2.5374  2.7729  0.2683
19897TIP3   OH281181   5.599   1.831   3.029 -0.1071 -0.6028  0.6089
19897TIP3    H181182   5.609   1.916   2.985  0.1541 -0.6229  0.6307
19897TIP3    H281183   5.519   1.794   2.991 -0.3266 -0.2638  0.7388
19898TIP3   OH281184   1.398   6.298   2.591  0.2190  0.0112  0.2938
19898TIP3    H181185   1.340   6.292   2.667 -1.1127 -0.2000 -0.6966
19898TIP3    H281186   1.470   6.239   2.611 -0.6436 -0.8505  0.9437
19899TIP3   OH281187   2.133   1.920  15.661 -0.4661 -0.5334  0.0641
19899TIP3    H181188   2.188   1.994  15.688 -0.6697 -0.5319  0.4796
19899TIP3    H281189   2.155   1.906  15.569 -1.7101  1.1885 -0.5415
19900TIP3   OH281190   1.281   6.180  16.674  0.0973  0.0688 -0.0943
19900TIP3    H181191   1.229   6.256  16.702  0.9354  0.4807  0.3874
19900TIP3    H281192   1.263   6.173  16.580  1.2696  1.9035 -0.5054
19901TIP3   OH281193   3.500   3.189   3.013  0.1857  0.2687 -0.1307
19901TIP3    H181194   3.418   3.221   2.976  0.6740  1.5296 -0.1658
19901TIP3    H281195   3.513   3.243   3.091  1.1105  0.2581 -0.2758
19902TIP3   OH281196   0.468   5.022  14.773  0.0695 -0.3795 -0.1278
19902TIP3    H181197   0.530   5.017  14.701  1.3400  2.3015  0.6749
19902TIP3    H281198   0.488   4.945  14.827  1.1281 -0.7976 -1.0819
19903TIP3   OH281199   0.558   2.682   2.849  0.4351 -0.0324 -0.2046
19903TIP3    H181200   0.602   2.600   2.871  0.1354 -0.3156 -0.6528
19903TIP3    H281201   0.630   2.742   2.828  0.7017  0.1032  1.0316
19904TIP3   OH281202   2.869   4.693  14.037  0.5768  0.4720  0.0206
19904TIP3    H181203   2.853   4.598  14.042  0.4671  0.5418  3.4532
19904TIP3    H281204   2.926   4.704  13.961  2.5480 -2.6892  0.8475
19905TIP3   OH281205   4.494   3.396  11.309 -0.1414  0.6515  0.0850
19905TIP3    H181206   4.429   3.334  11.277 -0.9782  0.4986  1.9784
19905TIP3    H281207   4.559   3.400  11.239 -0.4673 -1.7478 -0.4425
19906TIP3   OH281208   3.356   1.000  11.280 -0.1752 -0.0284 -0.3421
19906TIP3    H181209   3.298   0.978  11.353 -0.3542 -0.3520 -0.5757
19906TIP3    H281210   3.322   1.084  11.247 -1.5302 -0.9747 -1.4794
19907TIP3   OH281211   4.284   6.616   5.897 -0.2836  0.1034 -0.0863
19907TIP3    H181212   4.226   6.545   5.924  0.5190 -0.9090 -0.9228
19907TIP3    H281213   4.271   6.622   5.802 -2.9641  3.4925  0.2714
19908TIP3   OH281214   2.665   2.294   2.236  0.1164 -0.2546  0.1241
19908TIP3    H181215   2.708   2.332   2.160 -1.0849  0.8025 -0.0494
19908TIP3    H281216   2.644   2.368   2.292 -0.0549 -0.9087  0.9438
19909TIP3   OH281217   0.608   2.608   1.173  0.3317  0.0360 -0.1306
19909TIP3    H181218   0.550   2.670   1.217 -0.0990 -0.8700  0.5912
19909TIP3    H281219   0.655   2.564   1.244 -1.6286 -2.6905 -0.4012
19910TIP3   OH281220   4.927   1.122  13.153 -0.4928 -0.5724 -0.5384
19910TIP3    H181221   4.900   1.093  13.066 -0.1147  0.3118 -0.9645
19910TIP3    H281222   5.019   1.096  13.159 -0.7003 -1.2422 -0.1226
19911TIP3   OH281223   2.402   3.100   3.464 -0.1562 -0.0112  0.7211
19911TIP3    H181224   2.309   3.091   3.484 -0.7341  3.2753 -0.0092
19911TIP3    H281225   2.407   3.096   3.368  0.1849  1.4496  0.6552
19912TIP3   OH281226   5.245   3.491   1.628 -0.2656 -0.3243 -0.3374
19912TIP3    H181227   5.294   3.439   1.564  0.5769  0.1042 -0.0596
19912TIP3    H281228   5.310   3.550   1.666 -1.1700  0.8687 -0.5719
19913TIP3   OH281229   4.924   0.114   5.244 -0.2005 -0.2799  0.0976
19913TIP3    H181230   4.947   0.021   5.241 -1.1037 -0.5164  0.1916
19913TIP3    H281231   4.839   0.116   5.286 -0.1484  0.6064  0.1739
19914TIP3   OH281232   0.330   3.034  16.579  0.5985  0.1476 -0.3601
19914TIP3    H181233   0.417   3.072  16.591 -0.2798  2.2323 -0.2951
19914TIP3    H281234   0.331   3.003  16.488  1.0798  1.0907 -0.6955
19915TIP3   OH281235   2.912   4.914   0.389 -0.0711  0.1842 -0.1314
19915TIP3    H181236   2.967   4.883   0.461 -0.0034  0.3991 -0.0910
19915TIP3    H281237   2.974   4.947   0.324 -0.1834  1.5673  0.4310
19916TIP3   OH281238   5.419   4.392   1.759  0.2595  0.1277  0.1739
19916TIP3    H181239   5.395   4.300   1.748 -0.8179  0.1976  1.7043
19916TIP3    H281240   5.513   4.390   1.777  0.4337 -0.5812 -0.7360
19917TIP3   OH281241   5.589   6.689  10.982  0.0921  0.6758 -0.1727
19917TIP3    H181242   5.567   6.597  10.998  0.7013  0.3688 -1.0621
19917TIP3    H281243   5.505   6.733  10.976 -0.2114  0.4117  1.4839
19918TIP3   OH281244   0.173   6.455  14.636 -0.2617 -0.2187 -0.7337
19918TIP3    H181245   0.196   6.437  14.545 -1.1752 -0.3571 -0.9534
19918TIP3    H281246   0.121   6.536  14.632 -1.2497 -0.8262 -0.4807
19919TIP3   OH281247   6.042   1.621  10.543 -0.7295 -0.5939  0.0734
19919TIP3    H181248   6.014   1.531  10.524 -2.2063  0.1629 -1.6376
19919TIP3    H281249   5.962   1.673  10.536 -0.0348  0.7958  1.7238
19920TIP3   OH281250   1.557   2.713  13.658  0.1843 -0.4360  0.1625
19920TIP3    H181251   1.462   2.720  13.669  0.1390 -1.6594  0.7221
19920TIP3    H281252   1.575   2.762  13.578 -0.7788  0.6532  0.5891
19921TIP3   OH281253   2.655   3.038  13.382  0.3018 -0.4064 -0.1652
19921TIP3    H181254   2.631   3.032  13.290  1.3320 -1.1588 -0.4088
19921TIP3    H281255   2.665   3.131  13.399 -0.2809 -0.2432 -0.7050
19922TIP3   OH281256   4.961   2.147  16.099  0.1454 -0.4065  0.2978
19922TIP3    H181257   4.871   2.126  16.075  0.0769  0.4714 -0.2621
19922TIP3    H281258   5.011   2.136  16.018  0.4564 -0.3942  0.4836
19923TIP3   OH281259   2.578   2.814   2.092  0.2027 -0.4361 -0.0310
19923TIP3    H181260   2.618   2.729   2.111  0.9174  0.1532  1.2332
19923TIP3    H281261   2.586   2.824   1.997  0.4458 -1.6072 -0.1493
19924TIP3   OH281262   1.757   5.188   0.438  0.2140  0.0270 -0.2573
19924TIP3    H181263   1.733   5.095   0.434  0.0036  0.1210 -1.5135
19924TIP3    H281264   1.674   5.233   0.449  0.4101  0.0288  1.4601
19925TIP3   OH281265   5.759   1.703   5.003 -0.0231  0.0627 -0.3047
19925TIP3    H181266   5.760   1.755   4.923 -0.6395  1.2038  0.3926
19925TIP3    H281267   5.697   1.632   4.985 -0.1808  0.3312 -0.8354
19926TIP3   OH281268   1.329   3.291   6.718 -0.4606  0.5265  0.6153
19926TIP3    H181269   1.392   3.242   6.664  0.4527  1.2512  0.9895
19926TIP3    H281270   1.258   3.230   6.734  1.2582 -1.1807  2.2157
19927TIP3   OH281271   0.935   0.063  10.549 -0.4043 -0.2855 -0.3917
19927TIP3    H181272   0.886  -0.019  10.539  1.1286 -1.4389  0.9764
19927TIP3    H281273   0.869   0.128  10.572 -1.4513 -1.5773  0.4019
19928TIP3   OH281274   3.877   3.846   4.184  1.1645  0.5277 -0.3658
19928TIP3    H181275   3.951   3.787   4.200 -0.7165 -1.3267  2.2877
19928TIP3    H281276   3.881   3.864   4.090  2.7068 -2.6733 -1.0495
19929TIP3   OH281277   0.258   5.690   2.023 -0.1512 -0.0243  0.0678
19929TIP3    H181278   0.337   5.700   1.971  0.2775  0.2506  0.7615
19929TIP3    H281279   0.235   5.779   2.050 -1.8520  0.1568 -1.7890
19930TIP3   OH281280   2.320   5.689   5.569  0.4093  0.0335  0.1551
19930TIP3    H181281   2.286   5.736   5.493 -1.3074 -1.5272 -0.0976
19930TIP3    H281282   2.252   5.698   5.636  0.9442 -0.4141  0.7716
19931TIP3   OH281283   3.944   2.529  16.580 -0.5461  0.4072  0.5830
19931TIP3    H181284   3.925   2.542  16.673  0.8307  3.2783  0.5825
19931TIP3    H281285   3.871   2.570  16.534  0.2628  1.8056  0.4859
19932TIP3   OH281286   5.844   2.864   3.875 -0.4577  0.0192  0.4313
19932TIP3    H181287   5.835   2.799   3.806 -1.1269  1.0654 -0.5156
19932TIP3    H281288   5.932   2.851   3.909 -0.5399 -1.2914  0.1915
19933TIP3   OH281289   0.965   6.730  11.691  0.6132  0.3632 -0.3563
19933TIP3    H181290   1.051   6.706  11.657  1.1171  1.2701  0.2269
19933TIP3    H281291   0.964   6.826  11.688 -0.7370  0.3392 -1.2057
19934TIP3   OH281292   4.435   2.170   5.806 -0.6096  0.3025 -0.7737
19934TIP3    H181293   4.492   2.127   5.869 -0.7352  0.3808 -0.6058
19934TIP3    H281294   4.348   2.134   5.823 -0.4520 -0.5614 -1.6912
19935TIP3   OH281295   6.055   2.480   1.807 -0.0798 -0.3425  0.5587
19935TIP3    H181296   6.145   2.487   1.839 -0.1946  1.7342  0.5707
19935TIP3    H281297   6.002   2.471   1.887  0.0761 -1.3454  0.5629
19936TIP3   OH281298   5.023   3.476   3.541 -0.1485  1.0840 -0.2431
19936TIP3    H181299   4.948   3.417   3.542 -0.8159  1.8443  1.8076
19936TIP3    H281300   5.094   3.425   3.580 -0.3565  1.1753  0.2720
19937TIP3   OH281301   6.425   0.754  13.671 -0.4223  1.0416 -0.5272
19937TIP3    H181302   6.372   0.703  13.610  2.3824 -1.2972 -1.2386
19937TIP3    H281303   6.402   0.720  13.757 -0.9846  0.9854 -0.6943
19938TIP3   OH281304   4.279   3.787  13.388 -0.3978  0.9865 -0.1642
19938TIP3    H181305   4.204   3.758  13.439  0.7610  0.1228  1.1072
19938TIP3    H281306   4.265   3.749  13.301 -1.5348  1.0481 -0.0236
19939TIP3   OH281307   4.616   4.516  15.217 -0.0978  0.6501 -0.1679
19939TIP3    H181308   4.531   4.473  15.223 -0.8568  1.8894 -1.3721
19939TIP3    H281309   4.668   4.478  15.288 -1.4713 -0.5230  0.2459
19940TIP3   OH281310   3.408   5.544   1.543  0.3953 -0.8342 -0.0275
19940TIP3    H181311   3.378   5.634   1.530 -0.6423 -0.8180  2.1473
19940TIP3    H281312   3.425   5.512   1.454 -0.8321  0.9421 -0.9679
19941TIP3   OH281313   1.802   1.621  12.865  0.5159  0.0634  0.3634
19941TIP3    H181314   1.807   1.686  12.795 -0.8415 -0.3511 -0.1425
19941TIP3    H281315   1.786   1.673  12.944  0.7445  0.4304  0.1740
19942TIP3   OH281316   0.402   6.234  15.806  0.0506  0.2204  0.1247
19942TIP3    H181317   0.340   6.262  15.738 -1.6250 -2.6926  0.2911
19942TIP3    H281318   0.471   6.189  15.757 -0.0288  0.0307  0.1848
19943TIP3   OH281319   3.178   0.341   5.442  0.4939  0.1621  0.0785
19943TIP3    H181320   3.267   0.314   5.465  0.1340  0.0108  1.3568
19943TIP3    H281321   3.125   0.264   5.462 -0.0832  0.6586  0.4528
19944TIP3   OH281322   5.412   0.056   6.575  0.1421  0.2440 -0.3548
19944TIP3    H181323   5.333   0.100   6.606  0.5050  0.7879 -0.1944
19944TIP3    H281324   5.416  -0.025   6.626 -0.9305 -0.3607 -1.1725
19945TIP3   OH281325   1.282   4.508   3.630  0.4925  0.3099 -0.7141
19945TIP3    H181326   1.312   4.599   3.635  1.2189  0.2222 -2.6301
19945TIP3    H281327   1.240   4.501   3.545 -0.6259 -0.8742 -0.1096
19946TIP3   OH281328   6.660   3.333   6.017 -0.0303 -0.1483  0.1761
19946TIP3    H181329   6.731   3.293   6.067 -1.3364 -0.5879  1.7387
19946TIP3    H281330   6.589   3.269   6.018 -0.4779  0.2741 -1.3622
19947TIP3   OH281331   4.057   0.618   5.526 -0.1640  0.0755  0.5581
19947TIP3    H181332   4.074   0.567   5.605  2.6737  1.9975  1.3480
19947TIP3    H281333   4.114   0.579   5.459 -0.0819  0.4474  0.4052
19948TIP3   OH281334   2.187   0.613  15.909 -0.4581  0.2274  0.1770
19948TIP3    H181335   2.107   0.609  15.856 -0.4666  1.6843  0.0488
19948TIP3    H281336   2.212   0.705  15.909  0.5465 -0.0143  1.2443
19949TIP3   OH281337   3.879   0.680  14.333 -0.8512  0.2095  0.0792
19949TIP3    H181338   3.894   0.697  14.426 -1.2668 -0.7460  0.3390
19949TIP3    H281339   3.964   0.653  14.299 -0.3159  2.1123 -0.2125
19950TIP3   OH281340   0.881   4.315   4.618  0.1085 -0.1668  0.2804
19950TIP3    H181341   0.839   4.289   4.536  4.0877 -0.6374 -1.8206
19950TIP3    H281342   0.851   4.405   4.633  1.1260  0.8910 -3.1427
19951TIP3   OH281343   2.364   6.552   6.045  0.1609  0.4073  0.1775
19951TIP3    H181344   2.300   6.607   5.999 -0.5017  1.0396  1.7996
19951TIP3    H281345   2.351   6.572   6.137 -0.1759 -2.5338  0.8652
19952TIP3   OH281346   4.693   1.338  11.461  0.6722 -0.3145  0.2192
19952TIP3    H181347   4.759   1.396  11.426  0.6938  0.0099  0.7815
19952TIP3    H281348   4.619   1.344  11.400  2.0357 -2.6002 -1.8422
19953TIP3   OH281349   2.171   6.071  16.517 -0.4118  0.1574  0.7977
19953TIP3    H181350   2.105   6.082  16.449  0.1650  0.9272  0.3527
19953TIP3    H281351   2.161   5.980  16.546  0.0116 -0.4862 -1.0088
19954TIP3   OH281352   5.339   1.415  10.296 -0.1111 -0.2438 -0.2984
19954TIP3    H181353   5.343   1.485  10.361 -1.0174 -1.1570  0.7673
19954TIP3    H281354   5.431   1.397  10.275  0.2364 -0.3305  1.1821
19955TIP3   OH281355   3.834   2.944   5.023  0.2466  0.7043  0.0461
19955TIP3    H181356   3.921   2.985   5.021  0.5027  0.1564 -0.3359
19955TIP3    H281357   3.819   2.914   4.934 -0.2963  0.7007  0.1331
19956TIP3   OH281358   0.715   0.458   2.557  0.5420 -0.4767  0.5085
19956TIP3    H181359   0.790   0.452   2.497 -0.2946 -1.5749 -0.4976
19956TIP3    H281360   0.708   0.371   2.595  1.5291  0.4159  2.8734
19957TIP3   OH281361   5.110   2.336  14.319  0.4709 -0.2956 -0.1308
19957TIP3    H181362   5.089   2.263  14.261 -0.7447  0.2041 -0.3599
19957TIP3    H281363   5.125   2.296  14.404  1.9872 -1.0098 -0.6978
19958TIP3   OH281364   4.918   5.991  14.432 -0.2807 -0.3303 -0.2459
19958TIP3    H181365   4.964   6.074  14.445 -0.5094 -0.0641 -1.0767
19958TIP3    H281366   4.914   5.952  14.519  0.3765  0.2413  0.0506
19959TIP3   OH281367   5.137   1.845   1.009  0.2167 -0.3081  0.1139
19959TIP3    H181368   5.163   1.760   1.047  0.0319 -0.4543 -0.0834
19959TIP3    H281369   5.067   1.823   0.948 -0.4228  0.0902  0.6871
19960TIP3   OH281370   2.725   3.111  12.616 -0.3753 -0.4065 -0.4991
19960TIP3    H181371   2.650   3.055  12.636  0.5749 -1.6383 -0.2731
19960TIP3    H281372   2.738   3.164  12.695 -1.8770  0.8967 -1.0631
19961TIP3   OH281373   6.647   1.049  13.770 -0.3739 -0.5059 -0.6984
19961TIP3    H181374   6.699   1.067  13.692  1.1428  1.2787  0.6479
19961TIP3    H281375   6.585   1.122  13.775 -1.2330 -1.2040 -0.8008
19962TIP3   OH281376   0.229   2.641  16.028  0.0817 -0.1932 -0.5809
19962TIP3    H181377   0.318   2.674  16.024  0.8713 -1.7310  2.0599
19962TIP3    H281378   0.188   2.691  16.099 -1.3175  0.7358 -1.9797
19963TIP3   OH281379   1.389   2.368   3.946  0.1134  0.0726 -0.7781
19963TIP3    H181380   1.338   2.427   4.002 -2.1865 -0.0293 -2.6099
19963TIP3    H281381   1.448   2.425   3.897  0.4272  0.4163 -0.0149
19964TIP3   OH281382   4.039   4.831  16.610 -0.9420  0.3471  0.1201
19964TIP3    H181383   4.033   4.768  16.683  0.8623 -0.4395 -0.3671
19964TIP3    H281384   4.120   4.879  16.627  0.5827 -1.1725 -2.3231
19965TIP3   OH281385   4.089   6.542   6.690  0.0937 -0.0188 -0.3102
19965TIP3    H181386   4.010   6.529   6.637 -1.4877  0.4923  1.7839
19965TIP3    H281387   4.109   6.635   6.681 -1.5841  0.6156  1.7033
19966TIP3   OH281388   0.053   5.966   5.843 -0.2671  0.1281  0.0705
19966TIP3    H181389   0.129   5.916   5.873 -0.6644  0.0323  0.9387
19966TIP3    H281390  -0.022   5.919   5.878 -0.7375  0.2192 -0.7965
19967TIP3   OH281391   1.069   1.249   4.798  0.2451  0.0968  0.3633
19967TIP3    H181392   1.134   1.209   4.740  0.0651  1.3060 -0.7112
19967TIP3    H281393   1.117   1.316   4.846 -0.3858  1.8433 -1.3153
19968TIP3   OH281394   0.859   1.479   3.070 -0.0100 -0.1340 -0.0614
19968TIP3    H181395   0.817   1.513   2.991 -0.3168 -0.0744  0.1256
19968TIP3    H281396   0.897   1.556   3.113  0.9497 -0.2874 -0.6155
19969TIP3   OH281397   1.064   0.339  11.072 -0.0534  0.1481  0.0397
19969TIP3    H181398   1.072   0.407  11.005  2.6976  0.8461  0.9521
19969TIP3    H281399   1.006   0.377  11.138 -2.0597 -0.1930 -1.4385
19970TIP3   OH281400   5.617   4.663   4.377 -0.6529 -0.0040 -0.5551
19970TIP3    H181401   5.685   4.681   4.312 -0.1118  1.2308  0.3164
19970TIP3    H281402   5.596   4.570   4.365  1.7840 -0.6555 -0.2844
19971TIP3   OH281403   2.408   2.035  15.659 -0.3663 -0.1483  0.1354
19971TIP3    H181404   2.464   1.959  15.673 -0.7011 -0.6853 -1.2564
19971TIP3    H281405   2.427   2.063  15.570 -2.3323 -0.3995 -0.4203
19972TIP3   OH281406   2.146   6.562   3.034 -0.4462  0.1478 -0.2961
19972TIP3    H181407   2.137   6.565   3.130 -2.3123  1.3815 -0.4562
19972TIP3    H281408   2.071   6.510   3.005 -0.3633  0.4947 -1.1354
19973TIP3   OH281409   5.010   4.601  15.698 -0.0700 -0.2140 -0.4747
19973TIP3    H181410   4.995   4.683  15.744 -0.3587 -0.9745  0.8425
19973TIP3    H281411   4.922   4.570  15.676 -0.1221 -1.2137  0.9812
19974TIP3   OH281412   1.304   6.170  12.740 -0.1442 -0.1204  0.0889
19974TIP3    H181413   1.229   6.219  12.707  1.1695  1.3203 -0.8680
19974TIP3    H281414   1.365   6.236  12.771  0.6070 -1.2760  1.1823
19975TIP3   OH281415   3.828   0.782  16.946  0.0927  0.9596 -0.4183
19975TIP3    H181416   3.733   0.773  16.943 -0.0579  1.8972  0.6916
19975TIP3    H281417   3.856   0.778  16.855 -0.9213 -0.0470 -0.7114
19976TIP3   OH281418   6.745   4.656  13.434  0.3158  0.2426  0.2451
19976TIP3    H181419   6.809   4.722  13.459  0.8997 -0.7707  1.5328
19976TIP3    H281420   6.660   4.700  13.445  0.7153  1.9263 -2.4527
19977TIP3   OH281421   1.853   1.904  12.375  0.2548 -0.2205 -0.4380
19977TIP3    H181422   1.795   1.942  12.309  0.7303  2.2256  0.4332
19977TIP3    H281423   1.941   1.920  12.341  0.5480  2.0009  1.1125
19978TIP3   OH281424   1.573   4.855  16.498 -0.3519 -0.0118 -0.0317
19978TIP3    H181425   1.663   4.848  16.529 -0.4859 -1.6251  0.0990
19978TIP3    H281426   1.520   4.842  16.577 -0.7099  0.5303 -0.1757
19979TIP3   OH281427   3.120   6.012  12.573  0.2503  0.0262  0.4121
19979TIP3    H181428   3.034   6.046  12.596  0.0225 -1.0296  1.1814
19979TIP3    H281429   3.120   6.008  12.477 -0.9512 -0.9578  0.4355
19980TIP3   OH281430   5.682   5.291   0.920  0.2479 -0.0872 -0.0775
19980TIP3    H181431   5.734   5.225   0.966 -0.5639 -0.9940 -0.4079
19980TIP3    H281432   5.615   5.317   0.984  0.5188  0.3611  0.0250
19981TIP3   OH281433   4.390   0.344   5.798 -0.0109 -0.2215  0.6301
19981TIP3    H181434   4.480   0.323   5.771 -0.4785 -0.3543 -0.8985
19981TIP3    H281435   4.349   0.258   5.810 -0.3000 -0.1604  0.0599
19982TIP3   OH281436   0.788   1.467  13.530  0.0532  0.5392  0.2136
19982TIP3    H181437   0.853   1.524  13.489  0.9141 -0.6821 -0.1980
19982TIP3    H281438   0.829   1.438  13.612 -0.5140  0.7841  0.5866
19983TIP3   OH281439   0.116   1.838   1.328 -0.6426 -0.0012 -0.0043
19983TIP3    H181440   0.096   1.895   1.403 -1.4351 -0.1928 -0.0678
19983TIP3    H281441   0.121   1.897   1.253 -1.2479  0.0107 -0.0340
19984TIP3   OH281442   5.660   0.742   4.537  0.0220  0.1647  0.5981
19984TIP3    H181443   5.740   0.727   4.486 -0.3697 -0.7916  0.2429
19984TIP3    H281444   5.591   0.699   4.486 -0.9371  1.9449  0.2965
19985TIP3   OH281445   0.689   0.005  15.867 -0.1968  0.0665  0.3429
19985TIP3    H181446   0.725   0.093  15.874  0.3126 -0.1719  0.7676
19985TIP3    H281447   0.625  -0.001  15.939 -0.2422  0.0940  0.3047
19986TIP3   OH281448   4.226   0.751  14.702  0.2549 -0.7233 -0.3666
19986TIP3    H181449   4.291   0.821  14.704  0.0580 -0.5308  1.3789
19986TIP3    H281450   4.214   0.730  14.609 -0.1568  1.9966 -0.9961
19987TIP3   OH281451   6.000   5.776   3.111  0.1623 -0.2685 -0.3932
19987TIP3    H181452   5.936   5.844   3.090  0.3459 -0.4989 -1.8301
19987TIP3    H281453   5.955   5.694   3.090  0.4735 -0.5071 -0.1404
19988TIP3   OH281454   4.005   1.304  11.073  0.4961 -0.1193 -0.1201
19988TIP3    H181455   3.921   1.344  11.095  1.1594  0.7324  0.9371
19988TIP3    H281456   4.026   1.250  11.149  0.5639 -0.9364 -0.6992
19989TIP3   OH281457   6.733   2.492   6.284  0.3163 -0.0834  0.6928
19989TIP3    H181458   6.710   2.505   6.376 -1.8867 -0.7627  0.3093
19989TIP3    H281459   6.749   2.580   6.251 -0.5450  0.3398  1.3520
19990TIP3   OH281460   1.718   4.079   1.822  0.0153  0.4627  0.2912
19990TIP3    H181461   1.705   4.146   1.755  0.3287  0.1915 -0.0448
19990TIP3    H281462   1.688   3.998   1.782 -2.0380  0.6589  1.3165
19991TIP3   OH281463   2.590   0.246   4.529 -1.0689 -0.2583 -0.0988
19991TIP3    H181464   2.643   0.323   4.547 -0.9788 -0.3719  0.1236
19991TIP3    H281465   2.603   0.229   4.436  0.4288 -1.1319  0.2286
19992TIP3   OH281466   1.822   5.882  14.798  0.6837 -0.0807  0.8513
19992TIP3    H181467   1.791   5.931  14.875  0.7443  1.8055 -0.2808
19992TIP3    H281468   1.751   5.890  14.734  0.5640 -1.7750  0.7113
19993TIP3   OH281469   1.686   1.150   2.152 -0.0580 -0.4344 -0.4239
19993TIP3    H181470   1.729   1.230   2.182 -1.1835 -0.5503  1.7599
19993TIP3    H281471   1.650   1.172   2.066  1.4693  0.6977 -0.8016
19994TIP3   OH281472   6.692   3.562   5.281  0.0742 -0.3667  0.6545
19994TIP3    H181473   6.671   3.519   5.198  2.1596  1.0030 -0.6636
19994TIP3    H281474   6.623   3.627   5.293  1.3621  1.5734 -1.6982
19995TIP3   OH281475   3.673   4.605   1.963  0.2584 -0.2013  0.9765
19995TIP3    H181476   3.583   4.580   1.983 -0.0270  0.3252  0.3586
19995TIP3    H281477   3.668   4.699   1.942  0.8729 -0.2821  0.4547
19996TIP3   OH281478   6.708   3.194   1.983 -0.0244 -0.1612 -0.4378
19996TIP3    H181479   6.753   3.119   1.946  2.7838  1.1058  0.1208
19996TIP3    H281480   6.710   3.180   2.078  1.1969  0.9016 -0.2784
19997TIP3   OH281481   2.707   4.994  16.820  0.2494 -0.0693 -0.4937
19997TIP3    H181482   2.651   4.971  16.894  1.0260 -1.0847 -0.1973
19997TIP3    H281483   2.660   5.064  16.774 -1.8435 -1.7035 -0.9641
19998TIP3   OH281484   6.533   1.727   2.511 -0.5340 -0.4244  0.0942
19998TIP3    H181485   6.440   1.746   2.520 -0.6634 -1.3061  0.7414
19998TIP3    H281486   6.547   1.650   2.567  0.3098 -1.1225 -1.0470
19999TIP3   OH281487   0.149   5.598   1.687 -0.3941  0.2514 -0.0760
19999TIP3    H181488   0.237   5.633   1.669 -0.4217 -0.5733 -2.0620
19999TIP3    H281489   0.094   5.676   1.696  0.5337  0.7776  1.2883
20000TIP3   OH281490   0.810   2.718  14.846 -0.2491  0.4635 -0.1674
20000TIP3    H181491   0.764   2.636  14.858 -0.7894  0.7880  0.0188
20000TIP3    H281492   0.769   2.758  14.769  2.4028 -1.0717 -2.5928
20001TIP3   OH281493   6.345   2.742  14.761 -0.2289  0.4184  0.2941
20001TIP3    H181494   6.386   2.667  14.718  0.3632  0.0787  1.4120
20001TIP3    H281495   6.270   2.704  14.808  0.6638  0.3241  1.7014
20002TIP3   OH281496   5.709   3.113   3.908 -0.1240  0.3583 -0.1089
20002TIP3    H181497   5.770   3.043   3.883 -0.4308 -0.2529  0.7945
20002TIP3    H281498   5.674   3.085   3.992 -2.5052  0.1184 -1.1069
20003TIP3   OH281499   4.442   6.659   1.060 -0.4675 -0.0568  0.3475
20003TIP3    H181500   4.447   6.755   1.057  1.1045 -0.0766  1.0672
20003TIP3    H281501   4.406   6.640   1.147  0.4617 -0.1070  0.7399
20004TIP3   OH281502   1.271   2.324  15.253 -0.4819  0.0134 -0.2088
20004TIP3    H181503   1.278   2.418  15.265 -1.3141  0.0553  0.0368
20004TIP3    H281504   1.333   2.286  15.315  2.4414  0.4386 -2.6653
20005TIP3   OH281505   1.601   5.945   5.136  0.0001  0.0551 -0.0694
20005TIP3    H181506   1.636   5.909   5.218  0.1228  1.3191  0.4544
20005TIP3    H281507   1.640   5.891   5.068  0.3949 -0.6253  0.6745
20006TIP3   OH281508   4.822   4.278   3.534  0.1467 -0.2315 -0.0868
20006TIP3    H181509   4.762   4.213   3.570  2.1731 -0.8090  2.6011
20006TIP3    H281510   4.891   4.226   3.491  0.7259  0.2130  0.2912
20007TIP3   OH281511   6.156   4.757   4.171  0.4172 -0.7093 -0.1801
20007TIP3    H181512   6.212   4.810   4.113 -0.4171 -0.7049 -0.9989
20007TIP3    H281513   6.115   4.821   4.229  1.4851 -0.7401  0.6579
20008TIP3   OH281514   2.328   4.953  13.019 -0.5148 -0.4077 -0.2745
20008TIP3    H181515   2.254   4.899  12.990  0.2876 -2.0671  0.6096
20008TIP3    H281516   2.328   4.945  13.115  0.4078  0.1031 -0.2146
20009TIP3   OH281517   2.630   5.473  15.867  0.2280 -0.0972  0.5228
20009TIP3    H181518   2.580   5.553  15.878 -0.8550 -0.7332  0.3255
20009TIP3    H281519   2.628   5.457  15.772  1.9754  0.5937  0.3309
20010TIP3   OH281520   0.332   3.956  12.581 -0.2798  0.3413 -0.4593
20010TIP3    H181521   0.402   3.892  12.573 -0.7275 -0.0236 -1.8628
20010TIP3    H281522   0.331   4.000  12.496 -0.5958  1.5667  0.1614
20011TIP3   OH281523   2.293   0.363  16.905 -0.2820 -0.5564  0.5392
20011TIP3    H181524   2.347   0.383  16.828 -0.2415 -0.7750  0.5111
20011TIP3    H281525   2.203   0.372  16.873 -0.2636  0.2066  0.6921
20012TIP3   OH281526   6.712   6.487  10.814  0.5002  0.2561 -0.0690
20012TIP3    H181527   6.667   6.558  10.768  0.2734 -0.7593 -1.4752
20012TIP3    H281528   6.703   6.411  10.757  3.4620 -0.1729 -0.1590
20013TIP3   OH281529   1.432   5.486   1.554 -0.5630 -0.2553 -0.0602
20013TIP3    H181530   1.493   5.413   1.552  0.4824  0.5766  0.2268
20013TIP3    H281531   1.441   5.528   1.469  0.1283  0.5362  0.3892
20014TIP3   OH281532   5.439   0.146  15.259 -0.5932 -0.4207 -0.9131
20014TIP3    H181533   5.492   0.212  15.215  1.8721 -1.0767  0.8753
20014TIP3    H281534   5.445   0.069  15.203  1.2703 -0.7964 -0.2452
20015TIP3   OH281535   1.332   2.120  14.070 -0.4827 -0.6099  0.0258
20015TIP3    H181536   1.416   2.117  14.116 -1.5137 -0.3794  2.0250
20015TIP3    H281537   1.268   2.143  14.137 -2.2814 -1.5537 -1.2640
20016TIP3   OH281538   0.372   0.518   6.088  0.1523 -0.4539  0.2257
20016TIP3    H181539   0.420   0.479   6.015 -0.1555  0.5825 -0.5600
20016TIP3    H281540   0.310   0.450   6.115  0.6255 -1.0343 -0.1379
20017TIP3   OH281541   1.257   5.329  16.875  0.4694 -0.1354 -0.5425
20017TIP3    H181542   1.221   5.418  16.880  1.1316  0.2839 -2.2646
20017TIP3    H281543   1.181   5.271  16.880  0.1744  0.2975  3.2921
20018TIP3   OH281544   5.784   0.905  15.484  0.1734 -0.2064 -0.3861
20018TIP3    H181545   5.787   0.998  15.460  1.6077 -0.5436 -1.6712
20018TIP3    H281546   5.744   0.862  15.408  0.3952 -0.7471 -0.2030
20019TIP3   OH281547   2.732   2.772   5.522 -0.4541 -0.0883 -0.6487
20019TIP3    H181548   2.787   2.850   5.531  0.7642 -1.0167  0.1317
20019TIP3    H281549   2.647   2.799   5.557  0.2409  0.5831  0.5631
20020TIP3   OH281550   3.778   0.631   1.075 -0.3380 -0.7004 -0.0102
20020TIP3    H181551   3.783   0.683   1.156  1.2040  0.6962 -0.9360
20020TIP3    H281552   3.854   0.659   1.024 -1.6120 -1.0727 -2.2291
20021TIP3   OH281553   4.369   3.775   5.144 -0.2266 -0.2552  0.0321
20021TIP3    H181554   4.392   3.865   5.122  0.1287 -0.2443  0.4245
20021TIP3    H281555   4.408   3.761   5.231 -0.4772 -0.7097  0.0768
20022TIP3   OH281556   1.342   5.286  14.103  0.3295 -0.0183 -0.3695
20022TIP3    H181557   1.269   5.246  14.056  1.3225 -2.9056  0.3769
20022TIP3    H281558   1.346   5.376  14.070 -3.4021  0.2148 -0.5877
20023TIP3   OH281559   2.833   4.473   5.384  0.7955  0.1851 -0.2425
20023TIP3    H181560   2.900   4.489   5.451  1.1750 -0.0968 -0.5496
20023TIP3    H281561   2.848   4.541   5.319  1.9840 -0.9628 -1.2204
20024TIP3   OH281562   3.393   5.967   0.882  0.0180  0.3113 -0.1696
20024TIP3    H181563   3.300   5.945   0.876 -0.4691  1.6131  1.8025
20024TIP3    H281564   3.438   5.889   0.850 -1.7304 -0.2999 -1.2800
20025TIP3   OH281565   5.033   0.519  12.267 -0.7432 -0.6287 -0.1112
20025TIP3    H181566   5.107   0.580  12.255 -0.8224  0.0906  2.3947
20025TIP3    H281567   4.987   0.521  12.183  0.5675  1.0122 -0.8702
20026TIP3   OH281568   4.238   3.928   1.949  0.3064 -0.0356  0.0318
20026TIP3    H181569   4.181   3.985   2.001 -1.4794 -1.8892  0.2266
20026TIP3    H281570   4.304   3.897   2.011  0.1262  0.2859  0.3912
20027TIP3   OH281571   4.700   0.695  12.426 -0.2621 -0.1281  0.0635
20027TIP3    H181572   4.711   0.643  12.347 -1.3170  2.4854 -1.9625
20027TIP3    H281573   4.605   0.707  12.433 -0.1848 -0.3462  1.7823
20028TIP3   OH281574   0.240   4.494   5.803 -0.4358  0.5240 -0.0942
20028TIP3    H181575   0.254   4.528   5.891 -1.0875 -0.6819  0.5075
20028TIP3    H281576   0.164   4.437   5.811 -0.3363  0.1773 -1.3797
20029TIP3   OH281577   6.780   0.915   5.931  0.3441  0.1177  0.3971
20029TIP3    H181578   6.818   0.877   5.852  0.2662  0.2541  0.2951
20029TIP3    H281579   6.855   0.949   5.980  0.1907  2.5189 -0.8959
20030TIP3   OH281580   2.291   2.009   4.087  0.0469  0.7515  0.3596
20030TIP3    H181581   2.202   2.009   4.124  0.5065  2.9372  1.6509
20030TIP3    H281582   2.303   1.920   4.054 -1.8381 -0.2258  2.0648
20031TIP3   OH281583   3.034   1.771  15.211 -0.1902  0.3207  0.1842
20031TIP3    H181584   2.966   1.828  15.175 -0.3644 -0.0903 -0.1525
20031TIP3    H281585   2.992   1.684  15.214 -0.3062  0.3957  1.6880
20032TIP3   OH281586   4.734   4.466   1.626  0.1944 -0.0427 -0.7160
20032TIP3    H181587   4.770   4.536   1.572 -2.4294  0.7719 -1.5735
20032TIP3    H281588   4.729   4.390   1.568  2.4294 -0.8703  0.0346
20033TIP3   OH281589   1.883   0.812  12.258 -0.0050  0.4689  0.1504
20033TIP3    H181590   1.971   0.774  12.266  0.8961  2.0080 -1.6160
20033TIP3    H281591   1.825   0.737  12.249  1.3510 -0.5524 -0.4499
20034TIP3   OH281592   0.688   2.404   2.547 -0.2161  0.3862 -0.4823
20034TIP3    H181593   0.751   2.363   2.487 -0.3417  0.6614 -0.8076
20034TIP3    H281594   0.735   2.413   2.630 -0.2505 -0.5993 -0.3412
20035TIP3   OH281595   6.674   2.541  15.275  0.2141 -0.3831 -0.2445
20035TIP3    H181596   6.707   2.620  15.230 -0.5493  0.7911  1.1836
20035TIP3    H281597   6.687   2.560  15.368 -2.3049 -0.8551  0.2652
20036TIP3   OH281598   1.715   1.333  15.748  0.1125  0.4030 -0.2841
20036TIP3    H181599   1.645   1.267  15.750 -1.0013  1.5677  0.3077
20036TIP3    H281600   1.759   1.324  15.832 -0.9671  1.3494  0.4118
20037TIP3   OH281601   2.714   0.797   2.557  0.6978 -0.5827 -0.4884
20037TIP3    H181602   2.635   0.795   2.611  2.7518  1.0036  2.8704
20037TIP3    H281603   2.775   0.738   2.601  2.7741  1.4288 -0.5063
20038TIP3   OH281604   2.660   0.858   3.019 -0.1763  0.2579  0.0829
20038TIP3    H181605   2.680   0.771   2.985  0.9896  0.2637  0.6835
20038TIP3    H281606   2.565   0.861   3.024 -0.2195 -1.5341  1.4049
20039TIP3   OH281607   6.140   3.192  15.270  0.6535 -0.9077  0.1353
20039TIP3    H181608   6.058   3.234  15.296  1.3079 -0.2419  1.2231
20039TIP3    H281609   6.116   3.135  15.197 -0.6366 -0.1798 -0.0392
20040TIP3   OH281610   1.728   2.773  12.757  0.4139 -0.0120  0.2087
20040TIP3    H181611   1.789   2.783  12.830  0.2391  0.6022  0.2733
20040TIP3    H281612   1.780   2.731  12.688  0.9335  0.5646  0.2399
20041TIP3   OH281613   5.856   0.966   5.062 -0.0395 -0.4749 -0.0499
20041TIP3    H181614   5.807   0.953   5.143  0.5073  0.0334  0.3734
20041TIP3    H281615   5.866   0.878   5.025  0.1959 -0.7781  0.7251
20042TIP3   OH281616   0.488   1.332  14.260 -0.2105 -0.5290 -0.0103
20042TIP3    H181617   0.408   1.381  14.278 -2.1031 -2.3998 -2.6884
20042TIP3    H281618   0.538   1.387  14.200 -1.4109 -0.9998 -1.4746
20043TIP3   OH281619   4.558   0.245  14.920  0.1230 -0.1434  0.5523
20043TIP3    H181620   4.501   0.321  14.935  0.7274  0.6868 -1.1341
20043TIP3    H281621   4.646   0.282  14.914  0.5065 -1.0712  0.3357
20044TIP3   OH281622   2.400   0.378   5.626 -0.2057 -0.6605  0.5509
20044TIP3    H181623   2.475   0.358   5.571  2.0018 -0.5364  3.2845
20044TIP3    H281624   2.340   0.427   5.569  2.8458  1.3453 -1.2185
20045TIP3   OH281625   1.540   4.032  12.433  0.4840 -0.1580 -0.3280
20045TIP3    H181626   1.614   3.971  12.433  1.3829  0.8923 -1.4242
20045TIP3    H281627   1.533   4.061  12.342 -0.1446  1.0989  0.1008
20046TIP3   OH281628   4.800   4.294  15.332  0.5481  0.7628 -0.4186
20046TIP3    H181629   4.884   4.322  15.369  0.4998  0.5432 -0.1369
20046TIP3    H281630   4.793   4.201  15.355  0.0074  0.8941 -0.0105
20047TIP3   OH281631   0.498   5.314  12.783  0.2000 -0.5114  0.3500
20047TIP3    H181632   0.425   5.258  12.810  2.5890 -4.6924 -0.9930
20047TIP3    H281633   0.458   5.379  12.725 -2.4986 -2.5796 -0.3136
20048TIP3   OH281634   2.710   3.117  12.270 -0.1668 -0.8019 -0.5999
20048TIP3    H181635   2.706   3.189  12.333 -0.8333 -1.2453 -0.1244
20048TIP3    H281636   2.772   3.055  12.310 -0.0144 -0.7438 -0.7454
20049TIP3   OH281637   5.581   4.627  15.369 -0.4473  0.5223  0.2048
20049TIP3    H181638   5.624   4.542  15.359  1.6575  1.3400  1.7886
20049TIP3    H281639   5.500   4.607  15.416 -0.7836 -0.7550 -0.8204
20050TIP3   OH281640   5.428   1.499   1.830  0.0740  0.6420  0.0924
20050TIP3    H181641   5.380   1.540   1.758 -1.3436  2.1208  1.7955
20050TIP3    H281642   5.396   1.409   1.832 -2.0811  1.3554  0.6403
20051TIP3   OH281643   4.267   6.457  12.376 -0.3310 -0.3474  0.3809
20051TIP3    H181644   4.271   6.549  12.349  0.0320 -0.4471  0.0830
20051TIP3    H281645   4.356   6.425  12.363 -0.6991 -1.0279 -0.5083
20052TIP3   OH281646   1.012   0.110   1.540 -0.3497 -0.4299 -0.6926
20052TIP3    H181647   1.038   0.196   1.574  3.7308 -1.7892  0.1922
20052TIP3    H281648   0.982   0.062   1.617 -1.7306 -0.1518 -1.0312
20053TIP3   OH281649   2.757   0.620  15.631 -0.4229  0.0793 -0.4745
20053TIP3    H181650   2.698   0.650  15.700  1.2325  1.8485  0.2376
20053TIP3    H281651   2.764   0.694  15.570  0.2216 -0.4932 -1.1218
20054TIP3   OH281652   3.783   5.965  17.230  0.7288 -0.2866  0.1776
20054TIP3    H181653   3.808   6.012  17.310 -0.1635  0.6111 -0.0523
20054TIP3    H281654   3.693   5.937  17.246  0.4831  0.0486 -0.5810
20055TIP3   OH281655   0.666   2.820  16.582  0.1184 -0.2046  0.0963
20055TIP3    H181656   0.695   2.902  16.541 -0.5719 -0.1499 -0.3012
20055TIP3    H281657   0.747   2.776  16.607  0.5735 -0.3222 -1.5086
20056TIP3   OH281658   6.708   6.507   0.815  0.2562  0.1775 -0.1920
20056TIP3    H181659   6.627   6.485   0.768 -0.2872  0.7808  0.4316
20056TIP3    H281660   6.774   6.518   0.747 -0.2516 -0.0664 -0.7298
20057TIP3   OH281661   3.653   3.424  16.709 -0.4913 -0.6727  0.0343
20057TIP3    H181662   3.594   3.394  16.778  1.0966  0.0148  1.7662
20057TIP3    H281663   3.691   3.505  16.743 -0.5471  0.3830 -2.1913
20058TIP3   OH281664   4.598   1.942   1.340 -0.2868  0.0613  0.1641
20058TIP3    H181665   4.548   1.996   1.279  1.4323 -0.4318 -1.8083
20058TIP3    H281666   4.533   1.895   1.391 -1.7947  0.8113 -1.0092
20059TIP3   OH281667   3.102   5.851   5.934  0.3395 -0.2868  0.5060
20059TIP3    H181668   3.062   5.911   5.996  0.1133 -0.3308  0.4043
20059TIP3    H281669   3.163   5.905   5.884 -0.1135 -0.0645  0.1857
20060TIP3   OH281670   3.057   5.319   0.477 -1.1705  0.1242  0.1964
20060TIP3    H181671   3.115   5.298   0.551  2.4646 -0.1078 -2.4459
20060TIP3    H281672   3.055   5.238   0.426 -1.2109  1.0969 -1.3831
20061TIP3   OH281673   5.901   1.231   2.018 -0.4064  0.0205 -0.1047
20061TIP3    H181674   5.822   1.182   2.041 -0.4058 -0.2202 -0.5900
20061TIP3    H281675   5.904   1.303   2.081 -0.7239 -0.2714  0.2507
20062TIP3   OH281676   0.955   5.898  11.562  0.0981  0.9245 -0.1946
20062TIP3    H181677   0.913   5.854  11.488 -0.9035 -1.2143  1.5212
20062TIP3    H281678   0.924   5.988  11.557 -1.1146  0.4690 -1.5526
20063TIP3   OH281679   1.958   4.054   6.028 -0.4447 -0.0556  0.0161
20063TIP3    H181680   2.052   4.033   6.025 -0.1108  1.3087  0.3251
20063TIP3    H281681   1.943   4.081   6.118 -1.4855 -1.6692  0.3715
20064TIP3   OH281682   3.177   6.305  10.298 -0.0548 -0.3195  0.3156
20064TIP3    H181683   3.138   6.371  10.356 -0.5161  0.8553 -1.2528
20064TIP3    H281684   3.105   6.245  10.278  0.2247 -1.0044  1.3022
20065TIP3   OH281685   5.805   2.636   6.078  0.2835 -0.3282  0.2233
20065TIP3    H181686   5.775   2.651   6.168 -0.0923  0.4434 -0.0205
20065TIP3    H281687   5.813   2.723   6.041 -1.1260 -0.6727 -0.9904
20066TIP3   OH281688   3.213   5.222   1.000  0.1072 -0.1030  0.3360
20066TIP3    H181689   3.231   5.143   0.950  1.7870 -0.0468  0.7977
20066TIP3    H281690   3.299   5.252   1.030 -0.1938  3.0469 -1.5365
20067TIP3   OH281691   4.844   3.989  11.567 -0.0444 -0.0440 -0.4002
20067TIP3    H181692   4.752   3.975  11.589  0.3966  0.1253  1.8099
20067TIP3    H281693   4.888   3.992  11.652  1.7026  1.8881 -1.2943
20068TIP3   OH281694   1.239   0.177   5.224  0.2282  0.0725  0.0029
20068TIP3    H181695   1.294   0.248   5.191 -0.9430 -0.4448 -3.4995
20068TIP3    H281696   1.167   0.222   5.268  0.8741  0.9273  0.2134
20069TIP3   OH281697   2.187   1.992  14.681 -0.8152 -0.1377  0.3421
20069TIP3    H181698   2.147   1.927  14.739 -0.9455 -0.8079 -0.4758
20069TIP3    H281699   2.219   2.061  14.740 -0.4789 -1.0466  1.2526
20070TIP3   OH281700   3.426   6.361   3.388  0.0603 -0.0995 -0.3213
20070TIP3    H181701   3.480   6.392   3.316  0.5280 -0.9894 -0.3687
20070TIP3    H281702   3.372   6.436   3.411 -0.3520  0.0975 -1.8247
20071TIP3   OH281703   1.746   5.362   2.664 -0.0943  0.3923 -1.4075
20071TIP3    H181704   1.833   5.321   2.659  0.3954  1.3684 -1.1714
20071TIP3    H281705   1.689   5.304   2.614 -0.0057 -2.0061  1.0527
20072TIP3   OH281706   4.134   4.225   4.757  0.4002  0.0043 -0.2424
20072TIP3    H181707   4.075   4.160   4.720  1.5201 -0.5638 -1.0886
20072TIP3    H281708   4.091   4.309   4.739 -0.0926 -0.3879 -0.9598
20073TIP3   OH281709   1.883   4.535   6.264 -0.4902  0.1960  0.0662
20073TIP3    H181710   1.913   4.624   6.281 -1.9895  0.5736  0.9486
20073TIP3    H281711   1.825   4.514   6.337 -1.7607 -0.7290 -1.1279
20074TIP3   OH281712   2.373   5.877   3.939  0.7183  0.0140  0.2213
20074TIP3    H181713   2.383   5.783   3.951  0.1049 -0.1105 -0.2554
20074TIP3    H281714   2.303   5.902   4.000 -0.0461 -0.0597 -0.6219
20075TIP3   OH281715   1.089   6.348  12.648 -0.0371  0.1334  0.5223
20075TIP3    H181716   1.048   6.415  12.702 -2.2759 -0.1869 -0.6592
20075TIP3    H281717   1.046   6.355  12.563 -0.9904 -3.2978  0.5636
20076TIP3   OH281718   5.115   3.635   2.209 -0.6027  0.1453 -0.3136
20076TIP3    H181719   5.043   3.693   2.186 -0.9999 -0.3452 -0.3336
20076TIP3    H281720   5.075   3.566   2.262 -0.1148 -0.0298 -0.1613
20077TIP3   OH281721   4.481   5.059   6.766  0.3678 -0.1688  0.4000
20077TIP3    H181722   4.474   5.006   6.686  0.6761  1.0349 -0.4530
20077TIP3    H281723   4.572   5.088   6.767 -0.1582  1.6133 -0.0123
20078TIP3   OH281724   4.216   6.447  16.187  0.4155 -0.0096 -0.3519
20078TIP3    H181725   4.155   6.439  16.114 -1.1832  0.6530  0.8678
20078TIP3    H281726   4.245   6.357  16.203 -0.5854 -0.3954 -0.6587
20079TIP3   OH281727   1.122   0.429  14.856  0.7402  0.4687  0.3657
20079TIP3    H181728   1.119   0.473  14.941 -0.5930  1.4472 -0.1621
20079TIP3    H281729   1.056   0.473  14.804 -0.2692 -1.8004 -0.3888
20080TIP3   OH281730   1.523   2.270  17.043 -0.3323  0.4081  0.0202
20080TIP3    H181731   1.584   2.220  17.098 -1.3665 -0.2611  0.5816
20080TIP3    H281732   1.532   2.360  17.075 -0.2447  0.1759  0.6679
20081TIP3   OH281733   1.566   5.599  16.328 -0.1379 -0.0526 -0.3348
20081TIP3    H181734   1.485   5.548  16.338 -0.7483  1.1757  1.5543
20081TIP3    H281735   1.614   5.582  16.409  1.5213 -0.7062 -1.3974
20082TIP3   OH281736   1.284   4.601  16.953  0.0281 -0.7220 -0.2305
20082TIP3    H181737   1.357   4.615  16.893  0.9022 -0.7391  0.7878
20082TIP3    H281738   1.280   4.682  17.005 -0.5247 -0.8193 -0.1184
20083TIP3   OH281739   2.129   2.164  12.574  0.3134 -0.1468 -0.2189
20083TIP3    H181740   2.047   2.212  12.586  0.5191  0.2869 -0.4941
20083TIP3    H281741   2.191   2.207  12.633  0.8872  0.9093 -1.5361
20084TIP3   OH281742   1.172   2.715   1.122 -0.4045 -0.3617  0.3148
20084TIP3    H181743   1.194   2.628   1.088 -0.4521  0.1265 -0.9938
20084TIP3    H281744   1.253   2.765   1.117 -0.7622  0.1517 -0.4739
20085TIP3   OH281745   6.270   5.095  11.946 -0.4278 -0.5894 -0.2358
20085TIP3    H181746   6.262   5.001  11.936  2.7695 -1.0302  0.0629
20085TIP3    H281747   6.294   5.126  11.858  0.0602 -0.3033 -0.0051
20086TIP3   OH281748   1.483   0.538  13.625 -0.1792 -0.4217  0.2238
20086TIP3    H181749   1.553   0.509  13.683 -0.4971 -0.0473  0.8037
20086TIP3    H281750   1.524   0.544  13.538  0.3243 -0.8804  0.4255
20087TIP3   OH281751   3.515   4.995  11.435 -0.6211  0.2081 -0.0343
20087TIP3    H181752   3.598   4.985  11.482 -1.5857  0.2464  1.7703
20087TIP3    H281753   3.514   4.923  11.372  0.6774  0.0935  0.0427
20088TIP3   OH281754   1.404   1.837   3.430 -0.3243 -0.0135  0.5654
20088TIP3    H181755   1.419   1.876   3.343  0.6347 -0.6974  0.4053
20088TIP3    H281756   1.408   1.911   3.490  0.2722  0.3090  0.1455
20089TIP3   OH281757   5.921   0.191  15.778 -0.2810 -0.1684  0.0084
20089TIP3    H181758   5.852   0.253  15.756 -0.6717 -0.7341 -0.3755
20089TIP3    H281759   5.952   0.158  15.694  0.1953 -0.2066  0.1914
20090TIP3   OH281760   1.795   1.699   4.284  0.2762  0.1464 -0.1918
20090TIP3    H181761   1.787   1.673   4.192  0.5603  0.4719 -0.3111
20090TIP3    H281762   1.712   1.672   4.323  1.1623 -2.3537  0.0721
20091TIP3   OH281763   4.306   3.640  16.801 -0.5522  0.1030 -0.4463
20091TIP3    H181764   4.370   3.685  16.747  0.2291 -1.7283 -1.1528
20091TIP3    H281765   4.243   3.707  16.826 -0.9092  1.0817 -3.5484
20092TIP3   OH281766   0.172   2.886  12.764  0.0593 -0.5957  0.6814
20092TIP3    H181767   0.251   2.938  12.746 -0.8936  0.5674 -0.3255
20092TIP3    H281768   0.192   2.840  12.845  1.8682 -0.5179  0.3278
20093TIP3   OH281769   4.925   3.662   4.943 -0.6349 -0.2865 -0.8409
20093TIP3    H181770   4.831   3.678   4.935 -0.7308 -0.3105  0.0950
20093TIP3    H281771   4.950   3.709   5.023 -0.0481 -1.0863 -0.5378
20094TIP3   OH281772   4.939   2.213   0.075 -0.0628  0.0470 -0.2091
20094TIP3    H181773   4.892   2.144   0.122  0.9329 -0.0521  0.7017
20094TIP3    H281774   4.946   2.181  -0.015  2.0260 -2.0119  0.5705
20095TIP3   OH281775   1.637   3.470   0.391 -0.5337 -0.3806 -0.0044
20095TIP3    H181776   1.572   3.430   0.450 -0.1495  0.4126  0.9866
20095TIP3    H281777   1.663   3.550   0.436 -0.8078  0.6681 -1.6554
20096TIP3   OH281778   5.699   6.554  15.679 -0.5043 -0.1917  0.6650
20096TIP3    H181779   5.741   6.520  15.758  1.3754 -1.3876 -0.7678
20096TIP3    H281780   5.737   6.641  15.667  2.4684 -1.5823 -1.0890
20097TIP3   OH281781   1.937   2.916  14.786  0.0596 -0.4622 -0.4029
20097TIP3    H181782   2.020   2.920  14.834 -0.1676  0.5150 -0.0758
20097TIP3    H281783   1.961   2.930  14.695  0.1121  1.2783 -0.1433
20098TIP3   OH281784   2.825   4.732   1.750 -0.1566 -0.4683 -0.2911
20098TIP3    H181785   2.803   4.650   1.707 -0.4264 -0.0831 -0.9089
20098TIP3    H281786   2.903   4.763   1.704  1.8220 -1.8504  1.9181
20099TIP3   OH281787   5.021   4.887   5.608 -0.4750 -0.4147 -0.2135
20099TIP3    H181788   5.111   4.893   5.637  0.2997 -3.3867 -1.6140
20099TIP3    H281789   5.024   4.909   5.515 -1.5464  1.0812  0.0554
20100TIP3   OH281790   3.689   0.270  13.703  0.6107 -0.1789 -1.0496
20100TIP3    H181791   3.598   0.259  13.675 -0.0170 -0.1450  0.7912
20100TIP3    H281792   3.736   0.198  13.663 -0.7295 -1.6500 -0.0887
20101TIP3   OH281793   2.172   5.105   2.177 -0.1642  0.3844 -0.4229
20101TIP3    H181794   2.160   5.189   2.133 -2.1187  0.1684 -0.3967
20101TIP3    H281795   2.257   5.113   2.221 -0.8570  2.8376  0.6634
20102TIP3   OH281796   2.689   5.432   3.247  0.1597  0.3655  0.2300
20102TIP3    H181797   2.774   5.402   3.278  0.9175  0.5996 -1.5099
20102TIP3    H281798   2.667   5.505   3.305  0.4549 -0.5734  1.5742
20103TIP3   OH281799   0.533   2.520   3.521  0.1427 -0.1642  0.5774
20103TIP3    H181800   0.623   2.533   3.550  0.0433  0.9766  0.4358
20103TIP3    H281801   0.489   2.483   3.597  0.8062 -1.1009  0.5226
20104TIP3   OH281802   4.495   2.766  12.489 -0.3290 -0.0511  0.4043
20104TIP3    H181803   4.547   2.804  12.559  0.3550  0.7416 -0.5015
20104TIP3    H281804   4.560   2.731  12.427 -0.7690  1.7896 -1.2113
20105TIP3   OH281805   6.121   4.833  17.221  0.3530  0.0962  0.1282
20105TIP3    H181806   6.200   4.834  17.275  1.5734  1.2842 -1.5622
20105TIP3    H281807   6.078   4.916  17.242  0.8691  0.5956 -0.7218
20106TIP3   OH281808   3.007   4.937  16.716  0.5041 -0.1404  0.4600
20106TIP3    H181809   2.936   4.882  16.683 -0.5522 -0.0005  2.3789
20106TIP3    H281810   3.072   4.875  16.748  1.0551 -0.2645 -0.8472
20107TIP3   OH281811   6.124   6.757   1.827  0.0489 -0.6659 -0.4235
20107TIP3    H181812   6.054   6.790   1.883 -1.7282 -2.3709 -1.5159
20107TIP3    H281813   6.124   6.662   1.841 -0.0484 -1.0803 -2.8076
20108TIP3   OH281814   6.488   0.426   3.540  0.5499 -0.2562 -0.5419
20108TIP3    H181815   6.431   0.376   3.599 -0.0921  2.0285  0.9068
20108TIP3    H281816   6.488   0.375   3.459 -1.5441 -1.6376  0.2233
20109TIP3   OH281817   4.367   6.460  14.724 -0.1173 -0.8300  0.0934
20109TIP3    H181818   4.326   6.503  14.649  1.2436 -0.6010 -0.5529
20109TIP3    H281819   4.347   6.367  14.713 -0.8306 -0.6718  0.0384
20110TIP3   OH281820   2.523   1.015  15.103  0.0867  0.2087  0.3324
20110TIP3    H181821   2.537   0.980  15.191  0.1330 -0.1183  0.1996
20110TIP3    H281822   2.568   0.953  15.045 -3.1195 -1.8138 -0.2669
20111TIP3   OH281823   2.965   0.658   4.647  0.1491  0.2615 -0.3865
20111TIP3    H181824   2.894   0.717   4.622 -0.7121  0.2500  1.8682
20111TIP3    H281825   3.045   0.707   4.626 -0.4672  0.5636 -2.2891
20112TIP3   OH281826   1.378   5.292   4.509  0.2419  0.1082  0.4540
20112TIP3    H181827   1.297   5.245   4.489  0.4053 -0.6830  1.5809
20112TIP3    H281828   1.349   5.379   4.536 -0.1885  0.0234  0.2722
20113TIP3   OH281829   3.640   0.186  13.245  0.3456  0.1072  0.2908
20113TIP3    H181830   3.618   0.094  13.228  0.6920  0.2935 -1.3329
20113TIP3    H281831   3.566   0.219  13.296 -0.3310 -0.7708 -0.0896
20114TIP3   OH281832   4.858   4.748  15.080 -0.0417 -0.0224  0.2947
20114TIP3    H181833   4.782   4.796  15.111 -0.1113  0.2420 -0.2610
20114TIP3    H281834   4.890   4.800  15.006  0.5118 -0.2766  0.3464
20115TIP3   OH281835   0.466   2.902   3.644  0.0718 -0.1953 -0.4147
20115TIP3    H181836   0.439   2.994   3.638 -2.4904 -0.7651  0.9121
20115TIP3    H281837   0.494   2.880   3.555  1.2012  1.9442 -0.6712
20116TIP3   OH281838   5.360   0.483  11.577 -0.3184 -0.1080 -0.0335
20116TIP3    H181839   5.450   0.463  11.549 -1.2953 -1.2791 -2.6132
20116TIP3    H281840   5.357   0.455  11.668  1.5431 -1.3727 -0.2987
20117TIP3   OH281841   4.033   6.760  12.076 -0.1454 -0.4371  1.0720
20117TIP3    H181842   4.053   6.846  12.040 -0.7174 -0.2229  1.2578
20117TIP3    H281843   4.102   6.744  12.140  0.6751 -0.6652  0.1554
20118TIP3   OH281844   3.992   5.714  15.681 -0.1484 -0.4789 -0.0957
20118TIP3    H181845   3.937   5.667  15.743  0.3889 -2.2513 -0.9171
20118TIP3    H281846   4.006   5.653  15.609  1.8852  0.3698 -0.4811
20119TIP3   OH281847   5.784   5.597   4.534  0.7470 -0.0669  0.4491
20119TIP3    H181848   5.703   5.548   4.522 -0.2311  1.4687  0.5790
20119TIP3    H281849   5.804   5.590   4.627  0.8462 -0.5378  0.3968
20120TIP3   OH281850   5.925   3.011   1.289  0.0371 -0.1960 -0.2824
20120TIP3    H181851   5.954   3.051   1.371  0.0305 -0.5919 -0.0846
20120TIP3    H281852   5.830   3.006   1.296 -0.0089  0.2434 -0.5363
20121TIP3   OH281853   4.288   4.582   3.767  0.1205  0.3871 -0.6348
20121TIP3    H181854   4.284   4.521   3.693 -0.6914  1.7551 -1.7739
20121TIP3    H281855   4.226   4.546   3.831  0.8720 -0.8360 -0.5621
20122TIP3   OH281856   5.761   5.094  17.058 -0.3832  0.2364 -0.0692
20122TIP3    H181857   5.707   5.161  17.100 -0.2010 -0.3604  1.1683
20122TIP3    H281858   5.734   5.012  17.099 -1.3985 -0.6687 -2.3327
20123TIP3   OH281859   5.098   1.313   1.441 -0.4096 -1.3275  0.9611
20123TIP3    H181860   5.058   1.276   1.362 -0.0573  1.9365 -0.9724
20123TIP3    H281861   5.170   1.367   1.408 -0.8234  0.9229  3.3784
20124TIP3   OH281862   5.271   6.228  10.392 -0.2479 -0.4251 -0.4505
20124TIP3    H181863   5.307   6.199  10.475 -0.0158  0.3904 -0.2592
20124TIP3    H281864   5.177   6.209  10.397 -0.1313 -0.9430 -0.2538
20125TIP3   OH281865   4.788   6.613   0.196  0.2059 -0.3414  0.1331
20125TIP3    H181866   4.697   6.592   0.179  0.6410 -0.1679 -2.8617
20125TIP3    H281867   4.785   6.697   0.242 -1.1375 -0.9720  1.2678
20126TIP3   OH281868   1.663   1.039  12.013 -0.1961  0.3227 -0.6236
20126TIP3    H181869   1.604   0.967  12.032 -1.0192  0.9546 -0.7178
20126TIP3    H281870   1.726   1.004  11.950 -0.7030 -0.2484 -0.8140
20127TIP3   OH281871   5.099   0.340   5.200 -0.5097  0.6222  0.2239
20127TIP3    H181872   5.179   0.357   5.250  0.0526 -1.7258  0.2505
20127TIP3    H281873   5.052   0.274   5.251 -0.5889 -0.8340 -1.6092
20128TIP3   OH281874   3.213   0.146   0.777  0.7713 -0.0513  0.2050
20128TIP3    H181875   3.302   0.161   0.807  0.5563  0.0053  0.8379
20128TIP3    H281876   3.164   0.221   0.811  0.1882 -0.8401  1.1734
20129TIP3   OH281877   6.351   5.268  15.108 -0.0952 -0.6552  0.4771
20129TIP3    H181878   6.395   5.347  15.141 -0.2494 -0.7179  0.8343
20129TIP3    H281879   6.334   5.287  15.016 -0.0814 -0.2908  0.5477
20130TIP3   OH281880   4.081   2.125  11.475  0.1412 -0.1466 -0.0456
20130TIP3    H181881   4.104   2.091  11.389  1.5818 -0.5753  0.4775
20130TIP3    H281882   4.075   2.047  11.531  1.1164  0.2609  0.6470
20131TIP3   OH281883   6.111   1.175  16.269  0.2108  0.1757 -0.3379
20131TIP3    H181884   6.018   1.189  16.248  0.4395 -0.7919 -2.2286
20131TIP3    H281885   6.124   1.221  16.352 -1.9617  0.2981 -0.0060
20132TIP3   OH281886   1.915   0.905  16.943  0.3187 -0.4319  0.3794
20132TIP3    H181887   1.993   0.850  16.946  0.4493 -0.2200  1.5950
20132TIP3    H281888   1.868   0.884  17.024 -1.0740 -0.8062 -0.4766
20133TIP3   OH281889   4.341   5.385   6.342 -0.6550 -0.0717 -0.2854
20133TIP3    H181890   4.318   5.387   6.435  3.0114  2.8862  0.8231
20133TIP3    H281891   4.268   5.429   6.299 -1.4788  0.4453  1.5218
20134TIP3   OH281892   0.960   2.697   1.309  0.0402 -0.2389  0.3825
20134TIP3    H181893   0.994   2.755   1.377 -0.5153  3.2742 -2.0821
20134TIP3    H281894   1.029   2.695   1.243  0.7759 -3.9662  1.0620
20135TIP3   OH281895   4.483   2.726   5.116 -0.4029 -0.0794  0.5968
20135TIP3    H181896   4.465   2.682   5.199  0.4877 -1.9059 -0.1284
20135TIP3    H281897   4.434   2.808   5.121 -0.8286 -0.4200  2.6770
20136TIP3   OH281898   3.752   1.140   2.120  0.4301  0.1692  0.2475
20136TIP3    H181899   3.779   1.158   2.030 -0.0250  0.3632  0.1458
20136TIP3    H281900   3.688   1.069   2.112  0.2961  0.2708  0.4047
20137TIP3   OH281901   5.079   3.617  14.438  0.4702  0.3161 -0.0274
20137TIP3    H181902   5.080   3.679  14.365 -0.7559  1.7974  1.1621
20137TIP3    H281903   5.033   3.663  14.508  2.0252 -0.8712  1.8651
20138TIP3   OH281904   4.298   3.391   4.455 -0.7219 -0.4171 -0.3983
20138TIP3    H181905   4.234   3.418   4.390 -2.1907 -1.4527  0.5621
20138TIP3    H281906   4.351   3.324   4.411 -0.5206  0.1835 -1.0827
20139TIP3   OH281907   1.561   1.207   1.896  0.0731 -0.1956 -0.3631
20139TIP3    H181908   1.623   1.174   1.831  0.5367 -0.4780  0.2110
20139TIP3    H281909   1.475   1.200   1.853  0.3889 -0.2215 -0.9990
20140TIP3   OH281910   2.774   4.793  11.508  0.0877 -0.2816  0.4217
20140TIP3    H181911   2.812   4.766  11.424  0.4411  0.1240  0.4467
20140TIP3    H281912   2.703   4.731  11.523  0.5143 -0.8304  0.1982
20141TIP3   OH281913   0.162   3.241   1.877  0.3047 -0.3169 -0.7459
20141TIP3    H181914   0.072   3.219   1.855  0.9484 -1.2480 -2.7156
20141TIP3    H281915   0.171   3.217   1.969 -0.7614 -2.7624 -1.1818
20142TIP3   OH281916   5.337   5.742   5.458  0.0246 -0.6161 -0.5290
20142TIP3    H181917   5.399   5.811   5.482 -0.6028  0.1234 -0.9569
20142TIP3    H281918   5.390   5.677   5.413  0.2937  0.7434 -2.3126
20143TIP3   OH281919   4.916   0.868  16.388 -0.7832 -0.0766 -0.7068
20143TIP3    H181920   4.953   0.781  16.396  2.1082  1.1614  1.2749
20143TIP3    H281921   4.849   0.873  16.457  1.8533  0.3862  2.0445
20144TIP3   OH281922   4.336   1.415   4.915 -0.4375 -0.0324  0.7529
20144TIP3    H181923   4.318   1.507   4.933  0.8333 -0.4489  5.3546
20144TIP3    H281924   4.249   1.375   4.906 -1.0714  1.2642  0.8929
20145TIP3   OH281925   4.989   0.712  14.272  0.2004  0.1130  0.2712
20145TIP3    H181926   4.976   0.784  14.333  1.9393 -2.2894  3.8395
20145TIP3    H281927   4.907   0.662  14.275  0.8928 -1.0072  2.2871
20146TIP3   OH281928   1.250   0.564  15.093 -0.1862 -0.3979  0.2792
20146TIP3    H181929   1.325   0.559  15.034 -1.4618 -0.7513 -1.3846
20146TIP3    H281930   1.255   0.652  15.130  1.5657 -0.7382  0.9636
20147TIP3   OH281931   3.528   2.199  15.953  0.2479 -0.6942  0.1784
20147TIP3    H181932   3.507   2.123  15.899  0.1298 -1.9479  1.8982
20147TIP3    H281933   3.602   2.171  16.007  0.6413  0.6546  0.3821
20148TIP3   OH281934   0.971   3.898   0.890  0.4425  0.1280  0.3569
20148TIP3    H181935   0.922   3.820   0.915  2.2450 -1.0895  0.2741
20148TIP3    H281936   0.913   3.971   0.914  0.2237 -1.0356  4.1086
20149TIP3   OH281937   1.117   2.175   2.904 -0.5349 -0.1182 -0.0504
20149TIP3    H181938   1.039   2.222   2.872 -2.3907 -1.7260  1.7964
20149TIP3    H281939   1.160   2.237   2.963 -0.0880  0.9784 -1.5006
20150TIP3   OH281940   3.856   2.777   5.922 -0.1204  0.4179 -0.0786
20150TIP3    H181941   3.812   2.856   5.952  0.3962  1.0373 -0.9247
20150TIP3    H281942   3.885   2.798   5.833 -0.0167 -0.7360 -0.3307
20151TIP3   OH281943   0.267   5.693   2.484  0.1997 -0.9330 -0.2514
20151TIP3    H181944   0.301   5.657   2.402  0.1376  1.1997 -1.2932
20151TIP3    H281945   0.183   5.650   2.497 -0.5137 -0.2453 -2.1676
20152TIP3   OH281946   1.595   6.693  15.316 -0.8198  0.2529  0.1688
20152TIP3    H181947   1.636   6.779  15.321 -1.5659  0.7083 -1.0078
20152TIP3    H281948   1.644   6.639  15.377 -1.2841  1.8890  2.1204
20153TIP3   OH281949   4.501   3.570  16.154 -0.1659 -0.4269  0.0135
20153TIP3    H181950   4.439   3.605  16.090 -0.3101  1.8965  1.3108
20153TIP3    H281951   4.584   3.614  16.134  0.2264 -1.0161  0.3271
20154TIP3   OH281952   2.997   5.333   3.609 -0.7711 -0.9749 -0.5260
20154TIP3    H181953   3.029   5.422   3.618 -1.9761 -0.5943  0.2162
20154TIP3    H281954   3.060   5.280   3.658  0.0133 -0.5647 -1.0686
20155TIP3   OH281955   1.929   0.177  11.660 -0.4382 -0.4099  0.5689
20155TIP3    H181956   2.021   0.202  11.655 -0.2952 -0.3678  2.6552
20155TIP3    H281957   1.908   0.180  11.753 -3.1321  1.6182  0.0189
20156TIP3   OH281958   0.389   2.872  13.414  0.5270 -0.2482 -0.3502
20156TIP3    H181959   0.365   2.815  13.487  2.7087 -0.3026  0.3901
20156TIP3    H281960   0.364   2.823  13.336 -1.0829 -0.5488  0.3150
20157TIP3   OH281961   0.572   5.752  13.047 -0.0234  0.1532 -0.1559
20157TIP3    H181962   0.570   5.656  13.041  0.4603  0.1117  0.2415
20157TIP3    H281963   0.598   5.781  12.960  1.3496 -0.1495  0.1414
20158TIP3   OH281964   5.964   3.105  13.816  0.0904 -0.1047  0.4982
20158TIP3    H181965   6.005   3.019  13.813  0.4506  0.1028 -0.7743
20158TIP3    H281966   6.037   3.166  13.829 -0.2253 -0.0183  2.0667
20159TIP3   OH281967   0.072   3.722   1.331 -1.2877  0.1165  0.2144
20159TIP3    H181968   0.084   3.654   1.398  3.1311  1.0199  0.5999
20159TIP3    H281969   0.024   3.792   1.376  1.2243  0.5402  2.4804
20160TIP3   OH281970   6.420   4.912   1.606 -0.4600 -0.2883 -0.8440
20160TIP3    H181971   6.424   4.897   1.701 -0.6544  0.0184 -0.7861
20160TIP3    H281972   6.507   4.888   1.575 -0.3925 -0.3889 -0.5882
20161TIP3   OH281973   4.456   5.668   5.818  0.1862  0.0142  0.1651
20161TIP3    H181974   4.510   5.746   5.809  2.2152 -1.0341  2.3338
20161TIP3    H281975   4.399   5.687   5.892  1.2537 -0.7954  1.2357
20162TIP3   OH281976   5.216   6.811   0.848  0.6137  0.3174  0.4780
20162TIP3    H181977   5.249   6.832   0.760 -0.3494 -0.5194 -0.0973
20162TIP3    H281978   5.285   6.843   0.907  1.4092  0.6388 -0.5860
20163TIP3   OH281979   5.871   1.155   0.915 -0.2610 -0.0060  0.2834
20163TIP3    H181980   5.950   1.167   0.862 -0.4748  0.3398  0.0452
20163TIP3    H281981   5.905   1.136   1.003  0.0973  0.8686  0.3490
20164TIP3   OH281982   6.712   0.142   2.918 -0.6458  0.1097  0.3762
20164TIP3    H181983   6.734   0.218   2.864  0.0560  0.5377  1.2468
20164TIP3    H281984   6.795   0.096   2.931 -0.2817  1.3481  3.0881
20165TIP3   OH281985   6.559   3.120   3.525  0.1556 -0.5101 -0.1590
20165TIP3    H181986   6.626   3.155   3.583 -0.5759  0.9496 -0.1593
20165TIP3    H281987   6.503   3.067   3.582 -0.9557  1.4550  0.6689
20166TIP3   OH281988   6.014   6.397  14.743  0.2860 -0.2297  0.4879
20166TIP3    H181989   5.965   6.463  14.694 -1.1143 -0.7734  1.1280
20166TIP3    H281990   5.958   6.375  14.817  1.9571 -0.0955  1.8557
20167TIP3   OH281991   4.080   4.481   1.904 -0.0037 -0.6117  0.9856
20167TIP3    H181992   4.118   4.464   1.991  5.1156  2.6053 -0.1935
20167TIP3    H281993   4.057   4.574   1.906 -0.9903 -0.7796 -0.7534
20168TIP3   OH281994   0.883   0.421  16.520  0.3837  0.2530  0.1823
20168TIP3    H181995   0.894   0.514  16.498 -0.9865  0.0628 -1.5284
20168TIP3    H281996   0.847   0.422  16.609 -0.0033  1.3832  0.0339
20169TIP3   OH281997   5.143   3.471  16.945 -0.0977 -0.0768  0.3166
20169TIP3    H181998   5.112   3.387  16.979 -1.8547  0.2778 -0.3368
20169TIP3    H281999   5.140   3.530  17.020 -2.1504  0.2302  0.0308
20170TIP3   OH282000   4.508   4.846   0.562 -0.4662  0.4207  0.7087
20170TIP3    H182001   4.591   4.797   0.563  0.4231  1.8164 -0.7341
20170TIP3    H282002   4.458   4.809   0.636  0.2499 -2.4176 -0.0885
20171TIP3   OH282003   3.621   6.469  11.556  0.2548 -0.5634  0.1944
20171TIP3    H182004   3.557   6.420  11.505  0.4003 -0.5830  0.0293
20171TIP3    H282005   3.704   6.458  11.508 -0.0768  1.4746 -0.9534
20172TIP3   OH282006   2.848   4.121   0.174 -0.3022  0.0598 -0.1020
20172TIP3    H182007   2.913   4.122   0.245 -1.0765  1.0734  0.6166
20172TIP3    H282008   2.884   4.182   0.110  0.1762 -0.5116 -0.3885
20173TIP3   OH282009   4.663   0.821  16.801 -0.2413 -0.4123 -0.4187
20173TIP3    H182010   4.656   0.915  16.818  0.2608 -0.3459 -0.5636
20173TIP3    H282011   4.575   0.794  16.774 -0.0845  0.2721 -1.6545
20174TIP3   OH282012   6.807   0.097  16.668  0.1709  0.1203 -0.6586
20174TIP3    H182013   6.866   0.146  16.725 -0.3754  0.2886 -0.2318
20174TIP3    H282014   6.775   0.161  16.605 -1.7282  0.7169  0.8197
20175TIP3   OH282015   3.387   4.095  16.222  0.3518  0.0369  0.9291
20175TIP3    H182016   3.310   4.129  16.177  0.7429 -0.3087 -0.0406
20175TIP3    H282017   3.451   4.166  16.217  2.3283 -1.6518 -3.9447
20176TIP3   OH282018   3.365   3.410   4.370  0.2535  0.0418  0.3489
20176TIP3    H182019   3.297   3.438   4.432 -1.2188 -1.4102 -0.5048
20176TIP3    H282020   3.442   3.394   4.424  0.2479  2.5682  1.2513
20177TIP3   OH282021   1.520   2.690  14.416  0.5769 -0.0022 -0.1887
20177TIP3    H182022   1.575   2.622  14.377 -0.4615 -1.7275  1.1911
20177TIP3    H282023   1.430   2.663  14.394  0.1431  2.7049 -2.3469
20178TIP3   OH282024   0.602   6.722  12.737  0.4532 -0.1091 -0.7229
20178TIP3    H182025   0.586   6.635  12.699  2.0812  0.2265 -2.3031
20178TIP3    H282026   0.530   6.776  12.704  0.1301 -0.5462 -0.7521
20179TIP3   OH282027   5.151   1.994   2.634 -0.3777  0.1706 -0.7313
20179TIP3    H182028   5.199   2.020   2.713  0.4478 -0.6998 -0.9182
20179TIP3    H282029   5.212   2.013   2.562 -0.7732  0.1290 -1.0831
20180TIP3   OH282030   5.775   6.407  15.892  0.6546  0.5946  0.4680
20180TIP3    H182031   5.830   6.435  15.966  2.1296 -1.7455  0.3695
20180TIP3    H282032   5.832   6.351  15.840  0.3625  3.7293 -3.7138
20181TIP3   OH282033   2.861   0.128   5.750 -0.2218 -0.0065  0.3292
20181TIP3    H182034   2.809   0.049   5.757  1.3942 -1.3698 -1.7198
20181TIP3    H282035   2.951   0.100   5.769  0.2651  1.5263  0.4589
20182TIP3   OH282036   4.515   4.187   2.438 -0.2546  0.3332  0.1619
20182TIP3    H182037   4.532   4.281   2.434  0.6441  0.1976  0.6739
20182TIP3    H282038   4.587   4.151   2.489  0.1306 -0.8151 -1.1310
20183TIP3   OH282039   4.028   6.682   3.235 -0.4393 -0.4035  0.3278
20183TIP3    H182040   4.078   6.600   3.238  0.3384 -0.0515 -1.6718
20183TIP3    H282041   3.946   6.659   3.191  1.3306  0.4785 -3.9590
20184TIP3   OH282042   4.895   3.274   1.497  0.2307 -0.1064 -0.6793
20184TIP3    H182043   4.919   3.366   1.491 -2.3804  0.7712  0.7691
20184TIP3    H282044   4.942   3.242   1.574 -0.1256  0.4877 -0.2064
20185TIP3   OH282045   0.367   6.043  16.476 -0.0693 -0.5928 -0.3588
20185TIP3    H182046   0.381   6.116  16.537  0.4055 -1.2505  0.3253
20185TIP3    H282047   0.400   6.076  16.392 -0.9509  0.4068 -0.3346
20186TIP3   OH282048   6.197   5.369   1.428 -0.1214 -0.1130 -0.1414
20186TIP3    H182049   6.241   5.298   1.474  0.1989  0.4548  0.4336
20186TIP3    H282050   6.201   5.444   1.488 -1.2526  0.1416 -0.3595
20187TIP3   OH282051   5.819   5.462  15.916 -0.4484  0.4570 -0.2057
20187TIP3    H182052   5.740   5.516  15.905  0.3619  1.4473 -1.4091
20187TIP3    H282053   5.787   5.382  15.956 -1.8825  1.3369  0.5154
20188TIP3   OH282054   6.069   1.322   0.429 -0.1976 -0.0623 -0.6319
20188TIP3    H182055   6.055   1.241   0.379 -0.1586  0.4706 -1.5319
20188TIP3    H282056   6.160   1.318   0.457  0.1795  0.2406 -1.7589
20189TIP3   OH282057   4.289   2.470  13.880  0.8228 -0.4774 -0.2407
20189TIP3    H182058   4.311   2.529  13.807  1.4159 -0.0875  0.2484
20189TIP3    H282059   4.274   2.385  13.838 -1.0641  0.2115 -1.0990
20190TIP3   OH282060   4.245   3.876  16.600 -0.5255  0.0535 -0.0118
20190TIP3    H182061   4.330   3.872  16.644 -0.3095 -0.4917 -0.4706
20190TIP3    H282062   4.254   3.820  16.524 -1.1000  0.4911 -0.4183
20191TIP3   OH282063   4.534   6.075   0.757 -0.3708 -0.1291  0.3067
20191TIP3    H182064   4.554   5.982   0.771  0.0782  0.0593  0.9527
20191TIP3    H282065   4.464   6.075   0.691 -0.2447 -0.9165  0.1643
20192TIP3   OH282066   5.585   5.858   4.614 -0.4622 -0.2709  0.0236
20192TIP3    H182067   5.653   5.797   4.588  1.2071  0.7890  1.6164
20192TIP3    H282068   5.567   5.836   4.706  0.4632  1.7850  0.7630
20193TIP3   OH282069   4.511   0.311  11.443 -0.5841 -0.3113 -0.7676
20193TIP3    H182070   4.464   0.385  11.406 -1.5029 -0.6884 -0.3951
20193TIP3    H282071   4.543   0.262  11.368 -2.6323 -1.2028 -1.1178
20194TIP3   OH282072   3.119   4.016  11.006 -0.1814  0.0214  0.6779
20194TIP3    H182073   3.056   3.985  10.940  0.2377 -1.6992  1.0232
20194TIP3    H282074   3.168   4.085  10.962 -0.4108 -0.5869 -0.5830
20195TIP3   OH282075   1.818   2.642  14.132  0.2140  0.4238  0.3850
20195TIP3    H182076   1.764   2.705  14.180 -2.9232 -2.1408  0.6216
20195TIP3    H282077   1.811   2.669  14.040  0.6292  1.5349  0.6651
20196TIP3   OH282078   5.803   5.572   0.146  0.6828  0.4249 -0.0805
20196TIP3    H182079   5.889   5.576   0.104  1.1334 -0.3916  0.7008
20196TIP3    H282080   5.766   5.659   0.136  0.4999  0.1061 -2.6713
20197TIP3   OH282081   2.839   1.189  13.097  0.5533 -0.0426 -0.0058
20197TIP3    H182082   2.786   1.169  13.175 -2.3304  3.2454 -0.8541
20197TIP3    H282083   2.907   1.249  13.130 -0.6594  1.3451  0.0770
20198TIP3   OH282084   2.255   5.435   2.228  0.1122 -0.6144 -0.0800
20198TIP3    H182085   2.335   5.485   2.239 -0.8676  1.0113  0.0308
20198TIP3    H282086   2.275   5.370   2.161  0.7156  1.6437 -2.2231
20199TIP3   OH282087   3.345   0.889  12.283  0.3355 -0.6759 -0.1527
20199TIP3    H182088   3.345   0.799  12.252  3.0874 -1.3085  1.4037
20199TIP3    H282089   3.301   0.886  12.368 -0.2761 -0.3929 -0.4545
20200TIP3   OH282090   1.490   6.747  13.731  0.4906 -0.0403  0.1337
20200TIP3    H182091   1.460   6.822  13.782  1.3621  1.1361 -1.0191
20200TIP3    H282092   1.559   6.782  13.675 -0.0054 -1.4099 -1.4194
20201TIP3   OH282093   4.954   5.297  15.597 -0.1157  0.6144  0.1877
20201TIP3    H182094   4.887   5.364  15.586 -0.1417  0.5473 -0.0722
20201TIP3    H282095   4.999   5.293  15.512  0.1568  0.5934  0.3287
20202TIP3   OH282096   0.931   2.016   4.344  0.0081 -0.5291 -0.6600
20202TIP3    H182097   0.866   1.984   4.406 -1.3219 -0.3821 -1.8973
20202TIP3    H282098   0.903   1.979   4.260  1.1869  0.0458 -1.3266
20203TIP3   OH282099   4.916   1.394   0.780  0.4050 -0.2776 -0.8171
20203TIP3    H182100   4.821   1.387   0.784  0.3420 -1.2098 -2.6963
20203TIP3    H282101   4.947   1.305   0.791  1.1356  0.1200  0.5494
20204TIP3   OH282102   1.310   3.293   6.156 -0.3962 -0.2510  0.4674
20204TIP3    H182103   1.285   3.336   6.238 -1.1557 -0.5187  0.3896
20204TIP3    H282104   1.368   3.355   6.113  1.6608 -0.9371  2.1058
20205TIP3   OH282105   2.966   1.908   0.208 -0.0617  0.3830  0.4309
20205TIP3    H182106   2.958   1.941   0.298 -0.9472 -0.4467  0.6743
20205TIP3    H282107   2.952   1.813   0.217 -0.1575  0.2994 -0.5851
20206TIP3   OH282108   3.888   0.932  15.966 -0.0580  0.3100  0.1128
20206TIP3    H182109   3.848   0.979  15.892  1.6628  0.3155 -0.8499
20206TIP3    H282110   3.826   0.861  15.985  0.2983 -0.8205 -2.5398
20207TIP3   OH282111   2.054   4.155  11.874 -0.0229  0.6278  0.0384
20207TIP3    H182112   1.964   4.143  11.843 -0.2793 -1.8229  1.4677
20207TIP3    H282113   2.107   4.150  11.795 -1.1008  1.9349 -0.8071
20208TIP3   OH282114   1.959   2.039   1.027  0.6423 -0.3623 -0.0161
20208TIP3    H182115   2.010   1.963   0.998  1.4124  0.6007 -1.2987
20208TIP3    H282116   2.009   2.076   1.099  0.6631 -0.6434  0.1131
20209TIP3   OH282117   4.620   2.216  17.228 -0.1577  0.5016  0.5040
20209TIP3    H182118   4.586   2.302  17.201  0.2868  0.4859 -0.1338
20209TIP3    H282119   4.575   2.154  17.170 -1.1982  0.1998  1.6038
20210TIP3   OH282120   2.329   0.991  14.790  0.2956 -0.1645 -0.4161
20210TIP3    H182121   2.311   0.923  14.855  0.3140 -0.9555 -1.2250
20210TIP3    H282122   2.272   1.064  14.815 -0.4298 -0.8301 -0.0884
20211TIP3   OH282123   3.180   4.172  11.846  0.2025  0.1339 -0.1904
20211TIP3    H182124   3.230   4.112  11.902  0.5328  0.4853 -0.0978
20211TIP3    H282125   3.126   4.222  11.907  2.4348  2.3108  0.1494
20212TIP3   OH282126   0.562   4.961   4.273 -0.1199  0.4472 -0.1563
20212TIP3    H182127   0.549   4.876   4.233 -2.3771 -0.0604  1.4729
20212TIP3    H282128   0.642   4.951   4.324  0.8206  0.0222 -1.6569
20213TIP3   OH282129   5.939   5.477  13.242  0.0385  0.2865 -0.1712
20213TIP3    H182130   6.022   5.440  13.272  0.2851 -0.6631 -1.9011
20213TIP3    H282131   5.936   5.564  13.281  2.2826  0.6934 -0.7765
20214TIP3   OH282132   6.681   3.271  12.476 -0.3352 -0.1308  0.0603
20214TIP3    H182133   6.747   3.321  12.523  1.8463 -2.2089 -0.6067
20214TIP3    H282134   6.642   3.214  12.542 -0.3281 -0.0189  0.1610
20215TIP3   OH282135   4.797   3.046  16.557 -0.3066  0.2770  0.4101
20215TIP3    H182136   4.841   3.082  16.479  0.2571  2.5176  1.6955
20215TIP3    H282137   4.852   2.972  16.582  1.1753  1.2914  0.3155
20216TIP3   OH282138   3.836   3.103  15.984  0.0408  0.0218  0.5351
20216TIP3    H182139   3.828   3.184  15.934 -0.5754 -0.8841 -0.8960
20216TIP3    H282140   3.915   3.116  16.036  0.1987  1.3710  0.0190
20217TIP3   OH282141   1.154   2.860   0.240  0.1048  0.0028 -0.0313
20217TIP3    H182142   1.179   2.781   0.286 -1.1550 -1.3042 -1.4723
20217TIP3    H282143   1.153   2.928   0.308  0.5923 -1.3353  1.3686
20218TIP3   OH282144   0.175   2.223   3.670 -0.9393  0.6104 -0.0582
20218TIP3    H182145   0.124   2.226   3.751  1.1527  0.7276  1.3391
20218TIP3    H282146   0.186   2.314   3.644  0.3555  0.7462  0.8815
20219TIP3   OH282147   6.222   4.164   6.076  0.3218  0.0473  0.1084
20219TIP3    H182148   6.132   4.146   6.051  0.6447 -2.1616  0.3187
20219TIP3    H282149   6.218   4.182   6.170  0.0991 -0.2691  0.1638
20220TIP3   OH282150   0.013   4.648   0.835 -0.9185 -0.2777  0.2354
20220TIP3    H182151  -0.040   4.613   0.906  1.5532 -1.2400  1.7346
20220TIP3    H282152   0.092   4.593   0.835  0.0664  1.0133 -1.9015
20221TIP3   OH282153   2.873   5.704  15.452  0.3520  0.7261 -0.7816
20221TIP3    H182154   2.885   5.695  15.546  0.0701  0.8647 -0.7304
20221TIP3    H282155   2.786   5.742  15.443  0.6733  1.4231 -1.0640
20222TIP3   OH282156   1.916   1.718  15.523  0.1365  0.2031 -0.6165
20222TIP3    H182157   1.885   1.634  15.490  0.4698  0.5502 -1.8505
20222TIP3    H282158   1.990   1.741  15.466  0.2682  1.1676 -0.0783
20223TIP3   OH282159   0.037   5.730   4.521  0.4598  0.2383 -0.0763
20223TIP3    H182160   0.052   5.812   4.568  0.9171 -0.1885  0.5476
20223TIP3    H282161  -0.022   5.753   4.450 -1.1418  0.7261  1.3332
20224TIP3   OH282162   1.920   3.592   2.921 -0.4162 -0.1447 -0.2220
20224TIP3    H182163   1.901   3.603   2.828 -0.5929  0.4690 -0.1176
20224TIP3    H282164   1.909   3.498   2.937  1.1080 -0.5236 -1.1431
20225TIP3   OH282165   3.271   6.140   2.327 -0.1033 -0.4915 -0.2490
20225TIP3    H182166   3.233   6.214   2.374  0.5347  0.5883 -1.3816
20225TIP3    H282167   3.206   6.071   2.334 -1.5127  0.7483 -0.6617
20226TIP3   OH282168   3.930   5.461  14.195 -0.2135 -0.0009 -0.2414
20226TIP3    H182169   3.842   5.424  14.190 -0.0647 -0.3988  0.0793
20226TIP3    H282170   3.978   5.402  14.252  0.6952 -0.6447 -1.6134
20227TIP3   OH282171   0.843   3.505   0.657 -0.0097 -0.4879 -0.0967
20227TIP3    H182172   0.926   3.500   0.703 -0.6817  1.1429  1.4290
20227TIP3    H282173   0.790   3.434   0.693  0.5440 -1.2736 -0.7829
20228TIP3   OH282174   0.382   6.118  11.585 -0.9893 -0.5739 -0.0611
20228TIP3    H182175   0.352   6.030  11.608  0.6933 -1.2638 -0.3355
20228TIP3    H282176   0.309   6.176  11.606 -1.7266 -1.9146  1.1452
20229TIP3   OH282177   3.905   3.524  15.041  0.3194 -0.6777  0.2095
20229TIP3    H182178   3.897   3.564  15.127 -2.9310 -0.4841 -0.0699
20229TIP3    H282179   3.974   3.458  15.051 -0.5013 -1.1943  3.1737
20230TIP3   OH282180   1.111   4.135   6.210  0.3688  0.1785  0.7986
20230TIP3    H182181   1.163   4.214   6.223 -1.3497  1.0641  2.8366
20230TIP3    H282182   1.051   4.133   6.285 -0.1552 -2.6638  0.4098
20231TIP3   OH282183   1.131   3.999   1.661 -0.6830 -0.5564 -0.3860
20231TIP3    H182184   1.101   3.970   1.575 -1.4855 -3.0709  0.6391
20231TIP3    H282185   1.076   3.950   1.723  0.6244  0.3075  1.5601
20232TIP3   OH282186   5.705   6.067   4.884  0.2976  0.0777 -0.4427
20232TIP3    H182187   5.658   6.000   4.834 -0.1201  0.8861 -1.1622
20232TIP3    H282188   5.796   6.056   4.860  0.2221 -0.1984 -0.6028
20233TIP3   OH282189   3.264   1.215   4.437 -0.0835  0.1948  0.6551
20233TIP3    H182190   3.321   1.237   4.363 -0.6449  1.9492  0.6759
20233TIP3    H282191   3.323   1.192   4.508  0.4844 -0.8876 -0.1532
20234TIP3   OH282192   5.538   4.438   3.495  0.4445 -0.7141 -0.6813
20234TIP3    H182193   5.600   4.441   3.423  2.4565  1.5146  0.9678
20234TIP3    H282194   5.577   4.493   3.563 -2.2014 -1.1994  1.4329
20235TIP3   OH282195   3.096   3.044   3.099 -0.1775 -0.3562 -0.4002
20235TIP3    H182196   3.134   3.061   3.013  0.2451 -1.5313 -0.4691
20235TIP3    H282197   3.157   3.085   3.161  0.8893 -1.6570 -0.5475
20236TIP3   OH282198   4.894   1.258  14.611 -0.0199 -0.1389 -0.3970
20236TIP3    H182199   4.857   1.201  14.543  0.9490 -2.0801  0.6002
20236TIP3    H282200   4.907   1.200  14.686  2.2507  1.0943  0.2616
20237TIP3   OH282201   6.167   0.688  11.804  0.0084 -0.5704  0.2207
20237TIP3    H182202   6.239   0.641  11.846  0.5055 -1.5272 -1.5821
20237TIP3    H282203   6.093   0.675  11.862  0.9450 -0.7945  1.4024
20238TIP3   OH282204   2.518   6.673  15.732 -0.0272  0.0054 -0.3581
20238TIP3    H182205   2.441   6.656  15.786 -0.0996  0.3162 -0.3611
20238TIP3    H282206   2.508   6.764  15.704 -0.4384 -0.3961 -1.6133
20239TIP3   OH282207   5.920   2.413   4.795  0.3368  0.1477 -0.0950
20239TIP3    H182208   5.928   2.346   4.863  0.0198  0.9496  0.7657
20239TIP3    H282209   5.927   2.365   4.712  1.5508 -0.7511  0.4972
20240TIP3   OH282210   1.427   1.502  14.146 -0.3413  0.6698  0.0352
20240TIP3    H182211   1.467   1.472  14.065 -0.6742  2.5451 -0.8914
20240TIP3    H282212   1.349   1.447  14.157 -1.0102  1.2158 -1.6450
20241TIP3   OH282213   3.461   1.499   4.112 -0.0912 -0.2274 -0.3988
20241TIP3    H182214   3.399   1.539   4.172  0.6316 -0.4552  0.5273
20241TIP3    H282215   3.484   1.416   4.152  1.3319  0.1543 -0.3494
20242TIP3   OH282216   2.451   6.225   3.288  0.1895 -0.3795  0.2179
20242TIP3    H182217   2.502   6.183   3.218  1.4403 -0.1404  0.9488
20242TIP3    H282218   2.463   6.167   3.363  2.9935  1.7931  1.6255
20243TIP3   OH282219   4.027   3.242   6.189 -0.4507 -0.1726  0.3922
20243TIP3    H182220   4.012   3.154   6.222 -0.9427 -1.5881 -3.1357
20243TIP3    H282221   3.944   3.288   6.206  0.1710  0.0747  3.2189
20244TIP3   OH282222   4.291   1.833  11.077  0.0880 -0.6548  0.1910
20244TIP3    H182223   4.386   1.825  11.071  0.4214  2.8660 -1.4849
20244TIP3    H282224   4.262   1.849  10.987 -1.8735  0.1162  0.9039
20245LIG      S82225   2.911   3.219  10.180  0.3457 -0.6396 -0.0855
20245LIG     N182226   2.938   3.376  10.844 -0.0175 -0.1838  0.8679
20245LIG     N282227   3.167   3.549  10.927 -0.1402  0.2724 -0.0322
20245LIG     N382228   3.005   3.285  10.461 -0.0271  0.2332  0.7971
20245LIG     C182229   2.915   3.310  10.708  0.4040 -0.1417  0.3009
20245LIG     C282230   3.036   3.326  10.933 -0.2616  0.0932 -0.1378
20245LIG     C382231   2.930   3.526  10.842  0.6307 -0.4620  0.0257
20245LIG     C482232   3.175   3.393  10.922  0.2162  0.0032 -0.5249
20245LIG     C582233   3.073   3.589  10.814 -0.1420  0.2449  0.9462
20245LIG     C682234   3.030   3.332  10.604  0.4035  0.1007 -0.0589
20245LIG     C782235   2.776   3.349  10.660  0.1520  0.0826  0.1515
20245LIG     C882236   3.132   3.604  11.055 -0.0402  0.2881  0.7528
20245LIG     C982237   2.995   3.142  10.426 -0.2228  0.1725 -0.3292
20245LIG    C1082238   3.067   3.363  10.350  0.5588  0.4147  0.1469
20245LIG    C1182239   3.230   3.569  11.167  0.3906  0.0144 -0.6621
20245LIG    C1282240   2.962   3.097  10.290  0.1068  0.0921 -0.0413
20245LIG    C1382241   3.029   3.341  10.213  0.3091  0.3708 -0.4063
20245LIG    C1482242   3.029   3.045  10.516  0.0738  0.4795  0.2235
20245LIG    C1582243   3.171   3.452  10.378 -0.6670  0.1504  0.5388
20245LIG    C1682244   2.960   2.963  10.254  0.7234  1.0386  0.4493
20245LIG    C1782245   3.078   3.416  10.110  0.6326 -0.2410  0.9100
20245LIG    C1882246   3.025   2.910  10.484  0.0141  0.2240 -0.8317
20245LIG    C1982247   3.232   3.519  10.269  0.3865 -0.2060  0.7816
20245LIG    C2082248   2.986   2.868  10.360 -0.4887 -0.4502 -0.0717
20245LIG    C2182249   3.184   3.502  10.143  0.2822  0.0587  0.5393
20245LIG     H182250   2.893   3.202  10.722 -1.1961 -0.1727 -1.8285
20245LIG     H282251   3.052   3.216  10.932  1.7584  0.1876  3.8162
20245LIG     H382252   2.990   3.347  11.032 -2.5351 -0.7728 -0.9438
20245LIG     H482253   2.886   3.560  10.938  0.5808 -1.4474  0.3603
20245LIG     H582254   2.858   3.565  10.767  1.4239  0.9037 -0.0725
20245LIG     H682255   3.254   3.352  10.988  0.9792 -1.1221 -2.0955
20245LIG     H782256   3.215   3.364  10.823  0.1394  1.5614 -1.0400
20245LIG     H882257   3.051   3.698  10.809 -0.6733  0.2331  2.5486
20245LIG     H982258   3.124   3.565  10.718 -2.4271 -2.0897  0.1921
20245LIG    H1082259   3.028   3.443  10.597 -1.0630  0.1587  0.9092
20245LIG    H1182260   3.126   3.303  10.652  0.4061  0.5222  0.1990
20245LIG    H1282261   2.711   3.375  10.746  1.3912 -0.0102  1.1576
20245LIG    H1382262   2.737   3.261  10.606 -2.7240  0.0224  2.1415
20245LIG    H1482263   2.780   3.433  10.587  2.6298 -0.2729 -0.2197
20245LIG    H1582264   3.034   3.568  11.091 -0.5046 -0.1095 -0.8293
20245LIG    H1682265   3.118   3.714  11.062 -3.5835 -0.1158  2.0833
20245LIG    H1782266   3.210   3.640  11.251 -0.1487 -0.0044 -0.7680
20245LIG    H1882267   3.336   3.577  11.136  0.7925 -1.1003  0.3374
20245LIG    H1982268   3.214   3.469  11.213 -1.6426  0.3236 -0.5878
20245LIG    H2082269   3.074   3.068  10.612 -1.4458  1.9762  0.6244
20245LIG    H2182270   3.207   3.473  10.478 -0.0495 -1.9510  0.7999
20245LIG    H2282271   2.952   2.924  10.153 -0.7738  1.1153  0.5176
20245LIG    H2382272   3.051   3.396  10.007  1.7011 -0.3139  0.6265
20245LIG    H2482273   3.058   2.847  10.566 -1.8617 -0.4289 -0.5170
20245LIG    H2582274   3.315   3.589  10.268 -0.5387  1.1048 -2.9174
20245LIG    H2682275   3.002   2.764  10.339  3.4135 -0.1089  0.4429
20245LIG    H2782276   3.230   3.554  10.060 -0.8713 -0.6888 -0.6273
   6.81461   6.81461  17.29743
